<event>
12    1  0.1960998E-007  0.1766990E+04  0.7818608E-02  0.8724054E-01
          1   -1    0    0  501    0  0.00000000000E+00  0.00000000000E+00  0.39492332621E+03  0.39492332621E+03  0.00000000000E+00 0. -1.
         -1   -1    0    0    0  501 -0.00000000000E+00 -0.00000000000E+00 -0.19764928705E+04  0.19764928705E+04  0.00000000000E+00 0.  1.
         23    2    1    2    0    0 -0.26477737330E+03  0.45446137048E+03 -0.74247701368E+02  0.53912672511E+03  0.92210139875E+02 0.  0.
        254    2    1    2    0    0  0.26477737330E+03 -0.45446137048E+03 -0.15073218429E+04  0.18322894716E+04  0.89923488310E+03 0.  0.
        -24    2    4    4    0    0 -0.31018099993E+03 -0.14427332792E+03 -0.75574085402E+03  0.83337444946E+03  0.79634720557E+02 0.  0.
         24    2    4    4    0    0  0.57495837323E+03 -0.31018804256E+03 -0.75158098892E+03  0.99891502217E+03  0.78507871663E+02 0.  0.
         13    1    3    3    0    0 -0.52682224381E+02  0.58210502577E+02 -0.40701196677E+02  0.88433403117E+02  0.00000000000E+00 0. -1.
        -13    1    3    3    0    0 -0.21209514892E+03  0.39625086790E+03 -0.33546504691E+02  0.45069332199E+03  0.00000000000E+00 0.  1.
          2    1    6    6  502    0  0.48995578375E+03 -0.23116055605E+03 -0.60987480008E+03  0.81574453383E+03  0.00000000000E+00 0. -1.
          1    1    5    5  503    0 -0.28039547204E+03 -0.14755294640E+03 -0.72065534598E+03  0.78723415857E+03  0.00000000000E+00 0. -1.
         -2    1    5    5    0  503 -0.29785527889E+02  0.32796184887E+01 -0.35085508039E+02  0.46140290890E+02  0.00000000000E+00 0.  1.
         -1    1    6    6    0  502  0.85002589485E+02 -0.79027486506E+02 -0.14170618884E+03  0.18317048834E+03  0.00000000000E+00 0.  1.
<mgrwt>
<rscale>  0 0.17669897E+04</rscale>
<asrwt>0</asrwt>
<pdfrwt beam="1">  1        1 0.60757432E-01 0.17669897E+04</pdfrwt>
<pdfrwt beam="2">  1       -1 0.30407584E+00 0.17669897E+04</pdfrwt>
<totfact> 0.17969227E+00</totfact>
</mgrwt>
</event>
<event>
12    1  0.1960998E-007  0.1180956E+04  0.7818608E-02  0.9129691E-01
          1   -1    0    0  501    0  0.00000000000E+00  0.00000000000E+00  0.80485692905E+03  0.80485692905E+03  0.00000000000E+00 0. -1.
         -1   -1    0    0    0  501 -0.00000000000E+00 -0.00000000000E+00 -0.43320001030E+03  0.43320001030E+03  0.00000000000E+00 0.  1.
         23    2    1    2    0    0 -0.12132408889E+03  0.18621151810E+03  0.91621331380E+00  0.24022701460E+03  0.91180672741E+02 0.  0.
        254    2    1    2    0    0  0.12132408889E+03 -0.18621151810E+03  0.37074070543E+03  0.99782992475E+03  0.89934510842E+03 0.  0.
        -24    2    4    4    0    0 -0.65484255790E+01 -0.36605136539E+02  0.64510380940E+03  0.65148498984E+03  0.83011741242E+02 0.  0.
         24    2    4    4    0    0  0.12787251447E+03 -0.14960638156E+03 -0.27436310397E+03  0.34634493491E+03  0.77111943064E+02 0.  0.
         11    1    3    3    0    0 -0.70458543121E+02  0.31155860488E+02  0.36109173783E+00  0.77040407117E+02  0.00000000000E+00 0.  1.
        -11    1    3    3    0    0 -0.50865545765E+02  0.15505565761E+03  0.55512157597E+00  0.16318660748E+03  0.00000000000E+00 0. -1.
          2    1    6    6  502    0  0.70257314132E+02 -0.11807933009E+03 -0.22709808052E+03  0.26542862800E+03  0.00000000000E+00 0. -1.
          1    1    5    5  503    0  0.37984894552E+02 -0.22387726693E+02  0.32993324702E+03  0.33286635458E+03  0.00000000000E+00 0. -1.
         -2    1    5    5    0  503 -0.44533320131E+02 -0.14217409846E+02  0.31517056238E+03  0.31861863526E+03  0.00000000000E+00 0.  1.
         -1    1    6    6    0  502  0.57615200333E+02 -0.31527051467E+02 -0.47265023443E+02  0.80916306914E+02  0.00000000000E+00 0.  1.
<mgrwt>
<rscale>  0 0.11809556E+04</rscale>
<asrwt>0</asrwt>
<pdfrwt beam="1">  1        1 0.12382414E+00 0.11809556E+04</pdfrwt>
<pdfrwt beam="2">  1       -1 0.66646155E-01 0.11809556E+04</pdfrwt>
<totfact> 0.49509864E+01</totfact>
</mgrwt>
</event>
<event>
12    1  0.1960998E-007  0.2074232E+04  0.7818608E-02  0.8572680E-01
          2   -1    0    0  501    0  0.00000000000E+00  0.00000000000E+00  0.38418846304E+03  0.38418846304E+03  0.00000000000E+00 0. -1.
         -2   -1    0    0    0  501 -0.00000000000E+00 -0.00000000000E+00 -0.27996921677E+04  0.27996921677E+04  0.00000000000E+00 0.  1.
         23    2    1    2    0    0  0.38566445473E+03 -0.74434517867E+03 -0.96996593092E+03  0.12853596822E+04  0.92351442100E+02 0.  0.
        254    2    1    2    0    0 -0.38566445473E+03  0.74434517867E+03 -0.14455377738E+04  0.18985209486E+04  0.90111903768E+03 0.  0.
        -24    2    4    4    0    0 -0.46029315584E+02  0.67505252295E+03 -0.39093442504E+03  0.78546624008E+03  0.79453653011E+02 0.  0.
         24    2    4    4    0    0 -0.33963513915E+03  0.69292655713E+02 -0.10546033487E+04  0.11130547085E+04  0.80926269224E+02 0.  0.
         11    1    3    3    0    0  0.25672023310E+03 -0.57946359514E+03 -0.74369246816E+03  0.97711914492E+03  0.00000000000E+00 0.  1.
        -11    1    3    3    0    0  0.12894422163E+03 -0.16488158353E+03 -0.22627346276E+03  0.30824053728E+03  0.00000000000E+00 0. -1.
          2    1    6    6  502    0 -0.25431784679E+03  0.76022078710E+02 -0.71035989395E+03  0.75833244859E+03  0.00000000000E+00 0. -1.
          3    1    5    5  503    0  0.55521950664E+01  0.61797057553E+02 -0.61748795084E+02  0.87536374648E+02  0.00000000000E+00 0. -1.
         -4    1    5    5    0  503 -0.51581510650E+02  0.61325546540E+03 -0.32918562996E+03  0.69792986543E+03  0.00000000000E+00 0.  1.
         -1    1    6    6    0  502 -0.85317292356E+02 -0.67294229962E+01 -0.34424345477E+03  0.35472225989E+03  0.00000000000E+00 0.  1.
<mgrwt>
<rscale>  0 0.20742318E+04</rscale>
<asrwt>0</asrwt>
<pdfrwt beam="1">  1        2 0.59105916E-01 0.20742318E+04</pdfrwt>
<pdfrwt beam="2">  1       -2 0.43072188E+00 0.20742318E+04</pdfrwt>
<totfact> 0.35857199E-01</totfact>
</mgrwt>
</event>
<event>
12    1  0.1960998E-007  0.1151574E+04  0.7818608E-02  0.9156333E-01
         -2   -1    0    0    0  501 -0.00000000000E+00  0.00000000000E+00  0.36015976957E+03  0.36015976957E+03  0.00000000000E+00 0.  1.
          2   -1    0    0  501    0  0.00000000000E+00 -0.00000000000E+00 -0.92050972107E+03  0.92050972107E+03  0.00000000000E+00 0. -1.
         23    2    1    2    0    0  0.13375581104E+03 -0.15747291774E+03 -0.75562542882E+02  0.23773078693E+03  0.90099347146E+02 0.  0.
        254    2    1    2    0    0 -0.13375581104E+03  0.15747291774E+03 -0.48478740862E+03  0.10429387037E+04  0.90000776183E+03 0.  0.
        -24    2    4    4    0    0 -0.10836227555E+03  0.18664300763E+03 -0.73888027550E+03  0.77405257439E+03  0.81457543166E+02 0.  0.
         24    2    4    4    0    0 -0.25393535495E+02 -0.29170089888E+02  0.25409286688E+03  0.26888612933E+03  0.78998985788E+02 0.  0.
         13    1    3    3    0    0  0.80987053906E+01 -0.73676766682E+02 -0.19673456188E+02  0.76687025344E+02  0.00000000000E+00 0.  1.
        -13    1    3    3    0    0  0.12565710565E+03 -0.83796151060E+02 -0.55889086695E+02  0.16104376158E+03  0.00000000000E+00 0. -1.
          2    1    6    6  502    0 -0.40043963747E+02 -0.18621495866E+02  0.24447370738E+03  0.24843041831E+03  0.00000000000E+00 0. -1.
          1    1    5    5  503    0 -0.11558537435E+03  0.18438197306E+03 -0.73253633803E+03  0.76417679714E+03  0.00000000000E+00 0. -1.
         -2    1    5    5    0  503  0.72230988055E+01  0.22610345668E+01 -0.63439374725E+01  0.98757772515E+01  0.00000000000E+00 0.  1.
         -1    1    6    6    0  502  0.14650428252E+02 -0.10548594023E+02  0.96191595051E+01  0.20455711022E+02  0.00000000000E+00 0.  1.
<mgrwt>
<rscale>  0 0.11515738E+04</rscale>
<asrwt>0</asrwt>
<pdfrwt beam="1">  1        2 0.14161688E+00 0.11515738E+04</pdfrwt>
<pdfrwt beam="2">  1       -2 0.55409196E-01 0.11515738E+04</pdfrwt>
<totfact> 0.86069387E+01</totfact>
</mgrwt>
</event>
<event>
12    1  0.1960998E-007  0.2083609E+04  0.7818608E-02  0.8568498E-01
          1   -1    0    0  501    0  0.00000000000E+00  0.00000000000E+00  0.49569137887E+03  0.49569137887E+03  0.00000000000E+00 0. -1.
         -1   -1    0    0    0  501 -0.00000000000E+00 -0.00000000000E+00 -0.21895809192E+04  0.21895809192E+04  0.00000000000E+00 0.  1.
         23    2    1    2    0    0  0.84402095056E+03 -0.13340215642E+02 -0.71790130223E+03  0.11120713054E+04  0.93653522420E+02 0.  0.
        254    2    1    2    0    0 -0.84402095056E+03  0.13340215642E+02 -0.97598823812E+03  0.15732009927E+04  0.89992166106E+03 0.  0.
        -24    2    4    4    0    0  0.18637693608E+02 -0.23267148262E+03 -0.32123503661E+01  0.24750159363E+03  0.82239511238E+02 0.  0.
         24    2    4    4    0    0 -0.86265864417E+03  0.24601169826E+03 -0.97277588775E+03  0.13256993990E+04  0.80525007061E+02 0.  0.
         13    1    3    3    0    0  0.61768460020E+03  0.13853567695E+02 -0.56786004081E+03  0.83916101709E+03  0.00000000000E+00 0.  1.
        -13    1    3    3    0    0  0.22633635036E+03 -0.27193783336E+02 -0.15004126142E+03  0.27291028833E+03  0.00000000000E+00 0. -1.
          2    1    6    6  502    0 -0.41789712910E+03  0.79517474349E+02 -0.47837849094E+03  0.64016171381E+03  0.00000000000E+00 0. -1.
          1    1    5    5  503    0  0.31683559371E+02 -0.16542615113E+03  0.30473889051E+02  0.17116751247E+03  0.00000000000E+00 0. -1.
         -4    1    5    5    0  503 -0.13045865762E+02 -0.67245331493E+02 -0.33686239417E+02  0.76334081164E+02  0.00000000000E+00 0.  1.
         -1    1    6    6    0  502 -0.44476151507E+03  0.16649422391E+03 -0.49439739681E+03  0.68553768522E+03  0.00000000000E+00 0.  1.
<mgrwt>
<rscale>  0 0.20836088E+04</rscale>
<asrwt>0</asrwt>
<pdfrwt beam="1">  1        1 0.76260212E-01 0.20836088E+04</pdfrwt>
<pdfrwt beam="2">  1       -1 0.33685860E+00 0.20836088E+04</pdfrwt>
<totfact> 0.78482664E-01</totfact>
</mgrwt>
</event>
<event>
12    1  0.1960998E-007  0.1817536E+04  0.7818608E-02  0.8697029E-01
         -1   -1    0    0    0  501 -0.00000000000E+00  0.00000000000E+00  0.66884909448E+03  0.66884909448E+03  0.00000000000E+00 0.  1.
          1   -1    0    0  501    0  0.00000000000E+00 -0.00000000000E+00 -0.12347466488E+04  0.12347466488E+04  0.00000000000E+00 0. -1.
         23    2    1    2    0    0 -0.26941401572E+02 -0.65930060757E+03 -0.28878083485E+02  0.66655659297E+03  0.89780942715E+02 0.  0.
        254    2    1    2    0    0  0.26941401572E+02  0.65930060757E+03 -0.53701947081E+03  0.12370391503E+04  0.89803831602E+03 0.  0.
        -24    2    4    4    0    0 -0.59789940062E+02  0.11503855568E+03  0.23731743643E+03  0.28328937732E+03  0.84407342355E+02 0.  0.
         24    2    4    4    0    0  0.86731341634E+02  0.54426205189E+03 -0.77433690724E+03  0.95374977296E+03  0.79356642834E+02 0.  0.
         13    1    3    3    0    0  0.14006147411E+02 -0.11808819523E+03 -0.34322501537E+02  0.12377006152E+03  0.00000000000E+00 0.  1.
        -13    1    3    3    0    0 -0.40947548983E+02 -0.54121241234E+03  0.54444180525E+01  0.54278653145E+03  0.00000000000E+00 0. -1.
          4    1    6    6  502    0 -0.13163174636E+02  0.29793676549E+02 -0.40067232697E+02  0.51636377340E+02  0.00000000000E+00 0. -1.
          1    1    5    5  503    0 -0.77803351455E+02  0.67572399995E+02  0.14429658367E+03  0.17731580526E+03  0.00000000000E+00 0. -1.
         -2    1    5    5    0  503  0.18013411393E+02  0.47466155685E+02  0.93020852766E+02  0.10597357206E+03  0.00000000000E+00 0.  1.
         -3    1    6    6    0  502  0.99894516271E+02  0.51446837534E+03 -0.73426967454E+03  0.90211339562E+03  0.00000000000E+00 0.  1.
<mgrwt>
<rscale>  0 0.18175359E+04</rscale>
<asrwt>0</asrwt>
<pdfrwt beam="1">  1        1 0.18996102E+00 0.18175359E+04</pdfrwt>
<pdfrwt beam="2">  1       -1 0.10289986E+00 0.18175359E+04</pdfrwt>
<totfact> 0.84754896E+00</totfact>
</mgrwt>
</event>
<event>
12    1  0.1960998E-007  0.1781180E+04  0.7818608E-02  0.8716372E-01
         -2   -1    0    0    0  501 -0.00000000000E+00  0.00000000000E+00  0.42268375979E+03  0.42268375979E+03  0.00000000000E+00 0.  1.
          2   -1    0    0  501    0  0.00000000000E+00 -0.00000000000E+00 -0.18764626835E+04  0.18764626835E+04  0.00000000000E+00 0. -1.
         23    2    1    2    0    0 -0.51020195575E+03  0.10165498220E+03 -0.18140600026E+02  0.52856488760E+03  0.91716890352E+02 0.  0.
        254    2    1    2    0    0  0.51020195575E+03 -0.10165498220E+03 -0.14356383237E+04  0.17705815557E+04  0.89624878123E+03 0.  0.
        -24    2    4    4    0    0  0.59166477273E+03  0.21617409913E+03 -0.12048234041E+04  0.13620106146E+04  0.81700885591E+02 0.  0.
         24    2    4    4    0    0 -0.81462816979E+02 -0.31782908133E+03 -0.23081491960E+03  0.40857094113E+03  0.77480135115E+02 0.  0.
         13    1    3    3    0    0 -0.68041632538E+02 -0.16984469023E+02  0.38670369144E+01  0.70235958888E+02  0.00000000000E+00 0. -1.
        -13    1    3    3    0    0 -0.44216032321E+03  0.11863945122E+03 -0.22007636940E+02  0.45832892871E+03  0.00000000000E+00 0.  1.
          4    1    6    6  502    0 -0.27619542836E+02 -0.21320620255E+03 -0.18004155461E+03  0.28041876781E+03  0.00000000000E+00 0. -1.
          3    1    5    5  503    0  0.21604634497E+03  0.72898232600E+02 -0.35537258328E+03  0.42223198415E+03  0.00000000000E+00 0. -1.
         -4    1    5    5    0  503  0.37561842776E+03  0.14327586653E+03 -0.84945082080E+03  0.93977863040E+03  0.00000000000E+00 0.  1.
         -3    1    6    6    0  502 -0.53843274143E+02 -0.10462287878E+03 -0.50773364982E+02  0.12815217332E+03  0.00000000000E+00 0.  1.
<mgrwt>
<rscale>  0 0.17811797E+04</rscale>
<asrwt>0</asrwt>
<pdfrwt beam="1">  1        2 0.28868657E+00 0.17811797E+04</pdfrwt>
<pdfrwt beam="2">  1       -2 0.65028271E-01 0.17811797E+04</pdfrwt>
<totfact> 0.16136245E+01</totfact>
</mgrwt>
</event>
<event>
12    1  0.1960998E-007  0.1741187E+04  0.7818608E-02  0.8738216E-01
          1   -1    0    0  501    0  0.00000000000E+00  0.00000000000E+00  0.10484549727E+04  0.10484549727E+04  0.00000000000E+00 0. -1.
         -1   -1    0    0    0  501 -0.00000000000E+00 -0.00000000000E+00 -0.72290495059E+03  0.72290495059E+03  0.00000000000E+00 0.  1.
         23    2    1    2    0    0 -0.57760450176E+03 -0.23453087348E+03  0.23556833701E+03  0.67240026817E+03  0.89431471889E+02 0.  0.
        254    2    1    2    0    0  0.57760450176E+03  0.23453087348E+03  0.89981685052E+02  0.10989596551E+04  0.90054646119E+03 0.  0.
        -24    2    4    4    0    0  0.29887494710E+03 -0.16056256752E+03  0.39004706292E+03  0.52435983380E+03  0.87806331875E+02 0.  0.
         24    2    4    4    0    0  0.27872955467E+03  0.39509344100E+03 -0.30006537787E+03  0.57459982127E+03  0.79603591927E+02 0.  0.
         13    1    3    3    0    0 -0.31533393237E+03 -0.15905251121E+03  0.96642227944E+02  0.36615967890E+03  0.00000000000E+00 0. -1.
        -13    1    3    3    0    0 -0.26227056939E+03 -0.75478362267E+02  0.13892610907E+03  0.30624058928E+03  0.00000000000E+00 0.  1.
          4    1    6    6  502    0  0.88309746974E+02  0.17931774644E+03 -0.15095567855E+03  0.25048170090E+03  0.00000000000E+00 0. -1.
          3    1    5    5  503    0  0.27789012559E+03 -0.14260274256E+03  0.31161190944E+03  0.44120340682E+03  0.00000000000E+00 0. -1.
         -4    1    5    5    0  503  0.20984821510E+02 -0.17959824957E+02  0.78435153477E+02  0.83156426975E+02  0.00000000000E+00 0.  1.
         -3    1    6    6    0  502  0.19041980769E+03  0.21577569456E+03 -0.14910969932E+03  0.32411812037E+03  0.00000000000E+00 0.  1.
<mgrwt>
<rscale>  0 0.17411873E+04</rscale>
<asrwt>0</asrwt>
<pdfrwt beam="1">  1        1 0.16130076E+00 0.17411873E+04</pdfrwt>
<pdfrwt beam="2">  1       -1 0.11121615E+00 0.17411873E+04</pdfrwt>
<totfact> 0.97866165E+00</totfact>
</mgrwt>
</event>
<event>
12    1  0.1960998E-007  0.1158079E+04  0.7818608E-02  0.9150362E-01
          1   -1    0    0  501    0  0.00000000000E+00  0.00000000000E+00  0.56454420615E+03  0.56454420615E+03  0.00000000000E+00 0.  1.
         -1   -1    0    0    0  501 -0.00000000000E+00 -0.00000000000E+00 -0.59390700812E+03  0.59390700812E+03  0.00000000000E+00 0. -1.
         23    2    1    2    0    0 -0.20561893934E+03 -0.15877994915E+02  0.33223589998E+02  0.22712232478E+03  0.89159881924E+02 0.  0.
        254    2    1    2    0    0  0.20561893934E+03  0.15877994915E+02 -0.62586391968E+02  0.93132888949E+03  0.90604921776E+03 0.  0.
        -24    2    4    4    0    0 -0.35441943040E+03  0.58265249344E+01 -0.17884542617E+02  0.36368550964E+03  0.79373874932E+02 0.  0.
         24    2    4    4    0    0  0.56003836973E+03  0.10051469980E+02 -0.44701849351E+02  0.56764337985E+03  0.80478218950E+02 0.  0.
         13    1    3    3    0    0 -0.15406775529E+03 -0.11243000836E+02 -0.16490783145E+02  0.15535515510E+03  0.00000000000E+00 0. -1.
        -13    1    3    3    0    0 -0.51551184048E+02 -0.46349940792E+01  0.49714373143E+02  0.71767169680E+02  0.00000000000E+00 0.  1.
          2    1    6    6  502    0  0.16927682795E+03 -0.12359299726E+02  0.20093422308E+02  0.17091267475E+03  0.00000000000E+00 0. -1.
          3    1    5    5  503    0 -0.67240658852E+02 -0.20898691205E+02 -0.26242695241E+02  0.75144797228E+02  0.00000000000E+00 0. -1.
         -4    1    5    5    0  503 -0.28717877155E+03  0.26725216139E+02  0.83581526244E+01  0.28854071241E+03  0.00000000000E+00 0.  1.
         -1    1    6    6    0  502  0.39076154178E+03  0.22410769707E+02 -0.64795271659E+02  0.39673070510E+03  0.00000000000E+00 0.  1.
<mgrwt>
<rscale>  0 0.11580790E+04</rscale>
<asrwt>0</asrwt>
<pdfrwt beam="1">  1        1 0.86852955E-01 0.11580790E+04</pdfrwt>
<pdfrwt beam="2">  1       -1 0.91370309E-01 0.11580790E+04</pdfrwt>
<totfact> 0.43368736E+01</totfact>
</mgrwt>
</event>
<event>
12    1  0.1960998E-007  0.1467904E+04  0.7818608E-02  0.8906082E-01
          2   -1    0    0  501    0  0.00000000000E+00  0.00000000000E+00  0.28830907945E+04  0.28830907945E+04  0.00000000000E+00 0. -1.
         -2   -1    0    0    0  501 -0.00000000000E+00 -0.00000000000E+00 -0.18684301968E+03  0.18684301968E+03  0.00000000000E+00 0.  1.
         23    2    1    2    0    0 -0.69834238119E+01  0.30845979477E+03  0.17234638426E+03  0.37248971890E+03  0.11768220479E+03 0.  0.
        254    2    1    2    0    0  0.69834238119E+01 -0.30845979477E+03  0.25239013906E+04  0.26974440953E+04  0.90051663210E+03 0.  0.
        -24    2    4    4    0    0  0.37778010342E+03 -0.20943368836E+01  0.16708177986E+04  0.17148794450E+04  0.80356717259E+02 0.  0.
         24    2    4    4    0    0 -0.37079667961E+03 -0.30636545788E+03  0.85308359199E+03  0.98256465030E+03  0.79572015815E+02 0.  0.
         13    1    3    3    0    0 -0.33078747476E+02  0.29203253087E+03  0.17411453929E+03  0.34160368179E+03  0.00000000000E+00 0.  1.
        -13    1    3    3    0    0  0.26095323664E+02  0.16427263897E+02 -0.17681550288E+01  0.30886037112E+02  0.00000000000E+00 0. -1.
          4    1    6    6  502    0 -0.32744277080E+03 -0.28312712483E+03  0.80371726613E+03  0.91287522742E+03  0.00000000000E+00 0. -1.
          1    1    5    5  503    0  0.35908593194E+03 -0.14128182461E+02  0.16205098461E+04  0.16598778489E+04  0.00000000000E+00 0. -1.
         -2    1    5    5    0  503  0.18694171477E+02  0.12033845577E+02  0.50307952502E+02  0.55001596082E+02  0.00000000000E+00 0.  1.
         -3    1    6    6    0  502 -0.43353908807E+02 -0.23238333055E+02  0.49366325858E+02  0.69689422875E+02  0.00000000000E+00 0.  1.
<mgrwt>
<rscale>  0 0.14679038E+04</rscale>
<asrwt>0</asrwt>
<pdfrwt beam="1">  1        2 0.44355240E+00 0.14679038E+04</pdfrwt>
<pdfrwt beam="2">  1       -2 0.28745082E-01 0.14679038E+04</pdfrwt>
<totfact> 0.22274440E+01</totfact>
</mgrwt>
</event>
<event>
12    1  0.1960998E-007  0.1713589E+04  0.7818608E-02  0.8753652E-01
         -1   -1    0    0    0  501 -0.00000000000E+00  0.00000000000E+00  0.34793886536E+03  0.34793886536E+03  0.00000000000E+00 0.  1.
          1   -1    0    0  501    0  0.00000000000E+00 -0.00000000000E+00 -0.21098434199E+04  0.21098434199E+04  0.00000000000E+00 0. -1.
         23    2    1    2    0    0  0.21650677275E+03  0.12939811506E+03  0.16458317457E+03  0.31588834037E+03  0.95282566093E+02 0.  0.
        254    2    1    2    0    0 -0.21650677275E+03 -0.12939811506E+03 -0.19264877291E+04  0.21418939449E+04  0.90151852223E+03 0.  0.
        -24    2    4    4    0    0 -0.30895734846E+03  0.29762405756E+03 -0.59197223440E+03  0.73543240506E+03  0.79968576972E+02 0.  0.
         24    2    4    4    0    0  0.92450575706E+02 -0.42702217262E+03 -0.13345154947E+04  0.14064615398E+04  0.79419220281E+02 0.  0.
         13    1    3    3    0    0  0.45780933807E+01  0.29228414490E+02  0.41965906302E+02  0.51345851287E+02  0.00000000000E+00 0. -1.
        -13    1    3    3    0    0  0.21192867937E+03  0.10016970057E+03  0.12261726826E+03  0.26454248908E+03  0.00000000000E+00 0.  1.
          2    1    6    6  502    0  0.57332353952E+02 -0.20781071908E+03 -0.53792297030E+03  0.57951135947E+03  0.00000000000E+00 0. -1.
          3    1    5    5  503    0 -0.30363510655E+03  0.26529919093E+03 -0.53856158769E+03  0.67277523912E+03  0.00000000000E+00 0. -1.
         -4    1    5    5    0  503 -0.53222419129E+01  0.32324866629E+02 -0.53410646704E+02  0.62657165934E+02  0.00000000000E+00 0.  1.
         -1    1    6    6    0  502  0.35118221754E+02 -0.21921145354E+03 -0.79659252441E+03  0.82695018037E+03  0.00000000000E+00 0.  1.
<mgrwt>
<rscale>  0 0.17135887E+04</rscale>
<asrwt>0</asrwt>
<pdfrwt beam="1">  1        1 0.32459129E+00 0.17135887E+04</pdfrwt>
<pdfrwt beam="2">  1       -1 0.53529057E-01 0.17135887E+04</pdfrwt>
<totfact> 0.84030569E+00</totfact>
</mgrwt>
</event>
<event>
12    1  0.1960998E-007  0.1773696E+04  0.7818608E-02  0.8720414E-01
          2   -1    0    0  501    0  0.00000000000E+00  0.00000000000E+00  0.25297568926E+04  0.25297568926E+04  0.00000000000E+00 0. -1.
         -2   -1    0    0    0  501 -0.00000000000E+00 -0.00000000000E+00 -0.31089910034E+03  0.31089910034E+03  0.00000000000E+00 0.  1.
         23    2    1    2    0    0  0.49998387131E+03 -0.36037712546E+03  0.47445799366E+03  0.78323656804E+03  0.92160672958E+02 0.  0.
        254    2    1    2    0    0 -0.49998387131E+03  0.36037712546E+03  0.17443997986E+04  0.20574194249E+04  0.90010470972E+03 0.  0.
        -24    2    4    4    0    0 -0.74823022109E+03  0.34322624924E+03  0.13822838230E+04  0.16107592621E+04  0.78639120589E+02 0.  0.
         24    2    4    4    0    0  0.24824634978E+03  0.17150876221E+02  0.36211597564E+03  0.44666016281E+03  0.80354953105E+02 0.  0.
         13    1    3    3    0    0  0.18030771934E+03 -0.17439549659E+03  0.22642992017E+03  0.33792776096E+03  0.00000000000E+00 0. -1.
        -13    1    3    3    0    0  0.31967615197E+03 -0.18598162888E+03  0.24802807349E+03  0.44530880707E+03  0.00000000000E+00 0.  1.
          2    1    6    6  502    0  0.19504102411E+03  0.43093868892E+02  0.30367514034E+03  0.36347857362E+03  0.00000000000E+00 0. -1.
          3    1    5    5  503    0 -0.69042674225E+03  0.31166377696E+03  0.12257143507E+04  0.14409021708E+04  0.00000000000E+00 0. -1.
         -4    1    5    5    0  503 -0.57803478837E+02  0.31562472281E+02  0.15656947223E+03  0.16985709128E+03  0.00000000000E+00 0.  1.
         -1    1    6    6    0  502  0.53205325671E+02 -0.25942992671E+02  0.58440835306E+02  0.83181589188E+02  0.00000000000E+00 0.  1.
<mgrwt>
<rscale>  0 0.17736957E+04</rscale>
<asrwt>0</asrwt>
<pdfrwt beam="1">  1        2 0.38919335E+00 0.17736957E+04</pdfrwt>
<pdfrwt beam="2">  1       -2 0.47830633E-01 0.17736957E+04</pdfrwt>
<totfact> 0.13125763E+01</totfact>
</mgrwt>
</event>
<event>
12    1  0.1960998E-007  0.1974910E+04  0.7818608E-02  0.8618442E-01
         -1   -1    0    0    0  501 -0.00000000000E+00  0.00000000000E+00  0.18367248512E+04  0.18367248512E+04  0.00000000000E+00 0.  1.
          1   -1    0    0  501    0  0.00000000000E+00 -0.00000000000E+00 -0.53087265864E+03  0.53087265864E+03  0.00000000000E+00 0. -1.
         23    2    1    2    0    0 -0.54409088414E+03  0.13178438389E+03  0.11674934278E+04  0.12980396227E+04  0.91999695524E+02 0.  0.
        254    2    1    2    0    0  0.54409088414E+03 -0.13178438389E+03  0.13835876471E+03  0.10695578871E+04  0.90078238890E+03 0.  0.
        -24    2    4    4    0    0  0.62188508660E+03  0.14153331191E+03 -0.14709952647E+03  0.65891272760E+03  0.75861535616E+02 0.  0.
         24    2    4    4    0    0 -0.77794202464E+02 -0.27331769581E+03  0.28545829118E+03  0.41064515955E+03  0.79928156998E+02 0.  0.
         11    1    3    3    0    0 -0.30613091905E+03  0.12084972427E+03  0.67736478362E+03  0.75308953355E+03  0.00000000000E+00 0. -1.
        -11    1    3    3    0    0 -0.23795996509E+03  0.10934659625E+02  0.49012864422E+03  0.54495008914E+03  0.00000000000E+00 0.  1.
          2    1    6    6  502    0 -0.43384307756E+01  0.53693252876E+01  0.52094562591E+01  0.86481252393E+01  0.00000000000E+00 0. -1.
          1    1    5    5  503    0  0.36006794792E+03  0.58383697907E+02 -0.53343906299E+02  0.36865045184E+03  0.00000000000E+00 0. -1.
         -2    1    5    5    0  503  0.26181713868E+03  0.83149614006E+02 -0.93755620169E+02  0.29026227576E+03  0.00000000000E+00 0.  1.
         -1    1    6    6    0  502 -0.73455771688E+02 -0.27868702109E+03  0.28024883492E+03  0.40199703431E+03  0.00000000000E+00 0.  1.
<mgrwt>
<rscale>  0 0.19749096E+04</rscale>
<asrwt>0</asrwt>
<pdfrwt beam="1">  1        1 0.81672718E-01 0.19749096E+04</pdfrwt>
<pdfrwt beam="2">  1       -1 0.28257305E+00 0.19749096E+04</pdfrwt>
<totfact> 0.16242769E+00</totfact>
</mgrwt>
</event>
<event>
12    1  0.1960998E-007  0.1918885E+04  0.7818608E-02  0.8645513E-01
         -2   -1    0    0    0  501 -0.00000000000E+00  0.00000000000E+00  0.38227493573E+03  0.38227493573E+03  0.00000000000E+00 0.  1.
          2   -1    0    0  501    0  0.00000000000E+00 -0.00000000000E+00 -0.24080304635E+04  0.24080304635E+04  0.00000000000E+00 0. -1.
         23    2    1    2    0    0 -0.16684850376E+03  0.65969709025E+03 -0.12327012127E+04  0.14110056461E+04  0.91356332227E+02 0.  0.
        254    2    1    2    0    0  0.16684850376E+03 -0.65969709025E+03 -0.79305431506E+03  0.13792997531E+04  0.90027439608E+03 0.  0.
        -24    2    4    4    0    0 -0.23910248862E+03 -0.62831352669E+03 -0.65464451002E+03  0.94189186544E+03  0.81565702358E+02 0.  0.
         24    2    4    4    0    0  0.40595099238E+03 -0.31383563562E+02 -0.13840980504E+03  0.43740788768E+03  0.79920271541E+02 0.  0.
         11    1    3    3    0    0 -0.83161325454E+02  0.16945821759E+03 -0.36309812077E+03  0.40923359939E+03  0.00000000000E+00 0. -1.
        -11    1    3    3    0    0 -0.83687178303E+02  0.49023887266E+03 -0.86960309195E+03  0.10017720467E+04  0.00000000000E+00 0.  1.
          4    1    6    6  502    0  0.10234937494E+03 -0.20735170432E+02 -0.21253811466E+01  0.10445027089E+03  0.00000000000E+00 0. -1.
          3    1    5    5  503    0 -0.39457129636E+02 -0.18718238694E+03 -0.21616330212E+03  0.28865322490E+03  0.00000000000E+00 0. -1.
         -4    1    5    5    0  503 -0.19964535898E+03 -0.44113113975E+03 -0.43848120790E+03  0.65323864054E+03  0.00000000000E+00 0.  1.
         -3    1    6    6    0  502  0.30360161743E+03 -0.10648393130E+02 -0.13628442389E+03  0.33295761679E+03  0.00000000000E+00 0.  1.
<mgrwt>
<rscale>  0 0.19188848E+04</rscale>
<asrwt>0</asrwt>
<pdfrwt beam="1">  1        2 0.37046622E+00 0.19188848E+04</pdfrwt>
<pdfrwt beam="2">  1       -2 0.58811530E-01 0.19188848E+04</pdfrwt>
<totfact> 0.99435107E+00</totfact>
</mgrwt>
</event>
<event>
12    1  0.1960998E-007  0.2895308E+04  0.7818608E-02  0.8274275E-01
          2   -1    0    0  501    0  0.00000000000E+00  0.00000000000E+00  0.13157273176E+04  0.13157273176E+04  0.00000000000E+00 0.  1.
         -2   -1    0    0    0  501 -0.00000000000E+00 -0.00000000000E+00 -0.15928087646E+04  0.15928087646E+04  0.00000000000E+00 0. -1.
         23    2    1    2    0    0  0.53320725671E+03  0.11649244557E+04  0.12604731377E+03  0.12906428560E+04  0.92260990195E+02 0.  0.
        254    2    1    2    0    0 -0.53320725671E+03 -0.11649244557E+04 -0.40312876073E+03  0.16178932262E+04  0.90205694261E+03 0.  0.
        -24    2    4    4    0    0 -0.68234629766E+03 -0.69300800875E+03 -0.19501348229E+01  0.97592531015E+03  0.81054536174E+02 0.  0.
         24    2    4    4    0    0  0.14913904095E+03 -0.47191644695E+03 -0.40117862591E+03  0.64196791610E+03  0.78936233605E+02 0.  0.
         11    1    3    3    0    0  0.17547275526E+03  0.48916103216E+03  0.40399605735E+02  0.52124977829E+03  0.00000000000E+00 0.  1.
        -11    1    3    3    0    0  0.35773450145E+03  0.67576342354E+03  0.85647708038E+02  0.76939307770E+03  0.00000000000E+00 0. -1.
          2    1    6    6  502    0  0.73422280228E+02 -0.32910367675E+03 -0.29953932414E+03  0.45102535182E+03  0.00000000000E+00 0. -1.
          3    1    5    5  503    0 -0.49846979053E+03 -0.45677483410E+03 -0.15167718799E+02  0.67627319985E+03  0.00000000000E+00 0. -1.
         -4    1    5    5    0  503 -0.18387650713E+03 -0.23623317465E+03  0.13217583976E+02  0.29965211030E+03  0.00000000000E+00 0.  1.
         -1    1    6    6    0  502  0.75716760725E+02 -0.14281277020E+03 -0.10163930177E+03  0.19094256428E+03  0.00000000000E+00 0.  1.
<mgrwt>
<rscale>  0 0.28953079E+04</rscale>
<asrwt>0</asrwt>
<pdfrwt beam="1">  1        2 0.20241959E+00 0.28953079E+04</pdfrwt>
<pdfrwt beam="2">  1       -2 0.24504750E+00 0.28953079E+04</pdfrwt>
<totfact> 0.96344820E-01</totfact>
</mgrwt>
</event>
<event>
12    1  0.1960998E-007  0.1241880E+04  0.7818608E-02  0.9076969E-01
         -1   -1    0    0    0  501 -0.00000000000E+00  0.00000000000E+00  0.54199136871E+03  0.54199136871E+03  0.00000000000E+00 0.  1.
          1   -1    0    0  501    0  0.00000000000E+00 -0.00000000000E+00 -0.71138806470E+03  0.71138806470E+03  0.00000000000E+00 0. -1.
         23    2    1    2    0    0  0.14200253578E+03 -0.17378916549E+03 -0.21720640838E+03  0.32574646028E+03  0.92545871533E+02 0.  0.
        254    2    1    2    0    0 -0.14200253578E+03  0.17378916549E+03  0.47809712388E+02  0.92763297313E+03  0.89880463396E+03 0.  0.
        -24    2    4    4    0    0  0.31688280377E+03  0.24048884582E+03 -0.12799569211E+03  0.42556122961E+03  0.80435481350E+02 0.  0.
         24    2    4    4    0    0 -0.45888533955E+03 -0.66699680332E+02  0.17580540450E+03  0.50207174352E+03  0.78382990357E+02 0.  0.
         13    1    3    3    0    0  0.36117099560E+02 -0.43022519053E+02 -0.71770373145E+01  0.56629426017E+02  0.00000000000E+00 0.  1.
        -13    1    3    3    0    0  0.10588543622E+03 -0.13076664643E+03 -0.21002937106E+03  0.26911703427E+03  0.00000000000E+00 0. -1.
          4    1    6    6  502    0 -0.12798664092E+03  0.40680620391E+01  0.20229496220E+02  0.12963935321E+03  0.00000000000E+00 0. -1.
          3    1    5    5  503    0  0.58201322179E+02  0.58570496169E+02  0.44770301479E+01  0.82691841942E+02  0.00000000000E+00 0. -1.
         -4    1    5    5    0  503  0.25868148159E+03  0.18191834965E+03 -0.13247272226E+03  0.34286938767E+03  0.00000000000E+00 0.  1.
         -3    1    6    6    0  502 -0.33089869863E+03 -0.70767742371E+02  0.15557590828E+03  0.37243239031E+03  0.00000000000E+00 0.  1.
<mgrwt>
<rscale>  0 0.12418795E+04</rscale>
<asrwt>0</asrwt>
<pdfrwt beam="1">  1        1 0.10944432E+00 0.12418795E+04</pdfrwt>
<pdfrwt beam="2">  1       -1 0.83383288E-01 0.12418795E+04</pdfrwt>
<totfact> 0.37452079E+01</totfact>
</mgrwt>
</event>
<event>
12    1  0.1960998E-007  0.2264215E+04  0.7818608E-02  0.8492166E-01
          1   -1    0    0  501    0  0.00000000000E+00  0.00000000000E+00  0.14136729705E+04  0.14136729705E+04  0.00000000000E+00 0. -1.
         -1   -1    0    0    0  501 -0.00000000000E+00 -0.00000000000E+00 -0.90662253427E+03  0.90662253427E+03  0.00000000000E+00 0.  1.
         23    2    1    2    0    0 -0.79632003500E+03 -0.49368273689E+03  0.38652093466E+03  0.10164337451E+04  0.76752084346E+02 0.  0.
        254    2    1    2    0    0  0.79632003500E+03  0.49368273689E+03  0.12052950159E+03  0.13038617597E+04  0.89871012274E+03 0.  0.
        -24    2    4    4    0    0  0.45450762026E+03  0.65781733054E+03  0.32505399666E+03  0.86685615890E+03  0.80490261826E+02 0.  0.
         24    2    4    4    0    0  0.34181241474E+03 -0.16413459365E+03 -0.20452449507E+03  0.43700560076E+03  0.73264823149E+02 0.  0.
         13    1    3    3    0    0 -0.32544017575E+03 -0.22611591006E+03  0.19780112963E+03  0.44290518134E+03  0.00000000000E+00 0.  1.
        -13    1    3    3    0    0 -0.47087985924E+03 -0.26756682683E+03  0.18871980503E+03  0.57352856378E+03  0.00000000000E+00 0. -1.
          2    1    6    6  502    0  0.29308546610E+03 -0.16657803807E+03 -0.18415519532E+03  0.38413600348E+03  0.00000000000E+00 0. -1.
          1    1    5    5  503    0  0.23360443944E+03  0.33533173234E+03  0.20947563928E+03  0.45923681069E+03  0.00000000000E+00 0. -1.
         -2    1    5    5    0  503  0.22090318082E+03  0.32248559820E+03  0.11557835738E+03  0.40761934821E+03  0.00000000000E+00 0.  1.
         -1    1    6    6    0  502  0.48726948639E+02  0.24434444218E+01 -0.20369299750E+02  0.52869597281E+02  0.00000000000E+00 0.  1.
<mgrwt>
<rscale>  0 0.22642153E+04</rscale>
<asrwt>0</asrwt>
<pdfrwt beam="1">  1        1 0.21748815E+00 0.22642153E+04</pdfrwt>
<pdfrwt beam="2">  1       -1 0.13948039E+00 0.22642153E+04</pdfrwt>
<totfact> 0.28840166E+00</totfact>
</mgrwt>
</event>
<event>
12    1  0.1960998E-007  0.2003638E+04  0.7818608E-02  0.8604921E-01
         -1   -1    0    0    0  501 -0.00000000000E+00  0.00000000000E+00  0.72537192172E+03  0.72537192172E+03  0.00000000000E+00 0.  1.
          1   -1    0    0  501    0  0.00000000000E+00 -0.00000000000E+00 -0.13836236726E+04  0.13836236726E+04  0.00000000000E+00 0. -1.
         23    2    1    2    0    0  0.76576984549E+03  0.10182658652E+03 -0.56972625461E+02  0.77995537173E+03  0.91172319558E+02 0.  0.
        254    2    1    2    0    0 -0.76576984549E+03 -0.10182658652E+03 -0.60127912545E+03  0.13290402226E+04  0.89891001590E+03 0.  0.
        -24    2    4    4    0    0 -0.39337724130E+03 -0.26749520554E+03 -0.74718252986E+03  0.88935191044E+03  0.79785642306E+02 0.  0.
         24    2    4    4    0    0 -0.37239260419E+03  0.16566861902E+03  0.14590340441E+03  0.43968831219E+03  0.76913363417E+02 0.  0.
         11    1    3    3    0    0  0.27153002018E+03  0.75768735183E+02 -0.40104980660E+02  0.28474174714E+03  0.00000000000E+00 0. -1.
        -11    1    3    3    0    0  0.49423982530E+03  0.26057851336E+02 -0.16867644802E+02  0.49521362459E+03  0.00000000000E+00 0.  1.
          4    1    6    6  502    0 -0.22997576608E+03  0.14002593027E+03  0.10796641318E+03  0.29009112449E+03  0.00000000000E+00 0. -1.
          3    1    5    5  503    0 -0.33280863443E+03 -0.19505619682E+03 -0.56462045880E+03  0.68381632735E+03  0.00000000000E+00 0. -1.
         -4    1    5    5    0  503 -0.60568606868E+02 -0.72439008723E+02 -0.18256207106E+03  0.20553558308E+03  0.00000000000E+00 0.  1.
         -3    1    6    6    0  502 -0.14241683811E+03  0.25642688748E+02  0.37936991231E+02  0.14959718770E+03  0.00000000000E+00 0.  1.
<mgrwt>
<rscale>  0 0.20036385E+04</rscale>
<asrwt>0</asrwt>
<pdfrwt beam="1">  1        1 0.21286518E+00 0.20036385E+04</pdfrwt>
<pdfrwt beam="2">  1       -1 0.11159568E+00 0.20036385E+04</pdfrwt>
<totfact> 0.53962530E+00</totfact>
</mgrwt>
</event>
<event>
12    1  0.1960998E-007  0.1578455E+04  0.7818608E-02  0.8833894E-01
          2   -1    0    0  501    0  0.00000000000E+00  0.00000000000E+00  0.89728880826E+03  0.89728880826E+03  0.00000000000E+00 0. -1.
         -2   -1    0    0    0  501 -0.00000000000E+00 -0.00000000000E+00 -0.69418011050E+03  0.69418011050E+03  0.00000000000E+00 0.  1.
         23    2    1    2    0    0 -0.16589101335E+03 -0.20900576710E+03 -0.39212184446E+03  0.48298688747E+03  0.91178690300E+02 0.  0.
        254    2    1    2    0    0  0.16589101335E+03  0.20900576710E+03  0.59523054222E+03  0.11084820313E+04  0.89623087223E+03 0.  0.
        -24    2    4    4    0    0 -0.33410928564E+03 -0.70095785716E+02  0.28661741931E+03  0.45312823499E+03  0.81444572370E+02 0.  0.
         24    2    4    4    0    0  0.50000029900E+03  0.27910155282E+03  0.30861312291E+03  0.65535379631E+03  0.79677869713E+02 0.  0.
         13    1    3    3    0    0 -0.69098126181E+02 -0.24416483887E+02 -0.11153914427E+03  0.13346046768E+03  0.00000000000E+00 0. -1.
        -13    1    3    3    0    0 -0.96792887174E+02 -0.18458928321E+03 -0.28058270019E+03  0.34952641979E+03  0.00000000000E+00 0.  1.
          2    1    6    6  502    0  0.25637565699E+03  0.18350733126E+03  0.18913907496E+03  0.36766425962E+03  0.00000000000E+00 0. -1.
          3    1    5    5  503    0 -0.70032729305E+02 -0.33377664992E+02  0.10491204892E+03  0.13048061045E+03  0.00000000000E+00 0. -1.
         -4    1    5    5    0  503 -0.26407655634E+03 -0.36718120725E+02  0.18170537039E+03  0.32264762455E+03  0.00000000000E+00 0.  1.
         -1    1    6    6    0  502  0.24362464201E+03  0.95594221559E+02  0.11947404794E+03  0.28768953669E+03  0.00000000000E+00 0.  1.
<mgrwt>
<rscale>  0 0.15784550E+04</rscale>
<asrwt>0</asrwt>
<pdfrwt beam="1">  1        2 0.13804443E+00 0.15784550E+04</pdfrwt>
<pdfrwt beam="2">  1       -2 0.10679694E+00 0.15784550E+04</pdfrwt>
<totfact> 0.19961341E+01</totfact>
</mgrwt>
</event>
<event>
12    1  0.1960998E-007  0.1498865E+04  0.7818608E-02  0.8885208E-01
          1   -1    0    0  501    0  0.00000000000E+00  0.00000000000E+00  0.99280416509E+03  0.99280416509E+03  0.00000000000E+00 0. -1.
         -1   -1    0    0    0  501 -0.00000000000E+00 -0.00000000000E+00 -0.56572007446E+03  0.56572007446E+03  0.00000000000E+00 0.  1.
         23    2    1    2    0    0 -0.40563921676E+03 -0.24286149593E+03  0.16818508820E+03  0.50933299782E+03  0.87229572960E+02 0.  0.
        254    2    1    2    0    0  0.40563921676E+03  0.24286149593E+03  0.25889900243E+03  0.10491912417E+04  0.90013814933E+03 0.  0.
        -24    2    4    4    0    0 -0.17753560382E+03 -0.74367199005E+02 -0.15606421668E+03  0.26235372600E+03  0.86163025145E+02 0.  0.
         24    2    4    4    0    0  0.58317482058E+03  0.31722869494E+03  0.41496321911E+03  0.78683751574E+03  0.78688542375E+02 0.  0.
         11    1    3    3    0    0 -0.33450996620E+03 -0.18504502236E+03  0.10015481221E+03  0.39518295029E+03  0.00000000000E+00 0.  1.
        -11    1    3    3    0    0 -0.71129250556E+02 -0.57816473569E+02  0.68030275990E+02  0.11415004753E+03  0.00000000000E+00 0. -1.
          4    1    6    6  502    0  0.48490332554E+03  0.24667238550E+03  0.30694873746E+03  0.62465672838E+03  0.00000000000E+00 0. -1.
          1    1    5    5  503    0 -0.29748754218E+02  0.16677171131E+02 -0.10125137585E+02  0.35575761771E+02  0.00000000000E+00 0. -1.
         -2    1    5    5    0  503 -0.14778684960E+03 -0.91044370137E+02 -0.14593907910E+03  0.22677796422E+03  0.00000000000E+00 0.  1.
         -3    1    6    6    0  502  0.98271495042E+02  0.70556309439E+02  0.10801448165E+03  0.16218078735E+03  0.00000000000E+00 0.  1.
<mgrwt>
<rscale>  0 0.14988652E+04</rscale>
<asrwt>0</asrwt>
<pdfrwt beam="1">  1        1 0.15273910E+00 0.14988652E+04</pdfrwt>
<pdfrwt beam="2">  1       -1 0.87033857E-01 0.14988652E+04</pdfrwt>
<totfact> 0.19288219E+01</totfact>
</mgrwt>
</event>
<event>
12    1  0.1960998E-007  0.2202373E+04  0.7818608E-02  0.8517441E-01
         -2   -1    0    0    0  501 -0.00000000000E+00  0.00000000000E+00  0.42788654671E+03  0.42788654671E+03  0.00000000000E+00 0.  1.
          2   -1    0    0  501    0  0.00000000000E+00 -0.00000000000E+00 -0.28339550448E+04  0.28339550448E+04  0.00000000000E+00 0. -1.
         23    2    1    2    0    0  0.39698830127E+03  0.72390948876E+03 -0.15833793243E+04  0.17880412653E+04  0.91415658873E+02 0.  0.
        254    2    1    2    0    0 -0.39698830127E+03 -0.72390948876E+03 -0.82268917378E+03  0.14738003262E+04  0.90201178787E+03 0.  0.
        -24    2    4    4    0    0 -0.32403379451E+03 -0.20119167759E+03  0.10445976726E+03  0.40385163713E+03  0.81904277818E+02 0.  0.
         24    2    4    4    0    0 -0.72954506762E+02 -0.52271781117E+03 -0.92714894104E+03  0.10699486890E+04  0.81417246979E+02 0.  0.
         11    1    3    3    0    0  0.22733994245E+03  0.31964975813E+03 -0.74672321177E+03  0.84347790268E+03  0.00000000000E+00 0.  1.
        -11    1    3    3    0    0  0.16964835882E+03  0.40425973063E+03 -0.83665611253E+03  0.94456336267E+03  0.00000000000E+00 0. -1.
          4    1    6    6  502    0 -0.55732344248E+02 -0.31149484814E+03 -0.62953387607E+03  0.70459068667E+03  0.00000000000E+00 0. -1.
          3    1    5    5  503    0 -0.19410955608E+03 -0.16623491134E+03  0.68574435701E+02  0.26460351234E+03  0.00000000000E+00 0. -1.
         -4    1    5    5    0  503 -0.12992423842E+03 -0.34956766242E+02  0.35885331556E+02  0.13924812479E+03  0.00000000000E+00 0.  1.
         -3    1    6    6    0  502 -0.17222162514E+02 -0.21122296303E+03 -0.29761506497E+03  0.36535800236E+03  0.00000000000E+00 0.  1.
<mgrwt>
<rscale>  0 0.22023726E+04</rscale>
<asrwt>0</asrwt>
<pdfrwt beam="1">  1        2 0.43599306E+00 0.22023726E+04</pdfrwt>
<pdfrwt beam="2">  1       -2 0.65828703E-01 0.22023726E+04</pdfrwt>
<totfact> 0.42841808E+00</totfact>
</mgrwt>
</event>
<event>
12    1  0.1960998E-007  0.2924494E+04  0.7818608E-02  0.8265627E-01
          1   -1    0    0  501    0  0.00000000000E+00  0.00000000000E+00  0.24731891051E+04  0.24731891051E+04  0.00000000000E+00 0. -1.
         -1   -1    0    0    0  501 -0.00000000000E+00 -0.00000000000E+00 -0.86453809743E+03  0.86453809743E+03  0.00000000000E+00 0.  1.
         23    2    1    2    0    0 -0.90060912146E+03 -0.24595001165E+03  0.17823700346E+04  0.20141186338E+04  0.90789497469E+02 0.  0.
        254    2    1    2    0    0  0.90060912146E+03  0.24595001165E+03 -0.17371902698E+03  0.13236085687E+04  0.92204834196E+03 0.  0.
        -24    2    4    4    0    0  0.73033961400E+03  0.27691835921E+03 -0.51041894041E+03  0.93652557544E+03  0.80454516838E+02 0.  0.
         24    2    4    4    0    0  0.17026950745E+03 -0.30968347557E+02  0.33669991343E+03  0.38708299325E+03  0.80719689285E+02 0.  0.
         11    1    3    3    0    0 -0.49171305607E+03 -0.99673767633E+02  0.88945495582E+03  0.10211986623E+04  0.00000000000E+00 0.  1.
        -11    1    3    3    0    0 -0.40889606539E+03 -0.14627624402E+03  0.89291507883E+03  0.99291997153E+03  0.00000000000E+00 0. -1.
          2    1    6    6  502    0  0.12103464429E+03 -0.58601811243E+02  0.23413939367E+03  0.27000891294E+03  0.00000000000E+00 0. -1.
          1    1    5    5  503    0  0.37953766594E+03  0.18668774571E+03 -0.27838790606E+03  0.50636052424E+03  0.00000000000E+00 0. -1.
         -2    1    5    5    0  503  0.35080194806E+03  0.90230613503E+02 -0.23203103435E+03  0.43016505121E+03  0.00000000000E+00 0.  1.
         -1    1    6    6    0  502  0.49234863161E+02  0.27633463686E+02  0.10256051977E+03  0.11707408031E+03  0.00000000000E+00 0.  1.
<mgrwt>
<rscale>  0 0.29244939E+04</rscale>
<asrwt>0</asrwt>
<pdfrwt beam="1">  1        1 0.38049063E+00 0.29244939E+04</pdfrwt>
<pdfrwt beam="2">  1       -1 0.13300586E+00 0.29244939E+04</pdfrwt>
<totfact> 0.57936116E-01</totfact>
</mgrwt>
</event>
<event>
12    1  0.1960998E-007  0.2792862E+04  0.7818608E-02  0.8305488E-01
          2   -1    0    0  501    0  0.00000000000E+00  0.00000000000E+00  0.14852756262E+04  0.14852756262E+04  0.00000000000E+00 0. -1.
         -2   -1    0    0    0  501 -0.00000000000E+00 -0.00000000000E+00 -0.13129007477E+04  0.13129007477E+04  0.00000000000E+00 0.  1.
         23    2    1    2    0    0  0.64830378776E+03  0.54213015341E+03 -0.84557550144E+03  0.11990087289E+04  0.91766545560E+02 0.  0.
        254    2    1    2    0    0 -0.64830378776E+03 -0.54213015341E+03  0.10179503799E+04  0.15991676450E+04  0.89828240345E+03 0.  0.
        -24    2    4    4    0    0 -0.33222427106E+03 -0.23000273482E+03 -0.73249205805E+02  0.41833342408E+03  0.79769563379E+02 0.  0.
         24    2    4    4    0    0 -0.31607951670E+03 -0.31212741859E+03  0.10911995857E+04  0.11808342209E+04  0.79518143153E+02 0.  0.
         13    1    3    3    0    0  0.48385346065E+03  0.41879838848E+03 -0.58419490477E+03  0.86648136064E+03  0.00000000000E+00 0. -1.
        -13    1    3    3    0    0  0.16445032711E+03  0.12333176493E+03 -0.26138059667E+03  0.33252736826E+03  0.00000000000E+00 0.  1.
          2    1    6    6  502    0 -0.90321374332E+02 -0.13007667255E+03  0.45140715570E+03  0.47837883693E+03  0.00000000000E+00 0. -1.
          1    1    5    5  503    0 -0.29647326855E+03 -0.17537573058E+03 -0.45722745574E+02  0.34748182010E+03  0.00000000000E+00 0. -1.
         -2    1    5    5    0  503 -0.35751002516E+02 -0.54627004235E+02 -0.27526460231E+02  0.70851603972E+02  0.00000000000E+00 0.  1.
         -1    1    6    6    0  502 -0.22575814237E+03 -0.18205074604E+03  0.63979243002E+03  0.70245538398E+03  0.00000000000E+00 0.  1.
<mgrwt>
<rscale>  0 0.27928620E+04</rscale>
<asrwt>0</asrwt>
<pdfrwt beam="1">  1        2 0.22850394E+00 0.27928620E+04</pdfrwt>
<pdfrwt beam="2">  1       -2 0.20198473E+00 0.27928620E+04</pdfrwt>
<totfact> 0.14542973E+00</totfact>
</mgrwt>
</event>
<event>
12    1  0.1960998E-007  0.1089372E+04  0.7818608E-02  0.9215613E-01
         -2   -1    0    0    0  501 -0.00000000000E+00  0.00000000000E+00  0.22400116371E+03  0.22400116371E+03  0.00000000000E+00 0.  1.
          2   -1    0    0  501    0  0.00000000000E+00 -0.00000000000E+00 -0.13244698814E+04  0.13244698814E+04  0.00000000000E+00 0. -1.
         23    2    1    2    0    0 -0.72025567951E+02 -0.11436064591E+03 -0.27430956897E+03  0.31932308725E+03  0.91953546154E+02 0.  0.
        254    2    1    2    0    0  0.72025567951E+02  0.11436064591E+03 -0.82615914873E+03  0.12291479579E+04  0.89999984642E+03 0.  0.
        -24    2    4    4    0    0  0.47653928809E+03  0.10418721308E+03 -0.49901241603E+03  0.70255206964E+03  0.81371682695E+02 0.  0.
         24    2    4    4    0    0 -0.40451372014E+03  0.10173432831E+02 -0.32714673271E+03  0.52659588824E+03  0.80891262068E+02 0.  0.
         11    1    3    3    0    0 -0.29096219021E+02 -0.27973758237E+02 -0.17980520407E+03  0.18427976699E+03  0.00000000000E+00 0. -1.
        -11    1    3    3    0    0 -0.42929348930E+02 -0.86386887673E+02 -0.94504364896E+02  0.13504332026E+03  0.00000000000E+00 0.  1.
          4    1    6    6  502    0 -0.23067597547E+03  0.46360196206E+01 -0.23675242451E+03  0.33058222706E+03  0.00000000000E+00 0. -1.
          1    1    5    5  503    0  0.40713651069E+03  0.83002604293E+02 -0.37949453305E+03  0.56273054944E+03  0.00000000000E+00 0. -1.
         -2    1    5    5    0  503  0.69402777398E+02  0.21184608787E+02 -0.11951788298E+03  0.13982152020E+03  0.00000000000E+00 0.  1.
         -3    1    6    6    0  502 -0.17383774467E+03  0.55374132100E+01 -0.90394308201E+02  0.19601366119E+03  0.00000000000E+00 0.  1.
<mgrwt>
<rscale>  0 0.10893719E+04</rscale>
<asrwt>0</asrwt>
<pdfrwt beam="1">  1        2 0.20376460E+00 0.10893719E+04</pdfrwt>
<pdfrwt beam="2">  1       -2 0.34461718E-01 0.10893719E+04</pdfrwt>
<totfact> 0.12529621E+02</totfact>
</mgrwt>
</event>
<event>
12    1  0.1960998E-007  0.2574764E+04  0.7818608E-02  0.8376824E-01
         -1   -1    0    0    0  501 -0.00000000000E+00  0.00000000000E+00  0.48990242028E+03  0.48990242028E+03  0.00000000000E+00 0.  1.
          1   -1    0    0  501    0  0.00000000000E+00 -0.00000000000E+00 -0.33830267775E+04  0.33830267775E+04  0.00000000000E+00 0. -1.
         23    2    1    2    0    0  0.85283027210E+03 -0.30267067252E+02 -0.16132293380E+03  0.87322307429E+03  0.90872878948E+02 0.  0.
        254    2    1    2    0    0 -0.85283027210E+03  0.30267067252E+02 -0.27318014234E+04  0.29997061235E+04  0.89847773595E+03 0.  0.
        -24    2    4    4    0    0 -0.46699500224E+03 -0.42103480168E+03 -0.15553150993E+04  0.16795077293E+04  0.79915693865E+02 0.  0.
         24    2    4    4    0    0 -0.38583526986E+03  0.45130186893E+03 -0.11764863241E+04  0.13201983942E+04  0.79129621474E+02 0.  0.
         11    1    3    3    0    0  0.49886780122E+03 -0.28311951032E+02 -0.13854887394E+03  0.51852332651E+03  0.00000000000E+00 0.  1.
        -11    1    3    3    0    0  0.35396247088E+03 -0.19551162196E+01 -0.22774059862E+02  0.35469974778E+03  0.00000000000E+00 0. -1.
          2    1    6    6  502    0 -0.20734551304E+03  0.29057779402E+03 -0.65182378060E+03  0.74317014008E+03  0.00000000000E+00 0. -1.
          3    1    5    5  503    0 -0.20514043641E+03 -0.13776498249E+03 -0.56259806714E+03  0.61447406308E+03  0.00000000000E+00 0. -1.
         -4    1    5    5    0  503 -0.26185456583E+03 -0.28326981919E+03 -0.99271703219E+03  0.10650336662E+04  0.00000000000E+00 0.  1.
         -1    1    6    6    0  502 -0.17848975682E+03  0.16072407491E+03 -0.52466254349E+03  0.57702825415E+03  0.00000000000E+00 0.  1.
<mgrwt>
<rscale>  0 0.25747645E+04</rscale>
<asrwt>0</asrwt>
<pdfrwt beam="1">  1        1 0.52046564E+00 0.25747645E+04</pdfrwt>
<pdfrwt beam="2">  1       -1 0.75369606E-01 0.25747645E+04</pdfrwt>
<totfact> 0.48183380E-01</totfact>
</mgrwt>
</event>
<event>
12    1  0.1960998E-007  0.1880907E+04  0.7818608E-02  0.8664419E-01
         -2   -1    0    0    0  501 -0.00000000000E+00  0.00000000000E+00  0.90489220173E+03  0.90489220173E+03  0.00000000000E+00 0.  1.
          2   -1    0    0  501    0  0.00000000000E+00 -0.00000000000E+00 -0.97741276071E+03  0.97741276071E+03  0.00000000000E+00 0. -1.
         23    2    1    2    0    0  0.52587116853E+03 -0.97752187724E+02 -0.51110166779E+03  0.74558554109E+03  0.92611598481E+02 0.  0.
        254    2    1    2    0    0 -0.52587116853E+03  0.97752187724E+02  0.43858110881E+03  0.11367194213E+04  0.90204305760E+03 0.  0.
        -24    2    4    4    0    0 -0.81889396404E+02 -0.26283488486E+03 -0.14036935669E+03  0.31904305784E+03  0.79352797788E+02 0.  0.
         24    2    4    4    0    0 -0.44398177213E+03  0.36058707258E+03  0.57895046550E+03  0.81767636351E+03  0.79171605028E+02 0.  0.
         13    1    3    3    0    0  0.35647878096E+03 -0.21693558757E+02 -0.33362062419E+03  0.48872328843E+03  0.00000000000E+00 0. -1.
        -13    1    3    3    0    0  0.16939238757E+03 -0.76058628967E+02 -0.17748104360E+03  0.25686225267E+03  0.00000000000E+00 0.  1.
          2    1    6    6  502    0 -0.13623915765E+03  0.13203430874E+03  0.24042537386E+03  0.30626545211E+03  0.00000000000E+00 0. -1.
          3    1    5    5  503    0 -0.93685280037E+02 -0.24337529803E+03 -0.11515144814E+03  0.28507599583E+03  0.00000000000E+00 0. -1.
         -4    1    5    5    0  503  0.11795883633E+02 -0.19459586822E+02 -0.25217908551E+02  0.33967062011E+02  0.00000000000E+00 0.  1.
         -1    1    6    6    0  502 -0.30774261448E+03  0.22855276384E+03  0.33852509164E+03  0.51141091140E+03  0.00000000000E+00 0.  1.
<mgrwt>
<rscale>  0 0.18809074E+04</rscale>
<asrwt>0</asrwt>
<pdfrwt beam="1">  1        2 0.15037120E+00 0.18809074E+04</pdfrwt>
<pdfrwt beam="2">  1       -2 0.13921418E+00 0.18809074E+04</pdfrwt>
<totfact> 0.89048388E+00</totfact>
</mgrwt>
</event>
<event>
12    1  0.1960998E-007  0.1454998E+04  0.7818608E-02  0.8914943E-01
         -2   -1    0    0    0  501 -0.00000000000E+00  0.00000000000E+00  0.33195001572E+03  0.33195001572E+03  0.00000000000E+00 0.  1.
          2   -1    0    0  501    0  0.00000000000E+00 -0.00000000000E+00 -0.15943816808E+04  0.15943816808E+04  0.00000000000E+00 0. -1.
         23    2    1    2    0    0  0.24428642440E+01  0.18164257834E+03  0.14674436142E+03  0.24790961993E+03  0.83218256379E+02 0.  0.
        254    2    1    2    0    0 -0.24428642440E+01 -0.18164257834E+03 -0.14091760265E+04  0.16784220766E+04  0.89348956328E+03 0.  0.
        -24    2    4    4    0    0 -0.60146007778E+02 -0.12278224273E+03 -0.15146489791E+04  0.15231212984E+04  0.83928174195E+02 0.  0.
         24    2    4    4    0    0  0.57703143534E+02 -0.58860335606E+02  0.10547295255E+03  0.15530077822E+03  0.78737514019E+02 0.  0.
         11    1    3    3    0    0 -0.36744423718E+01  0.85565074923E+02  0.12102179758E+03  0.14826044335E+03  0.00000000000E+00 0.  1.
        -11    1    3    3    0    0  0.61173066159E+01  0.96077503413E+02  0.25722563842E+02  0.99649176579E+02  0.00000000000E+00 0. -1.
          4    1    6    6  502    0  0.23280080725E+02  0.16649513809E+02  0.14228094376E+02  0.31962589666E+02  0.00000000000E+00 0. -1.
          1    1    5    5  503    0 -0.77664461516E+02 -0.77383896545E+02 -0.11557584414E+04  0.11609468596E+04  0.00000000000E+00 0. -1.
         -2    1    5    5    0  503  0.17518453737E+02 -0.45398346185E+02 -0.35889053771E+03  0.36217443879E+03  0.00000000000E+00 0.  1.
         -3    1    6    6    0  502  0.34423062810E+02 -0.75509849415E+02  0.91244858175E+02  0.12333818855E+03  0.00000000000E+00 0.  1.
<mgrwt>
<rscale>  0 0.14549983E+04</rscale>
<asrwt>0</asrwt>
<pdfrwt beam="1">  1        2 0.24528949E+00 0.14549983E+04</pdfrwt>
<pdfrwt beam="2">  1       -2 0.51069233E-01 0.14549983E+04</pdfrwt>
<totfact> 0.39454446E+01</totfact>
</mgrwt>
</event>
<event>
12    1  0.1960998E-007  0.1099006E+04  0.7818608E-02  0.9206161E-01
         -2   -1    0    0    0  501 -0.00000000000E+00  0.00000000000E+00  0.55054672996E+03  0.55054672996E+03  0.00000000000E+00 0. -1.
          2   -1    0    0  501    0  0.00000000000E+00 -0.00000000000E+00 -0.54846106892E+03  0.54846106892E+03  0.00000000000E+00 0.  1.
         23    2    1    2    0    0  0.13768648879E+03  0.79515157715E+02  0.98761915337E+01  0.18401195010E+03  0.92101189557E+02 0.  0.
        254    2    1    2    0    0 -0.13768648879E+03 -0.79515157715E+02 -0.77905304976E+01  0.91499584878E+03  0.90104188661E+03 0.  0.
        -24    2    4    4    0    0  0.26875153429E+03  0.15712867256E+03  0.21682008954E+03  0.38796904508E+03  0.81192498374E+02 0.  0.
         24    2    4    4    0    0 -0.40643802308E+03 -0.23664383027E+03 -0.22461062003E+03  0.52702680370E+03  0.78199438478E+02 0.  0.
         13    1    3    3    0    0  0.10692201711E+03  0.95322505857E+02 -0.10910441529E+02  0.14365839899E+03  0.00000000000E+00 0.  1.
        -13    1    3    3    0    0  0.30764471681E+02 -0.15807348142E+02  0.20786633063E+02  0.40353551110E+02  0.00000000000E+00 0. -1.
          2    1    6    6  502    0 -0.32060980939E+02 -0.46369583699E+02 -0.19434376247E+02  0.59630024076E+02  0.00000000000E+00 0. -1.
          1    1    5    5  503    0  0.12145336095E+03  0.11257454080E+03  0.89506624081E+02  0.18824288001E+03  0.00000000000E+00 0. -1.
         -2    1    5    5    0  503  0.14729817334E+03  0.44554131760E+02  0.12731346546E+03  0.19972616507E+03  0.00000000000E+00 0.  1.
         -1    1    6    6    0  502 -0.37437704214E+03 -0.19027424657E+03 -0.20517624379E+03  0.46739677963E+03  0.00000000000E+00 0.  1.
<mgrwt>
<rscale>  0 0.10990058E+04</rscale>
<asrwt>0</asrwt>
<pdfrwt beam="1">  1        2 0.84378626E-01 0.10990058E+04</pdfrwt>
<pdfrwt beam="2">  1       -2 0.84699497E-01 0.10990058E+04</pdfrwt>
<totfact> 0.66656004E+01</totfact>
</mgrwt>
</event>
<event>
12    1  0.1960998E-007  0.1718666E+04  0.7818608E-02  0.8750789E-01
          2   -1    0    0  501    0  0.00000000000E+00  0.00000000000E+00  0.11514078615E+04  0.11514078615E+04  0.00000000000E+00 0. -1.
         -2   -1    0    0    0  501 -0.00000000000E+00 -0.00000000000E+00 -0.64134807157E+03  0.64134807157E+03  0.00000000000E+00 0.  1.
         23    2    1    2    0    0 -0.58011428828E+03 -0.21834602920E+03  0.18320181650E+03  0.65539520455E+03  0.10850065732E+03 0.  0.
        254    2    1    2    0    0  0.58011428828E+03  0.21834602920E+03  0.32685797345E+03  0.11373607286E+04  0.89584915925E+03 0.  0.
        -24    2    4    4    0    0  0.51901395858E+03 -0.22832345750E+03  0.36406698769E+03  0.67797318774E+03  0.74804955208E+02 0.  0.
         24    2    4    4    0    0  0.61100329700E+02  0.44666948670E+03 -0.37209014237E+02  0.45938754082E+03  0.80034500571E+02 0.  0.
         11    1    3    3    0    0 -0.44526869337E+03 -0.21442286805E+03  0.13784503341E+03  0.51307175802E+03  0.00000000000E+00 0. -1.
        -11    1    3    3    0    0 -0.13484559491E+03 -0.39231611538E+01  0.45356783097E+02  0.14232344653E+03  0.00000000000E+00 0.  1.
          2    1    6    6  502    0  0.40311373637E+02  0.19077954271E+03  0.21057545136E+02  0.19612562548E+03  0.00000000000E+00 0. -1.
          1    1    5    5  503    0  0.11989347091E+02 -0.44280244987E+01 -0.30743559861E+01  0.13145474862E+02  0.00000000000E+00 0. -1.
         -2    1    5    5    0  503  0.50702461149E+03 -0.22389543300E+03  0.36714134368E+03  0.66482771288E+03  0.00000000000E+00 0.  1.
         -1    1    6    6    0  502  0.20788956063E+02  0.25588994399E+03 -0.58266559373E+02  0.26326191534E+03  0.00000000000E+00 0.  1.
<mgrwt>
<rscale>  0 0.17186660E+04</rscale>
<asrwt>0</asrwt>
<pdfrwt beam="1">  1        2 0.17713967E+00 0.17186660E+04</pdfrwt>
<pdfrwt beam="2">  1       -2 0.98668934E-01 0.17186660E+04</pdfrwt>
<totfact> 0.16417843E+01</totfact>
</mgrwt>
</event>
<event>
12    1  0.1960998E-007  0.2379596E+04  0.7818608E-02  0.8447182E-01
         -2   -1    0    0    0  501 -0.00000000000E+00  0.00000000000E+00  0.34348891914E+03  0.34348891914E+03  0.00000000000E+00 0.  1.
          2   -1    0    0  501    0  0.00000000000E+00 -0.00000000000E+00 -0.41212951157E+04  0.41212951157E+04  0.00000000000E+00 0. -1.
         23    2    1    2    0    0 -0.42214541725E+03  0.56021358426E+03 -0.30043503311E+04  0.30865368286E+04  0.92426561582E+02 0.  0.
        254    2    1    2    0    0  0.42214541725E+03 -0.56021358426E+03 -0.77345586554E+03  0.13782472063E+04  0.89960289704E+03 0.  0.
        -24    2    4    4    0    0  0.66698954096E+03 -0.20907164088E+03 -0.51249225662E+03  0.87038613398E+03  0.79609737821E+02 0.  0.
         24    2    4    4    0    0 -0.24484412371E+03 -0.35114194338E+03 -0.26096360892E+03  0.50786107229E+03  0.81065123510E+02 0.  0.
         11    1    3    3    0    0 -0.32203127731E+02  0.46678961316E+02 -0.15258072465E+03  0.16277851332E+03  0.00000000000E+00 0.  1.
        -11    1    3    3    0    0 -0.38994228952E+03  0.51353462294E+03 -0.28517696064E+04  0.29237583153E+04  0.00000000000E+00 0. -1.
          2    1    6    6  502    0 -0.38255150477E+02 -0.10482312276E+03 -0.92339459157E+02  0.14483756184E+03  0.00000000000E+00 0. -1.
          1    1    5    5  503    0  0.24360888908E+03 -0.81242170163E+02 -0.14196841131E+03  0.29342905593E+03  0.00000000000E+00 0. -1.
         -2    1    5    5    0  503  0.42338065188E+03 -0.12782947071E+03 -0.37052384532E+03  0.57695707806E+03  0.00000000000E+00 0.  1.
         -1    1    6    6    0  502 -0.20658897323E+03 -0.24631882062E+03 -0.16862414976E+03  0.36302351045E+03  0.00000000000E+00 0.  1.
<mgrwt>
<rscale>  0 0.23795959E+04</rscale>
<asrwt>0</asrwt>
<pdfrwt beam="1">  1        2 0.63404541E+00 0.23795959E+04</pdfrwt>
<pdfrwt beam="2">  1       -2 0.52844449E-01 0.23795959E+04</pdfrwt>
<totfact> 0.83082978E-01</totfact>
</mgrwt>
</event>
<event>
12    1  0.1960998E-007  0.1619588E+04  0.7818608E-02  0.8808604E-01
          2   -1    0    0  501    0  0.00000000000E+00  0.00000000000E+00  0.11102518860E+04  0.11102518860E+04  0.00000000000E+00 0. -1.
         -2   -1    0    0    0  501 -0.00000000000E+00 -0.00000000000E+00 -0.59064634944E+03  0.59064634944E+03  0.00000000000E+00 0.  1.
         23    2    1    2    0    0  0.34692745673E+03  0.37082599107E+03 -0.54960074133E+02  0.51826232426E+03  0.87776142047E+02 0.  0.
        254    2    1    2    0    0 -0.34692745673E+03 -0.37082599107E+03  0.57456561073E+03  0.11826359112E+04  0.90035075476E+03 0.  0.
        -24    2    4    4    0    0 -0.22726311731E+03 -0.18601841460E+03 -0.20605403033E+03  0.36787023531E+03  0.81356447505E+02 0.  0.
         24    2    4    4    0    0 -0.11966433942E+03 -0.18480757647E+03  0.78061964106E+03  0.81476567592E+03  0.77477017218E+02 0.  0.
         11    1    3    3    0    0  0.51649846489E+02  0.72877918337E+02  0.21492831714E+02  0.91874041157E+02  0.00000000000E+00 0. -1.
        -11    1    3    3    0    0  0.29527761024E+03  0.29794807273E+03 -0.76452905847E+02  0.42638828310E+03  0.00000000000E+00 0.  1.
          2    1    6    6  502    0 -0.81495793007E+02 -0.55828540766E+02  0.34286939119E+03  0.35681621271E+03  0.00000000000E+00 0. -1.
          3    1    5    5  503    0 -0.58110331696E+02 -0.93818027698E+02 -0.94266167385E+02  0.14513698111E+03  0.00000000000E+00 0. -1.
         -4    1    5    5    0  503 -0.16915278561E+03 -0.92200386904E+02 -0.11178786294E+03  0.22273325420E+03  0.00000000000E+00 0.  1.
         -1    1    6    6    0  502 -0.38168546414E+02 -0.12897903570E+03  0.43775024987E+03  0.45794946321E+03  0.00000000000E+00 0.  1.
<mgrwt>
<rscale>  0 0.16195879E+04</rscale>
<asrwt>0</asrwt>
<pdfrwt beam="1">  1        2 0.17080798E+00 0.16195879E+04</pdfrwt>
<pdfrwt beam="2">  1       -2 0.90868669E-01 0.16195879E+04</pdfrwt>
<totfact> 0.21253363E+01</totfact>
</mgrwt>
</event>
<event>
12    1  0.1960998E-007  0.1773825E+04  0.7818608E-02  0.8720344E-01
          1   -1    0    0  501    0  0.00000000000E+00  0.00000000000E+00  0.30844278392E+04  0.30844278392E+04  0.00000000000E+00 0. -1.
         -1   -1    0    0    0  501 -0.00000000000E+00 -0.00000000000E+00 -0.25502731677E+03  0.25502731677E+03  0.00000000000E+00 0.  1.
         23    2    1    2    0    0 -0.62778025522E+03  0.12278988007E+02  0.70598708483E+03  0.95001796649E+03  0.99285196913E+02 0.  0.
        254    2    1    2    0    0  0.62778025522E+03 -0.12278988007E+02  0.21234134376E+04  0.23894371894E+04  0.89792351179E+03 0.  0.
        -24    2    4    4    0    0  0.36175148367E+03  0.37870236367E+03  0.15758974190E+04  0.16624735929E+04  0.78013817174E+02 0.  0.
         24    2    4    4    0    0  0.26602877155E+03 -0.39098135167E+03  0.54751601858E+03  0.72696359656E+03  0.71165690239E+02 0.  0.
         13    1    3    3    0    0 -0.26850190464E+02  0.10056386228E+02  0.66849998734E+02  0.72739163885E+02  0.00000000000E+00 0. -1.
        -13    1    3    3    0    0 -0.60093006476E+03  0.22226017786E+01  0.63913708609E+03  0.87727880261E+03  0.00000000000E+00 0.  1.
          2    1    6    6  502    0  0.13290209008E+03 -0.14756927933E+03  0.19451786967E+03  0.27798715684E+03  0.00000000000E+00 0. -1.
          3    1    5    5  503    0  0.23760227113E+03  0.29304848465E+03  0.11785645076E+04  0.12374758794E+04  0.00000000000E+00 0. -1.
         -4    1    5    5    0  503  0.12414921254E+03  0.85653879016E+02  0.39733291140E+03  0.42499771346E+03  0.00000000000E+00 0.  1.
         -1    1    6    6    0  502  0.13312668147E+03 -0.24341207234E+03  0.35299814892E+03  0.44897643972E+03  0.00000000000E+00 0.  1.
<mgrwt>
<rscale>  0 0.17738245E+04</rscale>
<asrwt>0</asrwt>
<pdfrwt beam="1">  1        1 0.47452734E+00 0.17738245E+04</pdfrwt>
<pdfrwt beam="2">  1       -1 0.39234974E-01 0.17738245E+04</pdfrwt>
<totfact> 0.31044191E+00</totfact>
</mgrwt>
</event>
<event>
12    1  0.1960998E-007  0.3060148E+04  0.7818608E-02  0.8226761E-01
         -2   -1    0    0    0  501 -0.00000000000E+00  0.00000000000E+00  0.84939269542E+03  0.84939269542E+03  0.00000000000E+00 0.  1.
          2   -1    0    0  501    0  0.00000000000E+00 -0.00000000000E+00 -0.27562353527E+04  0.27562353527E+04  0.00000000000E+00 0. -1.
         23    2    1    2    0    0 -0.10311234613E+04 -0.92450228987E+03 -0.10391655529E+04  0.17338362017E+04  0.91667070017E+02 0.  0.
        254    2    1    2    0    0  0.10311234613E+04  0.92450228987E+03 -0.86767710442E+03  0.18717918464E+04  0.91259031452E+03 0.  0.
        -24    2    4    4    0    0  0.11295458679E+04  0.88397430710E+03 -0.56958608290E+03  0.15455050244E+04  0.82903746915E+02 0.  0.
         24    2    4    4    0    0 -0.98422406544E+02  0.40527982766E+02 -0.29809102152E+03  0.32628682201E+03  0.79217079035E+02 0.  0.
         13    1    3    3    0    0 -0.53452275338E+03 -0.52634545576E+03 -0.59866849602E+03  0.95976980616E+03  0.00000000000E+00 0. -1.
        -13    1    3    3    0    0 -0.49660070796E+03 -0.39815683411E+03 -0.44049705685E+03  0.77406639559E+03  0.00000000000E+00 0.  1.
          4    1    6    6  502    0  0.12284654403E+01  0.25612654139E+02 -0.10954062392E+03  0.11250184651E+03  0.00000000000E+00 0. -1.
          1    1    5    5  503    0  0.21100968161E+03  0.14054910425E+03 -0.74099719058E+02  0.26413993413E+03  0.00000000000E+00 0. -1.
         -2    1    5    5    0  503  0.91853618627E+03  0.74342520285E+03 -0.49548636384E+03  0.12813650902E+04  0.00000000000E+00 0.  1.
         -3    1    6    6    0  502 -0.99650871985E+02  0.14915328626E+02 -0.18855039760E+03  0.21378497550E+03  0.00000000000E+00 0.  1.
<mgrwt>
<rscale>  0 0.30601478E+04</rscale>
<asrwt>0</asrwt>
<pdfrwt beam="1">  1        2 0.42403621E+00 0.30601478E+04</pdfrwt>
<pdfrwt beam="2">  1       -2 0.13067580E+00 0.30601478E+04</pdfrwt>
<totfact> 0.89683064E-01</totfact>
</mgrwt>
</event>
<event>
12    1  0.1960998E-007  0.2644581E+04  0.7818608E-02  0.8353214E-01
         -2   -1    0    0    0  501 -0.00000000000E+00  0.00000000000E+00  0.77928453062E+03  0.77928453062E+03  0.00000000000E+00 0.  1.
          2   -1    0    0  501    0  0.00000000000E+00 -0.00000000000E+00 -0.22436631469E+04  0.22436631469E+04  0.00000000000E+00 0. -1.
         23    2    1    2    0    0  0.25339005808E+03  0.10297461484E+04 -0.12043781188E+04  0.16068662043E+04  0.83118552429E+02 0.  0.
        254    2    1    2    0    0 -0.25339005808E+03 -0.10297461484E+04 -0.26000049749E+03  0.14160814733E+04  0.90172214601E+03 0.  0.
        -24    2    4    4    0    0 -0.19998263135E+03 -0.11558160441E+02 -0.32635106306E+03  0.39119555653E+03  0.80014393556E+02 0.  0.
         24    2    4    4    0    0 -0.53407426727E+02 -0.10181879879E+04  0.66350565569E+02  0.10248859167E+04  0.80184866126E+02 0.  0.
         13    1    3    3    0    0  0.75471631216E+02  0.26925468952E+03 -0.26546699450E+03  0.38557331354E+03  0.00000000000E+00 0. -1.
        -13    1    3    3    0    0  0.17791842686E+03  0.76049145885E+03 -0.93891112432E+03  0.12212928907E+04  0.00000000000E+00 0.  1.
          2    1    6    6  502    0 -0.52721586863E+02 -0.30632311935E+03  0.15808298946E+02  0.31122872857E+03  0.00000000000E+00 0. -1.
          1    1    5    5  503    0 -0.10280665702E+03 -0.45590612358E+02 -0.18031680563E+03  0.21251320678E+03  0.00000000000E+00 0. -1.
         -2    1    5    5    0  503 -0.97175974331E+02  0.34032451917E+02 -0.14603425743E+03  0.17868234976E+03  0.00000000000E+00 0.  1.
         -3    1    6    6    0  502 -0.68583986358E+00 -0.71186486858E+03  0.50542266623E+02  0.71365718816E+03  0.00000000000E+00 0.  1.
<mgrwt>
<rscale>  0 0.26445809E+04</rscale>
<asrwt>0</asrwt>
<pdfrwt beam="1">  1        2 0.34517894E+00 0.26445809E+04</pdfrwt>
<pdfrwt beam="2">  1       -2 0.11988993E+00 0.26445809E+04</pdfrwt>
<totfact> 0.22883190E+00</totfact>
</mgrwt>
</event>
<event>
12    1  0.1960998E-007  0.3623407E+04  0.7818608E-02  0.8085151E-01
         -2   -1    0    0    0  501 -0.00000000000E+00  0.00000000000E+00  0.12064428731E+04  0.12064428731E+04  0.00000000000E+00 0.  1.
          2   -1    0    0  501    0  0.00000000000E+00 -0.00000000000E+00 -0.27206178106E+04  0.27206178106E+04  0.00000000000E+00 0. -1.
         23    2    1    2    0    0 -0.11911725072E+04  0.10498379045E+04 -0.56471675555E+02  0.15913462253E+04  0.90234090593E+02 0.  0.
        254    2    1    2    0    0  0.11911725072E+04 -0.10498379045E+04 -0.14577032619E+04  0.23357144584E+04  0.89978423171E+03 0.  0.
        -24    2    4    4    0    0  0.20434375335E+03 -0.76124476013E+03 -0.58713542213E+03  0.98623653796E+03  0.81759100513E+02 0.  0.
         24    2    4    4    0    0  0.98682875380E+03 -0.28859314437E+03 -0.87056783979E+03  0.13494779204E+04  0.78008343535E+02 0.  0.
         13    1    3    3    0    0 -0.57028430203E+03  0.55006934351E+03 -0.55888729242E+02  0.79430725658E+03  0.00000000000E+00 0. -1.
        -13    1    3    3    0    0 -0.62088820513E+03  0.49976856100E+03 -0.58294631242E+00  0.79703896872E+03  0.00000000000E+00 0.  1.
          4    1    6    6  502    0  0.60263268381E+03 -0.21561165922E+03 -0.53780532268E+03  0.83599587576E+03  0.00000000000E+00 0. -1.
          1    1    5    5  503    0  0.81606987221E+02 -0.42849811723E+03 -0.35449800553E+03  0.56208466689E+03  0.00000000000E+00 0. -1.
         -2    1    5    5    0  503  0.12273676613E+03 -0.33274664290E+03 -0.23263741661E+03  0.42415187107E+03  0.00000000000E+00 0.  1.
         -3    1    6    6    0  502  0.38419606999E+03 -0.72981485152E+02 -0.33276251711E+03  0.51348204464E+03  0.00000000000E+00 0.  1.
<mgrwt>
<rscale>  0 0.36234072E+04</rscale>
<asrwt>0</asrwt>
<pdfrwt beam="1">  1        2 0.41855658E+00 0.36234072E+04</pdfrwt>
<pdfrwt beam="2">  1       -2 0.18560660E+00 0.36234072E+04</pdfrwt>
<totfact> 0.34839889E-01</totfact>
</mgrwt>
</event>
<event>
12    1  0.1960998E-007  0.1025643E+04  0.7818608E-02  0.9280858E-01
         -2   -1    0    0    0  501 -0.00000000000E+00  0.00000000000E+00  0.44360569387E+03  0.44360569387E+03  0.00000000000E+00 0.  1.
          2   -1    0    0  501    0  0.00000000000E+00 -0.00000000000E+00 -0.59283758626E+03  0.59283758626E+03  0.00000000000E+00 0. -1.
         23    2    1    2    0    0 -0.45366753380E+02  0.55377695181E+01 -0.55577108272E+02  0.11622986231E+03  0.91278457073E+02 0.  0.
        254    2    1    2    0    0  0.45366753380E+02 -0.55377695181E+01 -0.93654784117E+02  0.92021341783E+03  0.91429355601E+03 0.  0.
        -24    2    4    4    0    0  0.28455936555E+03 -0.23826017650E+03 -0.33107348090E+03  0.50298049067E+03  0.75085151769E+02 0.  0.
         24    2    4    4    0    0 -0.23919261217E+03  0.23272240698E+03  0.23741869678E+03  0.41723292715E+03  0.79642033439E+02 0.  0.
         13    1    3    3    0    0 -0.58281023203E+02 -0.49099439627E+01 -0.72073535624E+02  0.92819069983E+02  0.00000000000E+00 0. -1.
        -13    1    3    3    0    0  0.12914269823E+02  0.10447713481E+02  0.16496427352E+02  0.23410792328E+02  0.00000000000E+00 0.  1.
          4    1    6    6  502    0 -0.15042552274E+03  0.16777487485E+03  0.19929466368E+03  0.30082321968E+03  0.00000000000E+00 0. -1.
          1    1    5    5  503    0  0.15940955527E+03 -0.13409535158E+03 -0.23452944387E+03  0.31368300826E+03  0.00000000000E+00 0. -1.
         -2    1    5    5    0  503  0.12514981028E+03 -0.10416482492E+03 -0.96544037029E+02  0.18929748242E+03  0.00000000000E+00 0.  1.
         -3    1    6    6    0  502 -0.88767089425E+02  0.64947532130E+02  0.38124033101E+02  0.11640970748E+03  0.00000000000E+00 0.  1.
<mgrwt>
<rscale>  0 0.10256435E+04</rscale>
<asrwt>0</asrwt>
<pdfrwt beam="1">  1        2 0.91205782E-01 0.10256435E+04</pdfrwt>
<pdfrwt beam="2">  1       -2 0.68247030E-01 0.10256435E+04</pdfrwt>
<totfact> 0.98643467E+01</totfact>
</mgrwt>
</event>
<event>
12    1  0.1960998E-007  0.2056009E+04  0.7818608E-02  0.8580873E-01
          1   -1    0    0  501    0  0.00000000000E+00  0.00000000000E+00  0.12936483324E+04  0.12936483324E+04  0.00000000000E+00 0. -1.
         -1   -1    0    0    0  501 -0.00000000000E+00 -0.00000000000E+00 -0.81690890831E+03  0.81690890831E+03  0.00000000000E+00 0.  1.
         23    2    1    2    0    0 -0.60311756647E+03  0.56718755076E+03  0.17933959789E+03  0.85216020925E+03  0.92530071530E+02 0.  0.
        254    2    1    2    0    0  0.60311756647E+03 -0.56718755076E+03  0.29739982623E+03  0.12583970315E+04  0.89981326702E+03 0.  0.
        -24    2    4    4    0    0 -0.10546492276E+03 -0.46181608312E+02  0.34686375732E+03  0.37396104298E+03  0.79226287601E+02 0.  0.
         24    2    4    4    0    0  0.70858248923E+03 -0.52100594245E+03 -0.49463931089E+02  0.88443598852E+03  0.79018992629E+02 0.  0.
         13    1    3    3    0    0 -0.38464575921E+03  0.41515730217E+03  0.10288278524E+03  0.57523283384E+03  0.00000000000E+00 0. -1.
        -13    1    3    3    0    0 -0.21847180726E+03  0.15203024859E+03  0.76456812650E+02  0.27692737541E+03  0.00000000000E+00 0.  1.
          2    1    6    6  502    0  0.45678688886E+03 -0.31935195312E+03  0.44590371255E+01  0.55736865252E+03  0.00000000000E+00 0. -1.
          3    1    5    5  503    0 -0.98610695005E+02 -0.18040584171E+02  0.19392173653E+03  0.21830064532E+03  0.00000000000E+00 0. -1.
         -2    1    5    5    0  503 -0.68542277508E+01 -0.28141024141E+02  0.15294202079E+03  0.15566039767E+03  0.00000000000E+00 0.  1.
         -1    1    6    6    0  502  0.25179560037E+03 -0.20165398932E+03 -0.53922968215E+02  0.32706733599E+03  0.00000000000E+00 0.  1.
<mgrwt>
<rscale>  0 0.20560086E+04</rscale>
<asrwt>0</asrwt>
<pdfrwt beam="1">  1        1 0.19902282E+00 0.20560086E+04</pdfrwt>
<pdfrwt beam="2">  1       -1 0.12567829E+00 0.20560086E+04</pdfrwt>
<totfact> 0.46595236E+00</totfact>
</mgrwt>
</event>
<event>
12    1  0.1960998E-007  0.1426520E+04  0.7818608E-02  0.8934843E-01
          2   -1    0    0  501    0  0.00000000000E+00  0.00000000000E+00  0.20988474632E+04  0.20988474632E+04  0.00000000000E+00 0. -1.
         -2   -1    0    0    0  501 -0.00000000000E+00 -0.00000000000E+00 -0.24239009134E+03  0.24239009134E+03  0.00000000000E+00 0.  1.
         23    2    1    2    0    0  0.20295680791E+03 -0.31614123850E+03  0.87639818510E+03  0.95701325707E+03  0.81632388282E+02 0.  0.
        254    2    1    2    0    0 -0.20295680791E+03  0.31614123850E+03  0.98005918675E+03  0.13842242974E+04  0.90245451273E+03 0.  0.
        -24    2    4    4    0    0 -0.21653073297E+03 -0.28011085275E+03  0.48102971207E+03  0.60252558346E+03  0.79371573500E+02 0.  0.
         24    2    4    4    0    0  0.13573925058E+02  0.59625209125E+03  0.49902947468E+03  0.78169871399E+03  0.79508836557E+02 0.  0.
         13    1    3    3    0    0  0.47183282874E+02 -0.14641304467E+03  0.33428035568E+03  0.36797608350E+03  0.00000000000E+00 0.  1.
        -13    1    3    3    0    0  0.15577352503E+03 -0.16972819382E+03  0.54211782942E+03  0.58903717357E+03  0.00000000000E+00 0. -1.
          2    1    6    6  502    0 -0.87589263931E+00 -0.18007025877E+01  0.65091614866E+01  0.68102056491E+01  0.00000000000E+00 0. -1.
          1    1    5    5  503    0 -0.17149504180E+03 -0.16441062132E+03  0.29317819800E+03  0.37735243149E+03  0.00000000000E+00 0. -1.
         -2    1    5    5    0  503 -0.45035691170E+02 -0.11570023143E+03  0.18785151407E+03  0.22517315197E+03  0.00000000000E+00 0.  1.
         -1    1    6    6    0  502  0.14449817697E+02  0.59805279384E+03  0.49252031319E+03  0.77488850834E+03  0.00000000000E+00 0.  1.
<mgrwt>
<rscale>  0 0.14265200E+04</rscale>
<asrwt>0</asrwt>
<pdfrwt beam="1">  1        2 0.32289960E+00 0.14265200E+04</pdfrwt>
<pdfrwt beam="2">  1       -2 0.37290785E-01 0.14265200E+04</pdfrwt>
<totfact> 0.38795523E+01</totfact>
</mgrwt>
</event>
<event>
12    1  0.1960998E-007  0.3497769E+04  0.7818608E-02  0.8114319E-01
         -1   -1    0    0    0  501 -0.00000000000E+00  0.00000000000E+00  0.10290097142E+04  0.10290097142E+04  0.00000000000E+00 0.  1.
          1   -1    0    0  501    0  0.00000000000E+00 -0.00000000000E+00 -0.29723693712E+04  0.29723693712E+04  0.00000000000E+00 0. -1.
         23    2    1    2    0    0  0.56489270483E+03  0.14622150415E+04 -0.39021153270E+03  0.16177135031E+04  0.86921472736E+02 0.  0.
        254    2    1    2    0    0 -0.56489270483E+03 -0.14622150415E+04 -0.15531481243E+04  0.23836655822E+04  0.90134117645E+03 0.  0.
        -24    2    4    4    0    0 -0.78736941641E+02 -0.35847086245E+03  0.47357247085E+02  0.37799131160E+03  0.77031536343E+02 0.  0.
         24    2    4    4    0    0 -0.48615576318E+03 -0.11037441790E+04 -0.16005053714E+04  0.20056742706E+04  0.80704381527E+02 0.  0.
         13    1    3    3    0    0  0.26653764344E+03  0.60657795846E+03 -0.19646539308E+03  0.69107002955E+03  0.00000000000E+00 0.  1.
        -13    1    3    3    0    0  0.29835506139E+03  0.85563708303E+03 -0.19374613962E+03  0.92664347358E+03  0.00000000000E+00 0. -1.
          4    1    6    6  502    0 -0.38826384690E+03 -0.86852061312E+03 -0.12063855623E+04  0.15363733255E+04  0.00000000000E+00 0. -1.
          3    1    5    5  503    0 -0.44733655758E+01  0.31198193841E+01 -0.14430632150E+01  0.56415161089E+01  0.00000000000E+00 0. -1.
         -4    1    5    5    0  503 -0.74263576065E+02 -0.36159068183E+03  0.48800310300E+02  0.37234979549E+03  0.00000000000E+00 0.  1.
         -3    1    6    6    0  502 -0.97891916284E+02 -0.23522356592E+03 -0.39411980905E+03  0.46930094515E+03  0.00000000000E+00 0.  1.
<mgrwt>
<rscale>  0 0.34977690E+04</rscale>
<asrwt>0</asrwt>
<pdfrwt beam="1">  1        1 0.45728760E+00 0.34977690E+04</pdfrwt>
<pdfrwt beam="2">  1       -1 0.15830919E+00 0.34977690E+04</pdfrwt>
<totfact> 0.15368468E-01</totfact>
</mgrwt>
</event>
<event>
12    1  0.1960998E-007  0.2085836E+04  0.7818608E-02  0.8567509E-01
          1   -1    0    0  501    0  0.00000000000E+00  0.00000000000E+00  0.69839905016E+03  0.69839905016E+03  0.00000000000E+00 0. -1.
         -1   -1    0    0    0  501 -0.00000000000E+00 -0.00000000000E+00 -0.15573868415E+04  0.15573868415E+04  0.00000000000E+00 0.  1.
         23    2    1    2    0    0  0.38070126743E+03 -0.28496300675E+03 -0.11058310322E+04  0.12072233473E+04  0.91589127669E+02 0.  0.
        254    2    1    2    0    0 -0.38070126743E+03  0.28496300675E+03  0.24684324079E+03  0.10485625444E+04  0.90134036510E+03 0.  0.
        -24    2    4    4    0    0  0.18759972511E+03 -0.17077928150E+03  0.15934749120E+03  0.31009584788E+03  0.80053682429E+02 0.  0.
         24    2    4    4    0    0 -0.56830099254E+03  0.45574228825E+03  0.87495749591E+02  0.73846669652E+03  0.83728754097E+02 0.  0.
         13    1    3    3    0    0  0.41222965723E+02 -0.42677010243E+02 -0.78054141808E+02  0.98046464289E+02  0.00000000000E+00 0. -1.
        -13    1    3    3    0    0  0.33947830170E+03 -0.24228599650E+03 -0.10277768904E+04  0.11091768830E+04  0.00000000000E+00 0.  1.
          2    1    6    6  502    0 -0.36734349573E+03  0.24418071143E+03  0.41047372758E+02  0.44300152427E+03  0.00000000000E+00 0. -1.
          1    1    5    5  503    0  0.76705081614E+02 -0.33259470283E+02  0.22356092198E+02  0.86542803094E+02  0.00000000000E+00 0. -1.
         -2    1    5    5    0  503  0.11089464349E+03 -0.13751981122E+03  0.13699139900E+03  0.22355304479E+03  0.00000000000E+00 0.  1.
         -1    1    6    6    0  502 -0.20095749681E+03  0.21156157682E+03  0.46448376833E+02  0.29546517226E+03  0.00000000000E+00 0.  1.
<mgrwt>
<rscale>  0 0.20858356E+04</rscale>
<asrwt>0</asrwt>
<pdfrwt beam="1">  1        1 0.10744601E+00 0.20858356E+04</pdfrwt>
<pdfrwt beam="2">  1       -1 0.23959797E+00 0.20858356E+04</pdfrwt>
<totfact> 0.20532679E+00</totfact>
</mgrwt>
</event>
<event>
12    1  0.1960998E-007  0.2100756E+04  0.7818608E-02  0.8560910E-01
         -1   -1    0    0    0  501 -0.00000000000E+00  0.00000000000E+00  0.54811675099E+03  0.54811675099E+03  0.00000000000E+00 0.  1.
          1   -1    0    0  501    0  0.00000000000E+00 -0.00000000000E+00 -0.20128819691E+04  0.20128819691E+04  0.00000000000E+00 0. -1.
         23    2    1    2    0    0 -0.26505130322E+03  0.41363923385E+03  0.25503077795E+03  0.56100994361E+03  0.91333728743E+02 0.  0.
        254    2    1    2    0    0  0.26505130322E+03 -0.41363923385E+03 -0.17197959960E+04  0.19999887764E+04  0.89493420363E+03 0.  0.
        -24    2    4    4    0    0 -0.68759990671E+01  0.23105131572E+03 -0.82864633433E+03  0.86424181864E+03  0.82626774341E+02 0.  0.
         24    2    4    4    0    0  0.27192730229E+03 -0.64469054957E+03 -0.89114966170E+03  0.11357469578E+04  0.78759571957E+02 0.  0.
         13    1    3    3    0    0 -0.56540673705E+02  0.16538529845E+03  0.10366918333E+03  0.20321526591E+03  0.00000000000E+00 0. -1.
        -13    1    3    3    0    0 -0.20851062952E+03  0.24825393540E+03  0.15136159462E+03  0.35779467770E+03  0.00000000000E+00 0.  1.
          2    1    6    6  502    0  0.18428005416E+03 -0.37041651435E+03 -0.47832899152E+03  0.63242877591E+03  0.00000000000E+00 0. -1.
          3    1    5    5  503    0 -0.34008672652E+02  0.20519403488E+03 -0.70038327197E+03  0.73061474761E+03  0.00000000000E+00 0. -1.
         -4    1    5    5    0  503  0.27132673585E+02  0.25857280841E+02 -0.12826306235E+03  0.13362707103E+03  0.00000000000E+00 0.  1.
         -1    1    6    6    0  502  0.87647248126E+02 -0.27427403522E+03 -0.41282067017E+03  0.50331818189E+03  0.00000000000E+00 0.  1.
<mgrwt>
<rscale>  0 0.21007564E+04</rscale>
<asrwt>0</asrwt>
<pdfrwt beam="1">  1        1 0.30967415E+00 0.21007564E+04</pdfrwt>
<pdfrwt beam="2">  1       -1 0.84325653E-01 0.21007564E+04</pdfrwt>
<totfact> 0.37407499E+00</totfact>
</mgrwt>
</event>
<event>
12    1  0.1960998E-007  0.3583944E+04  0.7818608E-02  0.8094179E-01
          1   -1    0    0  501    0  0.00000000000E+00  0.00000000000E+00  0.20372273742E+04  0.20372273742E+04  0.00000000000E+00 0. -1.
         -1   -1    0    0    0  501 -0.00000000000E+00 -0.00000000000E+00 -0.15762419522E+04  0.15762419522E+04  0.00000000000E+00 0.  1.
         23    2    1    2    0    0  0.69707456799E+03 -0.14995297256E+04  0.48051355563E+03  0.17244507427E+04  0.91294772950E+02 0.  0.
        254    2    1    2    0    0 -0.69707456799E+03  0.14995297256E+04 -0.19528133694E+02  0.18890185837E+04  0.91296632478E+03 0.  0.
        -24    2    4    4    0    0 -0.57843209654E+03  0.37280817263E+03 -0.23714589171E+03  0.73224842273E+03  0.79874618941E+02 0.  0.
         24    2    4    4    0    0 -0.11864247146E+03  0.11267215530E+04  0.21761775802E+03  0.11567701610E+04  0.84747995246E+02 0.  0.
         13    1    3    3    0    0  0.53503033925E+03 -0.11154348952E+04  0.39732632633E+03  0.12993539468E+04  0.00000000000E+00 0.  1.
        -13    1    3    3    0    0  0.16204422875E+03 -0.38409483039E+03  0.83187229291E+02  0.42509679594E+03  0.00000000000E+00 0. -1.
          2    1    6    6  502    0 -0.12387682896E+03  0.96744635885E+03  0.16681768906E+03  0.98950799258E+03  0.00000000000E+00 0. -1.
          1    1    5    5  503    0 -0.27017805285E+03  0.12814352857E+03 -0.93521130481E+02  0.31330998388E+03  0.00000000000E+00 0. -1.
         -2    1    5    5    0  503 -0.30825404369E+03  0.24466464406E+03 -0.14362476123E+03  0.41893843885E+03  0.00000000000E+00 0.  1.
         -3    1    6    6    0  502  0.52343575025E+01  0.15927519413E+03  0.50800068952E+02  0.16726216837E+03  0.00000000000E+00 0.  1.
<mgrwt>
<rscale>  0 0.35839438E+04</rscale>
<asrwt>0</asrwt>
<pdfrwt beam="1">  1        1 0.31341960E+00 0.35839438E+04</pdfrwt>
<pdfrwt beam="2">  1       -1 0.24249876E+00 0.35839438E+04</pdfrwt>
<totfact> 0.17782741E-01</totfact>
</mgrwt>
</event>
<event>
12    1  0.2006044E-007  0.2607307E+04  0.7818608E-02  0.8365723E-01
          1   -1    0    0  501    0  0.00000000000E+00  0.00000000000E+00  0.34180571420E+04  0.34180571420E+04  0.00000000000E+00 0. -1.
         -1   -1    0    0    0  501 -0.00000000000E+00 -0.00000000000E+00 -0.49721592826E+03  0.49721592826E+03  0.00000000000E+00 0.  1.
         23    2    1    2    0    0 -0.60602657996E+02 -0.10832969596E+04  0.18444968381E+04  0.21419058510E+04  0.91581132365E+02 0.  0.
        254    2    1    2    0    0  0.60602657996E+02  0.10832969596E+04  0.10763443756E+04  0.17733672193E+04  0.89950491647E+03 0.  0.
        -24    2    4    4    0    0  0.80296128242E+02  0.97589851217E+03  0.36284266112E+03  0.10472785171E+04  0.79448860489E+02 0.  0.
         24    2    4    4    0    0 -0.19693470245E+02  0.10739844741E+03  0.71350171452E+03  0.72608870218E+03  0.78726409390E+02 0.  0.
         11    1    3    3    0    0 -0.43577571584E+02 -0.87066951367E+03  0.14069901072E+04  0.16551693474E+04  0.00000000000E+00 0.  1.
        -11    1    3    3    0    0 -0.17025086412E+02 -0.21262744591E+03  0.43750673089E+03  0.48673650356E+03  0.00000000000E+00 0. -1.
          2    1    6    6  502    0  0.27136918954E+01  0.10523240120E+02  0.77036352726E+01  0.13320987303E+02  0.00000000000E+00 0. -1.
          1    1    5    5  503    0 -0.26007159598E+01  0.53550133930E+02  0.38703889248E+02  0.66123911034E+02  0.00000000000E+00 0. -1.
         -2    1    5    5    0  503  0.82896844202E+02  0.92234837824E+03  0.32413877187E+03  0.98115460609E+03  0.00000000000E+00 0.  1.
         -1    1    6    6    0  502 -0.22407162141E+02  0.96875207289E+02  0.70579807924E+03  0.71276771487E+03  0.00000000000E+00 0.  1.
<mgrwt>
<rscale>  0 0.26073070E+04</rscale>
<asrwt>0</asrwt>
<pdfrwt beam="1">  1        1 0.52585493E+00 0.26073070E+04</pdfrwt>
<pdfrwt beam="2">  1       -1 0.76494760E-01 0.26073070E+04</pdfrwt>
<totfact> 0.43747783E-01</totfact>
</mgrwt>
</event>
<event>
12    1  0.1960998E-007  0.3558030E+04  0.7818608E-02  0.8100174E-01
          2   -1    0    0  501    0  0.00000000000E+00  0.00000000000E+00  0.28844377104E+04  0.28844377104E+04  0.00000000000E+00 0. -1.
         -2   -1    0    0    0  501 -0.00000000000E+00 -0.00000000000E+00 -0.10972310005E+04  0.10972310005E+04  0.00000000000E+00 0.  1.
         23    2    1    2    0    0 -0.16293365294E+04  0.18902486752E+03  0.11487202497E+04  0.20045875460E+04  0.91351468779E+02 0.  0.
        254    2    1    2    0    0  0.16293365294E+04 -0.18902486752E+03  0.63848646023E+03  0.19770811649E+04  0.90039827088E+03 0.  0.
        -24    2    4    4    0    0  0.57942235665E+03 -0.32190829794E+03 -0.11163206955E+03  0.67733889033E+03  0.83492716642E+02 0.  0.
         24    2    4    4    0    0  0.10499141727E+04  0.13288343042E+03  0.75011852978E+03  0.12997422746E+04  0.81696973151E+02 0.  0.
         13    1    3    3    0    0 -0.48918481404E+03  0.96284485504E+02  0.33062105098E+03  0.59823303468E+03  0.00000000000E+00 0.  1.
        -13    1    3    3    0    0 -0.11401517153E+04  0.92740382016E+02  0.81809919874E+03  0.14063545113E+04  0.00000000000E+00 0. -1.
          2    1    6    6  502    0  0.48921312385E+03  0.82003416098E+02  0.30790028481E+03  0.58382927829E+03  0.00000000000E+00 0. -1.
          3    1    5    5  503    0  0.16399185756E+03 -0.12045156619E+03 -0.63414596278E+02  0.21312747398E+03  0.00000000000E+00 0. -1.
         -4    1    5    5    0  503  0.41543049909E+03 -0.20145673175E+03 -0.48217473268E+02  0.46421141634E+03  0.00000000000E+00 0.  1.
         -1    1    6    6    0  502  0.56070104888E+03  0.50880014320E+02  0.44221824496E+03  0.71591299628E+03  0.00000000000E+00 0.  1.
<mgrwt>
<rscale>  0 0.35580301E+04</rscale>
<asrwt>0</asrwt>
<pdfrwt beam="1">  1        2 0.44375965E+00 0.35580301E+04</pdfrwt>
<pdfrwt beam="2">  1       -2 0.16880477E+00 0.35580301E+04</pdfrwt>
<totfact> 0.36490740E-01</totfact>
</mgrwt>
</event>
<event>
12    1  0.1960998E-007  0.2593564E+04  0.7818608E-02  0.8370391E-01
         -2   -1    0    0    0  501 -0.00000000000E+00  0.00000000000E+00  0.15372236601E+04  0.15372236601E+04  0.00000000000E+00 0.  1.
          2   -1    0    0  501    0  0.00000000000E+00 -0.00000000000E+00 -0.10939482881E+04  0.10939482881E+04  0.00000000000E+00 0. -1.
         23    2    1    2    0    0  0.87199163865E+03  0.44149429783E+03  0.78910088573E+03  0.12591169186E+04  0.86073072788E+02 0.  0.
        254    2    1    2    0    0 -0.87199163865E+03 -0.44149429783E+03 -0.34582551367E+03  0.13720550297E+04  0.89869521285E+03 0.  0.
        -24    2    4    4    0    0 -0.62407171565E+03 -0.70034966329E+03 -0.14308263557E+03  0.95225371951E+03  0.79745523931E+02 0.  0.
         24    2    4    4    0    0 -0.24791992299E+03  0.25885536546E+03 -0.20274287810E+03  0.41980131014E+03  0.81597039940E+02 0.  0.
         11    1    3    3    0    0  0.51841981426E+03  0.30561700122E+03  0.46290975043E+03  0.75924060237E+03  0.00000000000E+00 0.  1.
        -11    1    3    3    0    0  0.35357182438E+03  0.13587729661E+03  0.32619113531E+03  0.49987631619E+03  0.00000000000E+00 0. -1.
          4    1    6    6  502    0 -0.23619516935E+03  0.20699105710E+03 -0.17983660868E+03  0.36190421601E+03  0.00000000000E+00 0. -1.
          3    1    5    5  503    0 -0.52821389601E+03 -0.56882635437E+03 -0.14401660431E+03  0.78950245325E+03  0.00000000000E+00 0. -1.
         -4    1    5    5    0  503 -0.95857819643E+02 -0.13152330891E+03  0.93396874122E+00  0.16275126627E+03  0.00000000000E+00 0.  1.
         -3    1    6    6    0  502 -0.11724753645E+02  0.51864308360E+02 -0.22906269424E+02  0.57897094130E+02  0.00000000000E+00 0.  1.
<mgrwt>
<rscale>  0 0.25935637E+04</rscale>
<asrwt>0</asrwt>
<pdfrwt beam="1">  1        2 0.16829974E+00 0.25935637E+04</pdfrwt>
<pdfrwt beam="2">  1       -2 0.23649595E+00 0.25935637E+04</pdfrwt>
<totfact> 0.15144992E+00</totfact>
</mgrwt>
</event>
<event>
12    1  0.2159918E-007  0.2962982E+04  0.7818608E-02  0.8254381E-01
          2   -1    0    0  501    0  0.00000000000E+00  0.00000000000E+00  0.17820161760E+04  0.17820161760E+04  0.00000000000E+00 0.  1.
         -2   -1    0    0    0  501 -0.00000000000E+00 -0.00000000000E+00 -0.12316473417E+04  0.12316473417E+04  0.00000000000E+00 0. -1.
         23    2    1    2    0    0 -0.13169454459E+04  0.16522306587E+03  0.44076947825E+02  0.13309872424E+04  0.89108321605E+02 0.  0.
        254    2    1    2    0    0  0.13169454459E+04 -0.16522306587E+03  0.50629188650E+03  0.16826762753E+04  0.90190021856E+03 0.  0.
        -24    2    4    4    0    0  0.17257452485E+03 -0.64336869361E+01 -0.23925616685E+03  0.30585766161E+03  0.80511097578E+02 0.  0.
         24    2    4    4    0    0  0.11443709211E+04 -0.15878937893E+03  0.74554805335E+03  0.13768186137E+04  0.70630895633E+02 0.  0.
         13    1    3    3    0    0 -0.80790825509E+03  0.57782803030E+02  0.31421346056E+02  0.81058121244E+03  0.00000000000E+00 0.  1.
        -13    1    3    3    0    0 -0.50903719083E+03  0.10744026284E+03  0.12655601769E+02  0.52040602992E+03  0.00000000000E+00 0. -1.
          4    1    6    6  502    0  0.85484704281E+02 -0.22799193792E+01  0.74957000429E+02  0.11371624603E+03  0.00000000000E+00 0. -1.
          3    1    5    5  503    0  0.54158103289E+02  0.63020789156E+01 -0.23416889791E+02  0.59339422629E+02  0.00000000000E+00 0. -1.
         -4    1    5    5    0  503  0.11841642156E+03 -0.12735765852E+02 -0.21583927706E+03  0.24651823898E+03  0.00000000000E+00 0.  1.
         -3    1    6    6    0  502  0.10588862168E+04 -0.15650945955E+03  0.67059105292E+03  0.12631023677E+04  0.00000000000E+00 0.  1.
<mgrwt>
<rscale>  0 0.29629819E+04</rscale>
<asrwt>0</asrwt>
<pdfrwt beam="1">  1        2 0.27415633E+00 0.29629819E+04</pdfrwt>
<pdfrwt beam="2">  1       -2 0.18948421E+00 0.29629819E+04</pdfrwt>
<totfact> 0.11846559E+00</totfact>
</mgrwt>
</event>
<event>
12    1  0.1960998E-007  0.1723566E+04  0.7818608E-02  0.8748037E-01
         -2   -1    0    0    0  501 -0.00000000000E+00  0.00000000000E+00  0.30147963816E+03  0.30147963816E+03  0.00000000000E+00 0.  1.
          2   -1    0    0  501    0  0.00000000000E+00 -0.00000000000E+00 -0.24634173213E+04  0.24634173213E+04  0.00000000000E+00 0. -1.
         23    2    1    2    0    0 -0.32781716341E+03 -0.50776916731E+03 -0.54882805489E+03  0.82130540644E+03  0.89647737896E+02 0.  0.
        254    2    1    2    0    0  0.32781716341E+03  0.50776916731E+03 -0.16131096282E+04  0.19435915530E+04  0.90007323718E+03 0.  0.
        -24    2    4    4    0    0  0.17022365375E+03 -0.21731675457E+03 -0.74802369017E+03  0.80113290819E+03  0.77921957179E+02 0.  0.
         24    2    4    4    0    0  0.15759350967E+03  0.72508592189E+03 -0.86508593806E+03  0.11424586448E+04  0.79074436245E+02 0.  0.
         11    1    3    3    0    0 -0.17593067802E+03 -0.25317402815E+03 -0.22110924577E+03  0.37939160581E+03  0.00000000000E+00 0.  1.
        -11    1    3    3    0    0 -0.15188648540E+03 -0.25459513916E+03 -0.32771880912E+03  0.44191380063E+03  0.00000000000E+00 0. -1.
          4    1    6    6  502    0  0.10954405986E+02  0.12683154286E+03 -0.11207230719E+03  0.16960672544E+03  0.00000000000E+00 0. -1.
          1    1    5    5  503    0  0.31791612969E+02 -0.30161575608E+02 -0.21613884105E+03  0.22053667701E+03  0.00000000000E+00 0. -1.
         -4    1    5    5    0  503  0.13843204078E+03 -0.18715517897E+03 -0.53188484912E+03  0.58059623117E+03  0.00000000000E+00 0.  1.
         -3    1    6    6    0  502  0.14663910368E+03  0.59825437903E+03 -0.75301363088E+03  0.97285191938E+03  0.00000000000E+00 0.  1.
<mgrwt>
<rscale>  0 0.17235663E+04</rscale>
<asrwt>0</asrwt>
<pdfrwt beam="1">  1        2 0.37898727E+00 0.17235663E+04</pdfrwt>
<pdfrwt beam="2">  1       -2 0.46381484E-01 0.17235663E+04</pdfrwt>
<totfact> 0.15320739E+01</totfact>
</mgrwt>
</event>
<event>
12    1  0.1960998E-007  0.1771047E+04  0.7818608E-02  0.8721849E-01
         -2   -1    0    0    0  501 -0.00000000000E+00  0.00000000000E+00  0.42438976981E+03  0.42438976981E+03  0.00000000000E+00 0.  1.
          2   -1    0    0  501    0  0.00000000000E+00 -0.00000000000E+00 -0.18477171415E+04  0.18477171415E+04  0.00000000000E+00 0. -1.
         23    2    1    2    0    0  0.11552291999E+03 -0.53737560552E+03 -0.78639889638E+02  0.56194302056E+03  0.86473346546E+02 0.  0.
        254    2    1    2    0    0 -0.11552291999E+03  0.53737560552E+03 -0.13446874821E+04  0.17101638907E+04  0.90241787569E+03 0.  0.
        -24    2    4    4    0    0 -0.21071607810E+03 -0.20316936093E+03 -0.35181020428E+03  0.46476592422E+03  0.80980798291E+02 0.  0.
         24    2    4    4    0    0  0.95193158108E+02  0.74054496645E+03 -0.99287727777E+03  0.12453979665E+04  0.87989895031E+02 0.  0.
         13    1    3    3    0    0  0.77894859651E+02 -0.19426491061E+03 -0.52517089886E+02  0.21578811224E+03  0.00000000000E+00 0. -1.
        -13    1    3    3    0    0  0.37628060341E+02 -0.34311069491E+03 -0.26122799752E+02  0.34615490832E+03  0.00000000000E+00 0.  1.
          4    1    6    6  502    0  0.10172127147E+03  0.62429806018E+03 -0.79659750391E+03  0.10171837928E+04  0.00000000000E+00 0. -1.
          1    1    5    5  503    0 -0.16157956674E+03 -0.11755755178E+03 -0.27375023791E+03  0.33892023711E+03  0.00000000000E+00 0. -1.
         -2    1    5    5    0  503 -0.49136511359E+02 -0.85611809150E+02 -0.78059966373E+02  0.12584568711E+03  0.00000000000E+00 0.  1.
         -3    1    6    6    0  502 -0.65281133620E+01  0.11624690627E+03 -0.19627977387E+03  0.22821417377E+03  0.00000000000E+00 0.  1.
<mgrwt>
<rscale>  0 0.17710474E+04</rscale>
<asrwt>0</asrwt>
<pdfrwt beam="1">  1        2 0.28426418E+00 0.17710474E+04</pdfrwt>
<pdfrwt beam="2">  1       -2 0.65290733E-01 0.17710474E+04</pdfrwt>
<totfact> 0.16608701E+01</totfact>
</mgrwt>
</event>
<event>
12    1  0.1960998E-007  0.3020665E+04  0.7818608E-02  0.8237854E-01
          2   -1    0    0  501    0  0.00000000000E+00  0.00000000000E+00  0.14497103302E+04  0.14497103302E+04  0.00000000000E+00 0. -1.
         -2   -1    0    0    0  501 -0.00000000000E+00 -0.00000000000E+00 -0.15734892769E+04  0.15734892769E+04  0.00000000000E+00 0.  1.
         23    2    1    2    0    0  0.96296815337E+03  0.61130801663E+03 -0.82413603193E+03  0.14089074057E+04  0.69388205217E+02 0.  0.
        254    2    1    2    0    0 -0.96296815337E+03 -0.61130801663E+03  0.70035708527E+03  0.16142922014E+04  0.90246003190E+03 0.  0.
        -24    2    4    4    0    0 -0.81652796435E+03 -0.51591642165E+03  0.91030519128E+03  0.13295904366E+04  0.79167651714E+02 0.  0.
         24    2    4    4    0    0 -0.14644018902E+03 -0.95391594974E+02 -0.20994810601E+03  0.28470176487E+03  0.80203505848E+02 0.  0.
         11    1    3    3    0    0  0.70415299742E+03  0.44483959420E+03 -0.56317175210E+03  0.10054233589E+04  0.00000000000E+00 0. -1.
        -11    1    3    3    0    0  0.25881515595E+03  0.16646842243E+03 -0.26096427983E+03  0.40348404673E+03  0.00000000000E+00 0.  1.
          4    1    6    6  502    0 -0.11113133801E+03 -0.93710346353E+02 -0.20131602534E+03  0.24831420692E+03  0.00000000000E+00 0. -1.
          1    1    5    5  503    0 -0.49749040483E+03 -0.30458374479E+03  0.60099985278E+03  0.83753733262E+03  0.00000000000E+00 0. -1.
         -2    1    5    5    0  503 -0.31903755952E+03 -0.21133267686E+03  0.30930533850E+03  0.49205310396E+03  0.00000000000E+00 0.  1.
         -3    1    6    6    0  502 -0.35308851008E+02 -0.16812486208E+01 -0.86320806692E+01  0.36387557944E+02  0.00000000000E+00 0.  1.
<mgrwt>
<rscale>  0 0.30206646E+04</rscale>
<asrwt>0</asrwt>
<pdfrwt beam="1">  1        2 0.22303236E+00 0.30206646E+04</pdfrwt>
<pdfrwt beam="2">  1       -2 0.24207527E+00 0.30206646E+04</pdfrwt>
<totfact> 0.83309878E-01</totfact>
</mgrwt>
</event>
<event>
12    1  0.1960998E-007  0.2054454E+04  0.7818608E-02  0.8581577E-01
          1   -1    0    0  501    0  0.00000000000E+00  0.00000000000E+00  0.22919437526E+04  0.22919437526E+04  0.00000000000E+00 0. -1.
         -1   -1    0    0    0  501 -0.00000000000E+00 -0.00000000000E+00 -0.46039310434E+03  0.46039310434E+03  0.00000000000E+00 0.  1.
         23    2    1    2    0    0 -0.67159585738E+03 -0.19264959333E+03  0.14913383094E+03  0.72001772161E+03  0.89608919462E+02 0.  0.
        254    2    1    2    0    0  0.67159585738E+03  0.19264959333E+03  0.16824168174E+04  0.20323191354E+04  0.90091057226E+03 0.  0.
        -24    2    4    4    0    0  0.51843067863E+03  0.47961984117E+03  0.14771465065E+04  0.16392615953E+04  0.80070067425E+02 0.  0.
         24    2    4    4    0    0  0.15316517874E+03 -0.28697024784E+03  0.20527031086E+03  0.39305754003E+03  0.80912509109E+02 0.  0.
         13    1    3    3    0    0 -0.18363251769E+02 -0.23052913594E+02  0.46845510687E+01  0.29842768964E+02  0.00000000000E+00 0. -1.
        -13    1    3    3    0    0 -0.65323260561E+03 -0.16959667974E+03  0.14444927987E+03  0.69017495265E+03  0.00000000000E+00 0.  1.
          2    1    6    6  502    0  0.39406333246E+01 -0.49353816362E+02  0.82173478737E+01  0.50188171780E+02  0.00000000000E+00 0. -1.
          1    1    5    5  503    0  0.28073252708E+03  0.26585071367E+03  0.71637345817E+03  0.81405054222E+03  0.00000000000E+00 0. -1.
         -2    1    5    5    0  503  0.23769815155E+03  0.21376912750E+03  0.76077304832E+03  0.82521105311E+03  0.00000000000E+00 0.  1.
         -1    1    6    6    0  502  0.14922454542E+03 -0.23761643148E+03  0.19705296299E+03  0.34286936825E+03  0.00000000000E+00 0.  1.
<mgrwt>
<rscale>  0 0.20544538E+04</rscale>
<asrwt>0</asrwt>
<pdfrwt beam="1">  1        1 0.35260672E+00 0.20544538E+04</pdfrwt>
<pdfrwt beam="2">  1       -1 0.70829710E-01 0.20544538E+04</pdfrwt>
<totfact> 0.35049966E+00</totfact>
</mgrwt>
</event>
<event>
12    1  0.1960998E-007  0.1418281E+04  0.7818608E-02  0.8940691E-01
         -2   -1    0    0    0  501 -0.00000000000E+00  0.00000000000E+00  0.33277075053E+03  0.33277075053E+03  0.00000000000E+00 0.  1.
          2   -1    0    0  501    0  0.00000000000E+00 -0.00000000000E+00 -0.15111915907E+04  0.15111915907E+04  0.00000000000E+00 0. -1.
         23    2    1    2    0    0  0.35162239597E+03  0.22245147878E+03 -0.34695224580E+03  0.54952412397E+03  0.92075687381E+02 0.  0.
        254    2    1    2    0    0 -0.35162239597E+03 -0.22245147878E+03 -0.83146859434E+03  0.12944382172E+04  0.90061495940E+03 0.  0.
        -24    2    4    4    0    0 -0.10350513503E+03  0.24587172847E+03  0.32576170976E+02  0.27766047914E+03  0.69770444450E+02 0.  0.
         24    2    4    4    0    0 -0.24811726094E+03 -0.46832320725E+03 -0.86404476532E+03  0.10167777381E+04  0.79842410941E+02 0.  0.
         11    1    3    3    0    0  0.17154283477E+03  0.13323624685E+03 -0.12710408203E+03  0.25166304715E+03  0.00000000000E+00 0.  1.
        -11    1    3    3    0    0  0.18007956120E+03  0.89215231929E+02 -0.21984816377E+03  0.29786107682E+03  0.00000000000E+00 0. -1.
          4    1    6    6  502    0 -0.55690567039E+01 -0.29980867701E+01 -0.35374655930E+02  0.35935625764E+02  0.00000000000E+00 0. -1.
          1    1    5    5  503    0 -0.44888618737E+02  0.47791204485E+02 -0.11160202178E+02  0.66509679227E+02  0.00000000000E+00 0. -1.
         -2    1    5    5    0  503 -0.58616516296E+02  0.19808052399E+03  0.43736373154E+02  0.21115079991E+03  0.00000000000E+00 0.  1.
         -3    1    6    6    0  502 -0.24254820424E+03 -0.46532512048E+03 -0.82867010939E+03  0.98084211233E+03  0.00000000000E+00 0.  1.
<mgrwt>
<rscale>  0 0.14182812E+04</rscale>
<asrwt>0</asrwt>
<pdfrwt beam="1">  1        2 0.23249101E+00 0.14182812E+04</pdfrwt>
<pdfrwt beam="2">  1       -2 0.51195500E-01 0.14182812E+04</pdfrwt>
<totfact> 0.43834988E+01</totfact>
</mgrwt>
</event>
<event>
12    1  0.1960998E-007  0.1624912E+04  0.7818608E-02  0.8805388E-01
          2   -1    0    0  501    0  0.00000000000E+00  0.00000000000E+00  0.17963255674E+04  0.17963255674E+04  0.00000000000E+00 0. -1.
         -2   -1    0    0    0  501 -0.00000000000E+00 -0.00000000000E+00 -0.36746374669E+03  0.36746374669E+03  0.00000000000E+00 0.  1.
         23    2    1    2    0    0  0.44136081724E+03  0.43803074793E+02  0.45683376265E+02  0.45461932840E+03  0.88733773363E+02 0.  0.
        254    2    1    2    0    0 -0.44136081724E+03 -0.43803074793E+02  0.13831784444E+04  0.17091699856E+04  0.90075598827E+03 0.  0.
        -24    2    4    4    0    0  0.14727351727E+02  0.25561801304E+03  0.55919895991E+02  0.27213564823E+03  0.73302883931E+02 0.  0.
         24    2    4    4    0    0 -0.45608816896E+03 -0.29942108783E+03  0.13272585484E+04  0.14370343374E+04  0.76046215304E+02 0.  0.
         11    1    3    3    0    0  0.25780007481E+03 -0.10444084440E+02  0.77387159879E+00  0.25801270579E+03  0.00000000000E+00 0. -1.
        -11    1    3    3    0    0  0.18356074243E+03  0.54247159233E+02  0.44909504666E+02  0.19660662261E+03  0.00000000000E+00 0.  1.
          2    1    6    6  502    0 -0.14120689868E+03 -0.10129997557E+03  0.51762094126E+03  0.54601512078E+03  0.00000000000E+00 0. -1.
          1    1    5    5  503    0  0.60236932458E+01  0.24267237357E+03  0.33830221037E+02  0.24509314480E+03  0.00000000000E+00 0. -1.
         -4    1    5    5    0  503  0.87036584810E+01  0.12945639472E+02  0.22089674954E+02  0.27042503432E+02  0.00000000000E+00 0.  1.
         -1    1    6    6    0  502 -0.31488127028E+03 -0.19812111226E+03  0.80963760715E+03  0.89101921663E+03  0.00000000000E+00 0.  1.
<mgrwt>
<rscale>  0 0.16249117E+04</rscale>
<asrwt>0</asrwt>
<pdfrwt beam="1">  1        2 0.27635778E+00 0.16249117E+04</pdfrwt>
<pdfrwt beam="2">  1       -2 0.56532885E-01 0.16249117E+04</pdfrwt>
<totfact> 0.24356629E+01</totfact>
</mgrwt>
</event>
<event>
12    1  0.1960998E-007  0.2756720E+04  0.7818608E-02  0.8316833E-01
          2   -1    0    0  501    0  0.00000000000E+00  0.00000000000E+00  0.13240069929E+04  0.13240069929E+04  0.00000000000E+00 0. -1.
         -2   -1    0    0    0  501 -0.00000000000E+00 -0.00000000000E+00 -0.14349438967E+04  0.14349438967E+04  0.00000000000E+00 0.  1.
         23    2    1    2    0    0  0.38395507697E+02  0.10139158657E+04 -0.74685070570E+03  0.12632430118E+04  0.92180976934E+02 0.  0.
        254    2    1    2    0    0 -0.38395507697E+02 -0.10139158657E+04  0.63591380194E+03  0.14957078778E+04  0.89624555479E+03 0.  0.
        -24    2    4    4    0    0 -0.37907196527E+02 -0.20562645760E+03 -0.22141668830E+03  0.31477339581E+03  0.79609956891E+02 0.  0.
         24    2    4    4    0    0 -0.48831116976E+00 -0.80828940813E+03  0.85733049024E+03  0.11809344820E+04  0.79111791543E+02 0.  0.
         13    1    3    3    0    0  0.18210808634E+02  0.89998081761E+03 -0.69075055013E+03  0.11346512363E+04  0.00000000000E+00 0.  1.
        -13    1    3    3    0    0  0.20184699063E+02  0.11393504812E+03 -0.56100155579E+02  0.12859177548E+03  0.00000000000E+00 0. -1.
          4    1    6    6  502    0  0.10083874287E+02 -0.16641387497E+02  0.12590518825E+02  0.23176312536E+02  0.00000000000E+00 0. -1.
          1    1    5    5  503    0 -0.31614281138E+02 -0.10714338136E+03 -0.63327423521E+02  0.12841156300E+03  0.00000000000E+00 0. -1.
         -2    1    5    5    0  503 -0.62929153887E+01 -0.98483076236E+02 -0.15808926478E+03  0.18636183281E+03  0.00000000000E+00 0.  1.
         -3    1    6    6    0  502 -0.10572185457E+02 -0.79164802063E+03  0.84473997141E+03  0.11577581695E+04  0.00000000000E+00 0.  1.
<mgrwt>
<rscale>  0 0.27567196E+04</rscale>
<asrwt>0</asrwt>
<pdfrwt beam="1">  1        2 0.20369339E+00 0.27567196E+04</pdfrwt>
<pdfrwt beam="2">  1       -2 0.22076060E+00 0.27567196E+04</pdfrwt>
<totfact> 0.13663671E+00</totfact>
</mgrwt>
</event>
<event>
12    1  0.1960998E-007  0.1517847E+04  0.7818608E-02  0.8872671E-01
          1   -1    0    0  501    0  0.00000000000E+00  0.00000000000E+00  0.13322380643E+04  0.13322380643E+04  0.00000000000E+00 0. -1.
         -1   -1    0    0    0  501 -0.00000000000E+00 -0.00000000000E+00 -0.43232892799E+03  0.43232892799E+03  0.00000000000E+00 0.  1.
         23    2    1    2    0    0  0.55747501823E+02  0.10993387726E+03  0.84092424114E+03  0.85481035539E+03  0.91399797693E+02 0.  0.
        254    2    1    2    0    0 -0.55747501823E+02 -0.10993387726E+03  0.58984895139E+02  0.90975663688E+03  0.89943575599E+03 0.  0.
        -24    2    4    4    0    0 -0.30623935652E+03  0.25348917318E+03  0.18093180782E+03  0.44390865882E+03  0.79241869579E+02 0.  0.
         24    2    4    4    0    0  0.25049185470E+03 -0.36342305044E+03 -0.12194691268E+03  0.46584797806E+03  0.85561710397E+02 0.  0.
         11    1    3    3    0    0  0.36733048389E+02  0.34646599319E+02  0.58972980425E+03  0.59188761239E+03  0.00000000000E+00 0. -1.
        -11    1    3    3    0    0  0.19014453434E+02  0.75287277942E+02  0.25119443689E+03  0.26292274300E+03  0.00000000000E+00 0.  1.
          4    1    6    6  502    0  0.30066967488E+01 -0.47088900400E+02 -0.21406094268E+02  0.51813373158E+02  0.00000000000E+00 0. -1.
          3    1    5    5  503    0 -0.10567081073E+02  0.15597724843E+02 -0.74155571505E+01  0.20247042020E+02  0.00000000000E+00 0. -1.
         -2    1    5    5    0  503 -0.29567227544E+03  0.23789144834E+03  0.18834736497E+03  0.42366161680E+03  0.00000000000E+00 0.  1.
         -3    1    6    6    0  502  0.24748515795E+03 -0.31633415004E+03 -0.10054081842E+03  0.41403460490E+03  0.00000000000E+00 0.  1.
<mgrwt>
<rscale>  0 0.15178472E+04</rscale>
<asrwt>0</asrwt>
<pdfrwt beam="1">  1        1 0.20495970E+00 0.15178472E+04</pdfrwt>
<pdfrwt beam="2">  1       -1 0.66512143E-01 0.15178472E+04</pdfrwt>
<totfact> 0.18980533E+01</totfact>
</mgrwt>
</event>
<event>
12    1  0.1960998E-007  0.1568313E+04  0.7818608E-02  0.8840255E-01
          1   -1    0    0  501    0  0.00000000000E+00  0.00000000000E+00  0.82941835988E+03  0.82941835988E+03  0.00000000000E+00 0. -1.
         -1   -1    0    0    0  501 -0.00000000000E+00 -0.00000000000E+00 -0.74136439346E+03  0.74136439346E+03  0.00000000000E+00 0.  1.
         23    2    1    2    0    0  0.35398315290E+03 -0.10322377681E+02  0.41173288649E+03  0.55064399095E+03  0.90962689806E+02 0.  0.
        254    2    1    2    0    0 -0.35398315290E+03  0.10322377681E+02 -0.32367892007E+03  0.10201387624E+04  0.90028019373E+03 0.  0.
        -24    2    4    4    0    0 -0.31614063352E+03  0.20936478440E+03  0.21145070432E+03  0.44163917885E+03  0.80964503518E+02 0.  0.
         24    2    4    4    0    0 -0.37842519382E+02 -0.19904240672E+03 -0.53512962439E+03  0.57849958355E+03  0.85135875595E+02 0.  0.
         11    1    3    3    0    0  0.13359200107E+03  0.65522542079E+01  0.93557340871E+02  0.16322601146E+03  0.00000000000E+00 0.  1.
        -11    1    3    3    0    0  0.22039115183E+03 -0.16874631888E+02  0.31817554562E+03  0.38741797949E+03  0.00000000000E+00 0. -1.
          4    1    6    6  502    0  0.94020966615E+01 -0.12199360972E+03 -0.23343325756E+03  0.26355630512E+03  0.00000000000E+00 0. -1.
          3    1    5    5  503    0 -0.23110082681E+02  0.41375771807E+02  0.43886589524E+02  0.64591509923E+02  0.00000000000E+00 0. -1.
         -4    1    5    5    0  503 -0.29303055083E+03  0.16798901259E+03  0.16756411480E+03  0.37704766893E+03  0.00000000000E+00 0.  1.
         -3    1    6    6    0  502 -0.47244616044E+02 -0.77048796998E+02 -0.30169636683E+03  0.31494327842E+03  0.00000000000E+00 0.  1.
<mgrwt>
<rscale>  0 0.15683128E+04</rscale>
<asrwt>0</asrwt>
<pdfrwt beam="1">  1        1 0.12760282E+00 0.15683128E+04</pdfrwt>
<pdfrwt beam="2">  1       -1 0.11405606E+00 0.15683128E+04</pdfrwt>
<totfact> 0.14048185E+01</totfact>
</mgrwt>
</event>
<event>
12    1  0.1960998E-007  0.1677556E+04  0.7818608E-02  0.8774269E-01
          2   -1    0    0  501    0  0.00000000000E+00  0.00000000000E+00  0.90359748532E+03  0.90359748532E+03  0.00000000000E+00 0. -1.
         -2   -1    0    0    0  501 -0.00000000000E+00 -0.00000000000E+00 -0.77860845082E+03  0.77860845082E+03  0.00000000000E+00 0.  1.
         23    2    1    2    0    0  0.40900864562E+03  0.38572842112E+03  0.23136027903E+03  0.61507906485E+03  0.93381958932E+02 0.  0.
        254    2    1    2    0    0 -0.40900864562E+03 -0.38572842112E+03 -0.10637124452E+03  0.10671268713E+04  0.90076102865E+03 0.  0.
        -24    2    4    4    0    0 -0.44103821891E+03 -0.26945341828E+03  0.32246581495E+03  0.61434892252E+03  0.79501834139E+02 0.  0.
         24    2    4    4    0    0  0.32029573293E+02 -0.11627500283E+03 -0.42883705947E+03  0.45277794877E+03  0.80999243640E+02 0.  0.
         11    1    3    3    0    0  0.27375843319E+03  0.26792451535E+03  0.11004693698E+03  0.39854429366E+03  0.00000000000E+00 0.  1.
        -11    1    3    3    0    0  0.13525021242E+03  0.11780390576E+03  0.12131334204E+03  0.21653477118E+03  0.00000000000E+00 0. -1.
          4    1    6    6  502    0 -0.20453615949E+01  0.12039497298E+02 -0.28662169750E+02  0.31155304108E+02  0.00000000000E+00 0. -1.
          3    1    5    5  503    0 -0.82135630302E+02 -0.31687516989E+02  0.26590851731E+02  0.91964307717E+02  0.00000000000E+00 0. -1.
         -4    1    5    5    0  503 -0.35890258861E+03 -0.23776590129E+03  0.29587496322E+03  0.52238461481E+03  0.00000000000E+00 0.  1.
         -3    1    6    6    0  502  0.34074934887E+02 -0.12831450013E+03 -0.40017488972E+03  0.42162264466E+03  0.00000000000E+00 0.  1.
<mgrwt>
<rscale>  0 0.16775561E+04</rscale>
<asrwt>0</asrwt>
<pdfrwt beam="1">  1        2 0.13901500E+00 0.16775561E+04</pdfrwt>
<pdfrwt beam="2">  1       -2 0.11978592E+00 0.16775561E+04</pdfrwt>
<totfact> 0.14824194E+01</totfact>
</mgrwt>
</event>
<event>
12    1  0.1960998E-007  0.1898758E+04  0.7818608E-02  0.8655475E-01
         -2   -1    0    0    0  501 -0.00000000000E+00  0.00000000000E+00  0.40945433483E+03  0.40945433483E+03  0.00000000000E+00 0.  1.
          2   -1    0    0  501    0  0.00000000000E+00 -0.00000000000E+00 -0.22012733184E+04  0.22012733184E+04  0.00000000000E+00 0. -1.
         23    2    1    2    0    0 -0.71466309264E+03 -0.16049315420E+03 -0.66613042154E+03  0.99424909296E+03  0.91105059227E+02 0.  0.
        254    2    1    2    0    0  0.71466309264E+03  0.16049315420E+03 -0.11256885620E+04  0.16164785602E+04  0.89962592701E+03 0.  0.
        -24    2    4    4    0    0  0.89456419195E+03  0.77286840634E+02 -0.10627286996E+04  0.13935675450E+04  0.80124055190E+02 0.  0.
         24    2    4    4    0    0 -0.17990109930E+03  0.83206313569E+02 -0.62959862355E+02  0.22291101522E+03  0.80235156212E+02 0.  0.
         11    1    3    3    0    0 -0.39955192716E+03 -0.43563666397E+02 -0.37006976372E+03  0.54634345017E+03  0.00000000000E+00 0. -1.
        -11    1    3    3    0    0 -0.31511116548E+03 -0.11692948781E+03 -0.29606065782E+03  0.44790564278E+03  0.00000000000E+00 0.  1.
          4    1    6    6  502    0 -0.51848965315E+02  0.62926081088E+02 -0.74361030542E+01  0.81873698548E+02  0.00000000000E+00 0. -1.
          1    1    5    5  503    0  0.40533808773E+03 -0.45674456872E+01 -0.48681929836E+03  0.63349258573E+03  0.00000000000E+00 0. -1.
         -2    1    5    5    0  503  0.48922610422E+03  0.81854286322E+02 -0.57590940128E+03  0.76007495928E+03  0.00000000000E+00 0.  1.
         -3    1    6    6    0  502 -0.12805213399E+03  0.20280232481E+02 -0.55523759301E+02  0.14103731668E+03  0.00000000000E+00 0.  1.
<mgrwt>
<rscale>  0 0.18987584E+04</rscale>
<asrwt>0</asrwt>
<pdfrwt beam="1">  1        2 0.33865744E+00 0.18987584E+04</pdfrwt>
<pdfrwt beam="2">  1       -2 0.62992974E-01 0.18987584E+04</pdfrwt>
<totfact> 0.11277219E+01</totfact>
</mgrwt>
</event>
<event>
12    1  0.1960998E-007  0.2864541E+04  0.7818608E-02  0.8283506E-01
          1   -1    0    0  501    0  0.00000000000E+00  0.00000000000E+00  0.94856587803E+03  0.94856587803E+03  0.00000000000E+00 0.  1.
         -1   -1    0    0    0  501 -0.00000000000E+00 -0.00000000000E+00 -0.21626325145E+04  0.21626325145E+04  0.00000000000E+00 0. -1.
         23    2    1    2    0    0 -0.10066964694E+04  0.80583041757E+03 -0.58558241891E+03  0.14191092851E+04  0.90354580566E+02 0.  0.
        254    2    1    2    0    0  0.10066964694E+04 -0.80583041757E+03 -0.62848421759E+03  0.16920891075E+04  0.89742559161E+03 0.  0.
        -24    2    4    4    0    0  0.47040589907E+03 -0.17601724902E+03 -0.69187056899E+03  0.85867281982E+03  0.79814443778E+02 0.  0.
         24    2    4    4    0    0  0.53629057036E+03 -0.62981316854E+03  0.63386351400E+02  0.83341628766E+03  0.79326388200E+02 0.  0.
         13    1    3    3    0    0 -0.54367509810E+03  0.48899877520E+03 -0.34837662492E+03  0.80998067090E+03  0.00000000000E+00 0.  1.
        -13    1    3    3    0    0 -0.46302137132E+03  0.31683164237E+03 -0.23720579399E+03  0.60912861418E+03  0.00000000000E+00 0. -1.
          2    1    6    6  502    0  0.96002723191E+02 -0.92165513060E+02  0.36392514029E+02  0.13796890858E+03  0.00000000000E+00 0. -1.
          3    1    5    5  503    0  0.11262119046E+03 -0.78027187996E+02 -0.20533617514E+03  0.24684958868E+03  0.00000000000E+00 0. -1.
         -4    1    5    5    0  503  0.35778470861E+03 -0.97990061028E+02 -0.48653439385E+03  0.61182323115E+03  0.00000000000E+00 0.  1.
         -1    1    6    6    0  502  0.44028784717E+03 -0.53764765548E+03  0.26993837371E+02  0.69544737908E+03  0.00000000000E+00 0.  1.
<mgrwt>
<rscale>  0 0.28645414E+04</rscale>
<asrwt>0</asrwt>
<pdfrwt beam="1">  1        1 0.14593321E+00 0.28645414E+04</pdfrwt>
<pdfrwt beam="2">  1       -1 0.33271270E+00 0.28645414E+04</pdfrwt>
<totfact> 0.28906913E-01</totfact>
</mgrwt>
</event>
<event>
12    1  0.1960998E-007  0.2748419E+04  0.7818608E-02  0.8319464E-01
         -3   -1    0    0    0  501 -0.00000000000E+00  0.00000000000E+00  0.53646484164E+03  0.53646484164E+03  0.00000000000E+00 0.  1.
          3   -1    0    0  501    0  0.00000000000E+00 -0.00000000000E+00 -0.35201769657E+04  0.35201769657E+04  0.00000000000E+00 0. -1.
         23    2    1    2    0    0  0.15461231291E+03  0.11992758312E+04 -0.16263911519E+04  0.20286799466E+04  0.90700937408E+02 0.  0.
        254    2    1    2    0    0 -0.15461231291E+03 -0.11992758312E+04 -0.13573209721E+04  0.20279618608E+04  0.89896696314E+03 0.  0.
        -24    2    4    4    0    0 -0.24776902600E+03 -0.82432122090E+03 -0.13847135396E+04  0.16322283919E+04  0.76439330198E+02 0.  0.
         24    2    4    4    0    0  0.93156713082E+02 -0.37495461027E+03  0.27392567435E+02  0.39573346886E+03  0.81151048524E+02 0.  0.
         11    1    3    3    0    0 -0.32352698826E+01  0.19137927774E+03 -0.28806976174E+03  0.34586223058E+03  0.00000000000E+00 0.  1.
        -11    1    3    3    0    0  0.15784758280E+03  0.10078965534E+04 -0.13383213902E+04  0.16828177160E+04  0.00000000000E+00 0. -1.
          4    1    6    6  502    0  0.76995423375E+02 -0.36875648278E+03  0.21042001445E+02  0.37729617628E+03  0.00000000000E+00 0. -1.
          3    1    5    5  503    0 -0.20440602875E+03 -0.55723071704E+03 -0.95539331237E+03  0.11247507626E+04  0.00000000000E+00 0. -1.
         -4    1    5    5    0  503 -0.43362997248E+02 -0.26709050385E+03 -0.42932022720E+03  0.50747762932E+03  0.00000000000E+00 0.  1.
         -3    1    6    6    0  502  0.16161289707E+02 -0.61981274858E+01  0.63505659898E+01  0.18437292581E+02  0.00000000000E+00 0.  1.
<mgrwt>
<rscale>  0 0.27484186E+04</rscale>
<asrwt>0</asrwt>
<pdfrwt beam="1">  1        3 0.54156570E+00 0.27484186E+04</pdfrwt>
<pdfrwt beam="2">  1       -3 0.82533050E-01 0.27484186E+04</pdfrwt>
<totfact> 0.66458486E-03</totfact>
</mgrwt>
</event>
<event>
12    1  0.1960998E-007  0.2137691E+04  0.7818608E-02  0.8544820E-01
         -1   -1    0    0    0  501 -0.00000000000E+00  0.00000000000E+00  0.80975228890E+03  0.80975228890E+03  0.00000000000E+00 0.  1.
          1   -1    0    0  501    0  0.00000000000E+00 -0.00000000000E+00 -0.14108397394E+04  0.14108397394E+04  0.00000000000E+00 0. -1.
         23    2    1    2    0    0  0.87576547207E+03  0.28436680840E+02 -0.25619322955E+03  0.91740100004E+03  0.90641144709E+02 0.  0.
        254    2    1    2    0    0 -0.87576547207E+03 -0.28436680840E+02 -0.34489422098E+03  0.13031910283E+04  0.90087791939E+03 0.  0.
        -24    2    4    4    0    0  0.60429404255E+02 -0.26696802053E+03 -0.11068254528E+03  0.30589530797E+03  0.79985478205E+02 0.  0.
         24    2    4    4    0    0 -0.93619487633E+03  0.23853133969E+03 -0.23421167570E+03  0.99729572032E+03  0.79909938373E+02 0.  0.
         13    1    3    3    0    0  0.45844891866E+03  0.59806649520E+02 -0.14046142082E+03  0.48319939682E+03  0.00000000000E+00 0.  1.
        -13    1    3    3    0    0  0.41731655342E+03 -0.31369968681E+02 -0.11573180873E+03  0.43420160322E+03  0.00000000000E+00 0. -1.
          2    1    6    6  502    0 -0.75352495322E+02  0.24728671768E+02  0.21937092863E+01  0.79336738773E+02  0.00000000000E+00 0. -1.
          3    1    5    5  503    0  0.40718126042E+02 -0.42287984812E+02 -0.33030648042E+02  0.67359209897E+02  0.00000000000E+00 0. -1.
         -4    1    5    5    0  503  0.19711278213E+02 -0.22468003572E+03 -0.77651897237E+02  0.23853609807E+03  0.00000000000E+00 0.  1.
         -3    1    6    6    0  502 -0.86084238101E+03  0.21380266792E+03 -0.23640538499E+03  0.91795898155E+03  0.00000000000E+00 0.  1.
<mgrwt>
<rscale>  0 0.21376910E+04</rscale>
<asrwt>0</asrwt>
<pdfrwt beam="1">  1        1 0.21705227E+00 0.21376910E+04</pdfrwt>
<pdfrwt beam="2">  1       -1 0.12457727E+00 0.21376910E+04</pdfrwt>
<totfact> 0.39057173E+00</totfact>
</mgrwt>
</event>
<event>
12    1  0.1960998E-007  0.1425210E+04  0.7818608E-02  0.8935770E-01
          1   -1    0    0  501    0  0.00000000000E+00  0.00000000000E+00  0.61987238610E+03  0.61987238610E+03  0.00000000000E+00 0.  1.
         -1   -1    0    0    0  501 -0.00000000000E+00 -0.00000000000E+00 -0.81921070865E+03  0.81921070865E+03  0.00000000000E+00 0. -1.
         23    2    1    2    0    0  0.25553112405E+03 -0.81234400177E+02 -0.38995094543E+03  0.48212493335E+03  0.92127782922E+02 0.  0.
        254    2    1    2    0    0 -0.25553112405E+03  0.81234400177E+02  0.19061262288E+03  0.95695816141E+03  0.89863260989E+03 0.  0.
        -24    2    4    4    0    0  0.19836261217E+03  0.91180979769E+02  0.39036549686E+03  0.45453213051E+03  0.80947758179E+02 0.  0.
         24    2    4    4    0    0 -0.45389373622E+03 -0.99465795917E+01 -0.19975287398E+03  0.50242603089E+03  0.80076511124E+02 0.  0.
         13    1    3    3    0    0  0.14762318875E+01 -0.18061405399E+02 -0.49125974066E+02  0.52361769961E+02  0.00000000000E+00 0. -1.
        -13    1    3    3    0    0  0.25405489216E+03 -0.63172994779E+02 -0.34082497136E+03  0.42976316339E+03  0.00000000000E+00 0.  1.
          2    1    6    6  502    0 -0.28565651587E+03 -0.41677066900E+02 -0.14223580757E+03  0.32181927835E+03  0.00000000000E+00 0. -1.
          1    1    5    5  503    0  0.17465372119E+03  0.44366131183E+02  0.30927925340E+03  0.35794682916E+03  0.00000000000E+00 0. -1.
         -2    1    5    5    0  503  0.23708890978E+02  0.46814848586E+02  0.81086243462E+02  0.96585301358E+02  0.00000000000E+00 0.  1.
         -1    1    6    6    0  502 -0.16823722035E+03  0.31730487309E+02 -0.57517066408E+02  0.18060675254E+03  0.00000000000E+00 0.  1.
<mgrwt>
<rscale>  0 0.14252103E+04</rscale>
<asrwt>0</asrwt>
<pdfrwt beam="1">  1        1 0.95364983E-01 0.14252103E+04</pdfrwt>
<pdfrwt beam="2">  1       -1 0.12603242E+00 0.14252103E+04</pdfrwt>
<totfact> 0.17431505E+01</totfact>
</mgrwt>
</event>
<event>
12    1  0.1960998E-007  0.2738961E+04  0.7818608E-02  0.8322473E-01
         -2   -1    0    0    0  501 -0.00000000000E+00  0.00000000000E+00  0.75377433615E+03  0.75377433615E+03  0.00000000000E+00 0.  1.
          2   -1    0    0  501    0  0.00000000000E+00 -0.00000000000E+00 -0.24881152123E+04  0.24881152123E+04  0.00000000000E+00 0. -1.
         23    2    1    2    0    0 -0.34354981291E+03 -0.86161159712E+03  0.16245652173E+03  0.94603695056E+03  0.90513933282E+02 0.  0.
        254    2    1    2    0    0  0.34354981291E+03  0.86161159712E+03 -0.18967973979E+04  0.22958525979E+04  0.90149751214E+03 0.  0.
        -24    2    4    4    0    0  0.25546777201E+03  0.89403229215E+03 -0.91912930431E+03  0.13104520115E+04  0.89040857771E+02 0.  0.
         24    2    4    4    0    0  0.88082040894E+02 -0.32420695026E+02 -0.97766809358E+03  0.98540058644E+03  0.79811447571E+02 0.  0.
         13    1    3    3    0    0 -0.27992331335E+03 -0.65253012913E+03  0.89618689061E+02  0.71567041312E+03  0.00000000000E+00 0. -1.
        -13    1    3    3    0    0 -0.63626499552E+02 -0.20908146799E+03  0.72837832670E+02  0.23036653744E+03  0.00000000000E+00 0.  1.
          4    1    6    6  502    0  0.77273884909E+02  0.29561621888E+01 -0.81091668334E+03  0.81459551895E+03  0.00000000000E+00 0. -1.
          1    1    5    5  503    0  0.13519245516E+03  0.45822281892E+03 -0.40995490209E+03  0.62953012116E+03  0.00000000000E+00 0. -1.
         -2    1    5    5    0  503  0.12027531685E+03  0.43580947323E+03 -0.50917440222E+03  0.68092189029E+03  0.00000000000E+00 0.  1.
         -3    1    6    6    0  502  0.10808155986E+02 -0.35376857215E+02 -0.16675141024E+03  0.17080506749E+03  0.00000000000E+00 0.  1.
<mgrwt>
<rscale>  0 0.27389614E+04</rscale>
<asrwt>0</asrwt>
<pdfrwt beam="1">  1        2 0.38278695E+00 0.27389614E+04</pdfrwt>
<pdfrwt beam="2">  1       -2 0.11596528E+00 0.27389614E+04</pdfrwt>
<totfact> 0.17864406E+00</totfact>
</mgrwt>
</event>
<event>
12    1  0.1960998E-007  0.2613509E+04  0.7818608E-02  0.8363627E-01
          2   -1    0    0  501    0  0.00000000000E+00  0.00000000000E+00  0.26026175165E+04  0.26026175165E+04  0.00000000000E+00 0.  1.
         -2   -1    0    0    0  501 -0.00000000000E+00 -0.00000000000E+00 -0.65611165361E+03  0.65611165361E+03  0.00000000000E+00 0. -1.
         23    2    1    2    0    0 -0.10057702845E+04 -0.26963558629E+03  0.14629908540E+04  0.17980102617E+04  0.90672198050E+02 0.  0.
        254    2    1    2    0    0  0.10057702845E+04  0.26963558629E+03  0.48351500885E+03  0.14607189084E+04  0.90312554565E+03 0.  0.
        -24    2    4    4    0    0  0.51905401432E+03  0.38057904850E+02 -0.21992800259E+03  0.57053131135E+03  0.79197076985E+02 0.  0.
         24    2    4    4    0    0  0.48671627014E+03  0.23157768144E+03  0.70344301144E+03  0.89018759710E+03  0.84148306715E+02 0.  0.
         13    1    3    3    0    0 -0.44222400682E+02  0.39096350865E+01  0.46687324370E+02  0.64425245249E+02  0.00000000000E+00 0. -1.
        -13    1    3    3    0    0 -0.96154788379E+03 -0.27354522137E+03  0.14163035297E+04  0.17335850164E+04  0.00000000000E+00 0.  1.
          4    1    6    6  502    0  0.81401151132E+02  0.29743844245E+02  0.69189919889E+02  0.11089674788E+03  0.00000000000E+00 0. -1.
          1    1    5    5  503    0  0.19771782665E+03  0.83927790548E+01 -0.12534883268E+03  0.23425436510E+03  0.00000000000E+00 0. -1.
         -2    1    5    5    0  503  0.32133618768E+03  0.29665125795E+02 -0.94579169906E+02  0.33627694625E+03  0.00000000000E+00 0.  1.
         -3    1    6    6    0  502  0.40531511901E+03  0.20183383719E+03  0.63425309155E+03  0.77929084922E+03  0.00000000000E+00 0.  1.
<mgrwt>
<rscale>  0 0.26135093E+04</rscale>
<asrwt>0</asrwt>
<pdfrwt beam="1">  1        2 0.40040269E+00 0.26135093E+04</pdfrwt>
<pdfrwt beam="2">  1       -2 0.10094026E+00 0.26135093E+04</pdfrwt>
<totfact> 0.21639803E+00</totfact>
</mgrwt>
</event>
<event>
12    1  0.1960998E-007  0.1577312E+04  0.7818608E-02  0.8834608E-01
          2   -1    0    0  501    0  0.00000000000E+00  0.00000000000E+00  0.42222635137E+03  0.42222635137E+03  0.00000000000E+00 0. -1.
         -2   -1    0    0    0  501 -0.00000000000E+00 -0.00000000000E+00 -0.14730928296E+04  0.14730928296E+04  0.00000000000E+00 0.  1.
         23    2    1    2    0    0 -0.46335935420E+03  0.15631609858E+03 -0.59410620983E+03  0.77512744100E+03  0.93401003406E+02 0.  0.
        254    2    1    2    0    0  0.46335935420E+03 -0.15631609858E+03 -0.45676026842E+03  0.11201917400E+04  0.89836683918E+03 0.  0.
        -24    2    4    4    0    0  0.33008938144E+02 -0.14716443405E+03 -0.62735675998E+03  0.65026448583E+03  0.80749220361E+02 0.  0.
         24    2    4    4    0    0  0.43035041605E+03 -0.91516645208E+01  0.17059649155E+03  0.46992725417E+03  0.80269718545E+02 0.  0.
         11    1    3    3    0    0 -0.34274177004E+03  0.14887556909E+03 -0.48545116708E+03  0.61261626784E+03  0.00000000000E+00 0.  1.
        -11    1    3    3    0    0 -0.12061758416E+03  0.74405294854E+01 -0.10865504275E+03  0.16251117317E+03  0.00000000000E+00 0. -1.
          2    1    6    6  502    0  0.23818280229E+02 -0.37277365971E+01 -0.86317702946E+01  0.25606912185E+02  0.00000000000E+00 0. -1.
          3    1    5    5  503    0 -0.19174073837E+02 -0.33143542262E+02 -0.79499067934E+02  0.88239681003E+02  0.00000000000E+00 0. -1.
         -4    1    5    5    0  503  0.52183011981E+02 -0.11402089179E+03 -0.54785769204E+03  0.56202480482E+03  0.00000000000E+00 0.  1.
         -1    1    6    6    0  502  0.40653213582E+03 -0.54239279236E+01  0.17922826185E+03  0.44432034198E+03  0.00000000000E+00 0.  1.
<mgrwt>
<rscale>  0 0.15773124E+04</rscale>
<asrwt>0</asrwt>
<pdfrwt beam="1">  1        2 0.64957900E-01 0.15773124E+04</pdfrwt>
<pdfrwt beam="2">  1       -2 0.22662967E+00 0.15773124E+04</pdfrwt>
<totfact> 0.64456852E+00</totfact>
</mgrwt>
</event>
<event>
12    1  0.1960998E-007  0.3441155E+04  0.7818608E-02  0.8127879E-01
         -1   -1    0    0    0  501 -0.00000000000E+00  0.00000000000E+00  0.14368513493E+04  0.14368513493E+04  0.00000000000E+00 0.  1.
          1   -1    0    0  501    0  0.00000000000E+00 -0.00000000000E+00 -0.20603293100E+04  0.20603293100E+04  0.00000000000E+00 0. -1.
         23    2    1    2    0    0  0.15238092286E+04 -0.47994906757E+03 -0.40135383423E+03  0.16497391171E+04  0.90601222827E+02 0.  0.
        254    2    1    2    0    0 -0.15238092286E+04  0.47994906757E+03 -0.22212412644E+03  0.18474415421E+04  0.90075271377E+03 0.  0.
        -24    2    4    4    0    0 -0.13987924981E+04  0.54655525979E+03 -0.44789186480E+03  0.15691892369E+04  0.80028956181E+02 0.  0.
         24    2    4    4    0    0 -0.12501673050E+03 -0.66606192222E+02  0.22576773836E+03  0.27825230524E+03  0.79923125182E+02 0.  0.
         11    1    3    3    0    0  0.11554360664E+04 -0.33688312438E+03 -0.33223997293E+03  0.12485616295E+04  0.00000000000E+00 0. -1.
        -11    1    3    3    0    0  0.36837316218E+03 -0.14306594319E+03 -0.69113861291E+02  0.40117748757E+03  0.00000000000E+00 0.  1.
          4    1    6    6  502    0 -0.47180879721E+02 -0.29249698522E+02  0.27389862677E+02  0.61901412361E+02  0.00000000000E+00 0. -1.
          3    1    5    5  503    0 -0.72822430338E+01 -0.26414137318E+01 -0.41957353439E+01  0.88097857626E+01  0.00000000000E+00 0. -1.
         -4    1    5    5    0  503 -0.13915102551E+04  0.54919667352E+03 -0.44369612946E+03  0.15603794511E+04  0.00000000000E+00 0.  1.
         -3    1    6    6    0  502 -0.77835850781E+02 -0.37356493700E+02  0.19837787568E+03  0.21635089288E+03  0.00000000000E+00 0.  1.
<mgrwt>
<rscale>  0 0.34411550E+04</rscale>
<asrwt>0</asrwt>
<pdfrwt beam="1">  1        1 0.31697374E+00 0.34411550E+04</pdfrwt>
<pdfrwt beam="2">  1       -1 0.22105406E+00 0.34411550E+04</pdfrwt>
<totfact> 0.24073893E-01</totfact>
</mgrwt>
</event>
<event>
12    1  0.1960998E-007  0.3060991E+04  0.7818608E-02  0.8226526E-01
          1   -1    0    0  501    0  0.00000000000E+00  0.00000000000E+00  0.15977977716E+04  0.15977977716E+04  0.00000000000E+00 0. -1.
         -1   -1    0    0    0  501 -0.00000000000E+00 -0.00000000000E+00 -0.14660282976E+04  0.14660282976E+04  0.00000000000E+00 0.  1.
         23    2    1    2    0    0  0.79755901707E+03  0.11257697134E+04  0.27837576942E+03  0.14102047392E+04  0.87900536314E+02 0.  0.
        254    2    1    2    0    0 -0.79755901707E+03 -0.11257697134E+04 -0.14660629545E+03  0.16536213300E+04  0.89972899464E+03 0.  0.
        -24    2    4    4    0    0 -0.30814827970E+03 -0.10934895017E+04 -0.14007661668E+02  0.11389453905E+04  0.79534491389E+02 0.  0.
         24    2    4    4    0    0 -0.48941073737E+03 -0.32280211647E+02 -0.13259863378E+03  0.51467593945E+03  0.82122122764E+02 0.  0.
         11    1    3    3    0    0  0.19605284634E+03  0.22395038633E+03  0.40338102924E+02  0.30036254201E+03  0.00000000000E+00 0.  1.
        -11    1    3    3    0    0  0.60150617073E+03  0.90181932705E+03  0.23803766649E+03  0.11098421972E+04  0.00000000000E+00 0. -1.
          2    1    6    6  502    0 -0.11924905798E+03 -0.43096746369E+02 -0.39952118073E+02  0.13294299197E+03  0.00000000000E+00 0. -1.
          3    1    5    5  503    0 -0.10007822869E+03 -0.49997548468E+03 -0.10819233425E+02  0.51000803224E+03  0.00000000000E+00 0. -1.
         -4    1    5    5    0  503 -0.20807005100E+03 -0.59351401706E+03 -0.31884282428E+01  0.62893735828E+03  0.00000000000E+00 0.  1.
         -1    1    6    6    0  502 -0.37016167939E+03  0.10816534723E+02 -0.92646515709E+02  0.38173294747E+03  0.00000000000E+00 0.  1.
<mgrwt>
<rscale>  0 0.30609912E+04</rscale>
<asrwt>0</asrwt>
<pdfrwt beam="1">  1        1 0.24581504E+00 0.30609912E+04</pdfrwt>
<pdfrwt beam="2">  1       -1 0.22554282E+00 0.30609912E+04</pdfrwt>
<totfact> 0.47910665E-01</totfact>
</mgrwt>
</event>
<event>
12    1  0.1960998E-007  0.1424218E+04  0.7818608E-02  0.8936472E-01
         -1   -1    0    0    0  501 -0.00000000000E+00  0.00000000000E+00  0.46763155740E+03  0.46763155740E+03  0.00000000000E+00 0.  1.
          1   -1    0    0  501    0  0.00000000000E+00 -0.00000000000E+00 -0.10843995730E+04  0.10843995730E+04  0.00000000000E+00 0. -1.
         23    2    1    2    0    0 -0.71857043810E+02 -0.41954320190E+03 -0.18638987235E+03  0.47363056860E+03  0.91677685340E+02 0.  0.
        254    2    1    2    0    0  0.71857043810E+02  0.41954320190E+03 -0.43037814328E+03  0.10784005618E+04  0.89249229269E+03 0.  0.
        -24    2    4    4    0    0  0.19316553753E+03 -0.20535147527E+03 -0.30788565262E+03  0.42523627738E+03  0.80933078656E+02 0.  0.
         24    2    4    4    0    0 -0.12130849372E+03  0.62489467717E+03 -0.12249249066E+03  0.65316428445E+03  0.80062875284E+02 0.  0.
         13    1    3    3    0    0 -0.39403157893E+02 -0.14915067122E+03 -0.11406351970E+03  0.19185676455E+03  0.00000000000E+00 0. -1.
        -13    1    3    3    0    0 -0.32453885917E+02 -0.27039253068E+03 -0.72326352645E+02  0.28177380405E+03  0.00000000000E+00 0.  1.
          4    1    6    6  502    0 -0.59127345104E+02  0.13031225894E+03 -0.27688126450E+02  0.14575307926E+03  0.00000000000E+00 0. -1.
          3    1    5    5  503    0  0.14464815505E+03 -0.95844259074E+02 -0.18451493311E+03  0.25328831654E+03  0.00000000000E+00 0. -1.
         -4    1    5    5    0  503  0.48517382485E+02 -0.10950721620E+03 -0.12337071951E+03  0.17194796084E+03  0.00000000000E+00 0.  1.
         -3    1    6    6    0  502 -0.62181148619E+02  0.49458241824E+03 -0.94804364208E+02  0.50741120518E+03  0.00000000000E+00 0.  1.
<mgrwt>
<rscale>  0 0.14242183E+04</rscale>
<asrwt>0</asrwt>
<pdfrwt beam="1">  1        1 0.16683070E+00 0.14242183E+04</pdfrwt>
<pdfrwt beam="2">  1       -1 0.71943318E-01 0.14242183E+04</pdfrwt>
<totfact> 0.24724658E+01</totfact>
</mgrwt>
</event>
<event>
12    1  0.1960998E-007  0.2012772E+04  0.7818608E-02  0.8600673E-01
          2   -1    0    0  501    0  0.00000000000E+00  0.00000000000E+00  0.37227581475E+04  0.37227581475E+04  0.00000000000E+00 0. -1.
         -2   -1    0    0    0  501 -0.00000000000E+00 -0.00000000000E+00 -0.27205971734E+03  0.27205971734E+03  0.00000000000E+00 0.  1.
         23    2    1    2    0    0 -0.51328962747E+03  0.50281856547E+03  0.20943732312E+04  0.22160103628E+04  0.89498297535E+02 0.  0.
        254    2    1    2    0    0  0.51328962747E+03 -0.50281856547E+03  0.13563251990E+04  0.17788075020E+04  0.89902465614E+03 0.  0.
        -24    2    4    4    0    0  0.69447549696E+03 -0.55050414282E+03  0.83881925015E+03  0.12228213692E+04  0.79519428341E+02 0.  0.
         24    2    4    4    0    0 -0.18118586949E+03  0.47685577354E+02  0.51750594880E+03  0.55598613275E+03  0.78777783499E+02 0.  0.
         11    1    3    3    0    0 -0.39654255145E+03  0.33730694395E+03  0.14556946869E+04  0.15459847965E+04  0.00000000000E+00 0. -1.
        -11    1    3    3    0    0 -0.11674707602E+03  0.16551162152E+03  0.63867854427E+03  0.67002556632E+03  0.00000000000E+00 0.  1.
          4    1    6    6  502    0 -0.42266447978E+02 -0.95631280877E+01  0.57094716538E+02  0.71677839672E+02  0.00000000000E+00 0. -1.
          3    1    5    5  503    0  0.41190901733E+03 -0.29821497981E+03  0.43574616037E+03  0.66968345434E+03  0.00000000000E+00 0. -1.
         -4    1    5    5    0  503  0.28256647963E+03 -0.25228916301E+03  0.40307308978E+03  0.55313791489E+03  0.00000000000E+00 0.  1.
         -3    1    6    6    0  502 -0.13891942151E+03  0.57248705442E+02  0.46041123226E+03  0.48430829308E+03  0.00000000000E+00 0.  1.
<mgrwt>
<rscale>  0 0.20127717E+04</rscale>
<asrwt>0</asrwt>
<pdfrwt beam="1">  1        2 0.57273199E+00 0.20127717E+04</pdfrwt>
<pdfrwt beam="2">  1       -2 0.41855344E-01 0.20127717E+04</pdfrwt>
<totfact> 0.28397087E+00</totfact>
</mgrwt>
</event>
<event>
12    1  0.1960998E-007  0.1597156E+04  0.7818608E-02  0.8822297E-01
         -1   -1    0    0    0  501 -0.00000000000E+00  0.00000000000E+00  0.31212575787E+03  0.31212575787E+03  0.00000000000E+00 0.  1.
          1   -1    0    0  501    0  0.00000000000E+00 -0.00000000000E+00 -0.20431714167E+04  0.20431714167E+04  0.00000000000E+00 0. -1.
         23    2    1    2    0    0  0.33032293207E+03 -0.29684508759E+03 -0.14548768747E+03  0.47761767484E+03  0.98598836894E+02 0.  0.
        254    2    1    2    0    0 -0.33032293207E+03  0.29684508759E+03 -0.15855579714E+04  0.18776794998E+04  0.90247214789E+03 0.  0.
        -24    2    4    4    0    0 -0.52193818165E+03 -0.85890578387E+02 -0.62647264330E+03  0.82438029687E+03  0.85663552019E+02 0.  0.
         24    2    4    4    0    0  0.19161524959E+03  0.38273566597E+03 -0.95908532810E+03  0.10532992029E+04  0.79947172355E+02 0.  0.
         13    1    3    3    0    0  0.43602138682E+02 -0.57143844481E+02  0.10518380869E+02  0.72644351438E+02  0.00000000000E+00 0.  1.
        -13    1    3    3    0    0  0.28672079338E+03 -0.23970124311E+03 -0.15600606834E+03  0.40497332340E+03  0.00000000000E+00 0. -1.
          2    1    6    6  502    0  0.19510251059E+03  0.35115453848E+03 -0.91132535219E+03  0.99593594024E+03  0.00000000000E+00 0. -1.
          3    1    5    5  503    0 -0.18229860594E+03 -0.71360609667E+02 -0.23776641701E+03  0.30799023913E+03  0.00000000000E+00 0. -1.
         -4    1    5    5    0  503 -0.33963957571E+03 -0.14529968720E+02 -0.38870622629E+03  0.51639005774E+03  0.00000000000E+00 0.  1.
         -1    1    6    6    0  502 -0.34872610007E+01  0.31581127495E+02 -0.47759975916E+02  0.57363262657E+02  0.00000000000E+00 0.  1.
<mgrwt>
<rscale>  0 0.15971555E+04</rscale>
<asrwt>0</asrwt>
<pdfrwt beam="1">  1        1 0.31433407E+00 0.15971555E+04</pdfrwt>
<pdfrwt beam="2">  1       -1 0.48019346E-01 0.15971555E+04</pdfrwt>
<totfact> 0.11593078E+01</totfact>
</mgrwt>
</event>
<event>
12    1  0.1960998E-007  0.2133604E+04  0.7818608E-02  0.8546583E-01
         -2   -1    0    0    0  501 -0.00000000000E+00  0.00000000000E+00  0.33890560446E+03  0.33890560446E+03  0.00000000000E+00 0.  1.
          2   -1    0    0  501    0  0.00000000000E+00 -0.00000000000E+00 -0.33580643730E+04  0.33580643730E+04  0.00000000000E+00 0. -1.
         23    2    1    2    0    0 -0.81768171779E+03 -0.30893910622E+03 -0.13853978436E+04  0.16403272356E+04  0.85437063046E+02 0.  0.
        254    2    1    2    0    0  0.81768171779E+03  0.30893910622E+03 -0.16337609249E+04  0.20566427419E+04  0.89250089354E+03 0.  0.
        -24    2    4    4    0    0  0.86857490562E+03  0.32669931557E+03 -0.83137013021E+03  0.12484781364E+04  0.79790689327E+02 0.  0.
         24    2    4    4    0    0 -0.50893187830E+02 -0.17760209348E+02 -0.80239079472E+03  0.80816460553E+03  0.79959368232E+02 0.  0.
         13    1    3    3    0    0 -0.49954864353E+03 -0.17691820699E+03 -0.91356875312E+03  0.10561518669E+04  0.00000000000E+00 0. -1.
        -13    1    3    3    0    0 -0.31813307426E+03 -0.13202089923E+03 -0.47182909047E+03  0.58417536870E+03  0.00000000000E+00 0.  1.
          4    1    6    6  502    0 -0.50672558693E+02 -0.10983201450E+02 -0.79882060185E+03  0.80050152583E+03  0.00000000000E+00 0. -1.
          3    1    5    5  503    0  0.82554995219E+03  0.32458843447E+03 -0.77809938268E+03  0.11799699253E+04  0.00000000000E+00 0. -1.
         -4    1    5    5    0  503  0.43024953431E+02  0.21108810997E+01 -0.53270747531E+02  0.68508211035E+02  0.00000000000E+00 0.  1.
         -3    1    6    6    0  502 -0.22062913734E+00 -0.67770078975E+01 -0.35701928702E+01  0.76630796935E+01  0.00000000000E+00 0.  1.
<mgrwt>
<rscale>  0 0.21336043E+04</rscale>
<asrwt>0</asrwt>
<pdfrwt beam="1">  1        2 0.51662527E+00 0.21336043E+04</pdfrwt>
<pdfrwt beam="2">  1       -2 0.52139326E-01 0.21336043E+04</pdfrwt>
<totfact> 0.32599902E+00</totfact>
</mgrwt>
</event>
<event>
12    1  0.1960998E-007  0.2584820E+04  0.7818608E-02  0.8373376E-01
          2   -1    0    0  501    0  0.00000000000E+00  0.00000000000E+00  0.11568540460E+04  0.11568540460E+04  0.00000000000E+00 0. -1.
         -2   -1    0    0    0  501 -0.00000000000E+00 -0.00000000000E+00 -0.14438501519E+04  0.14438501519E+04  0.00000000000E+00 0.  1.
         23    2    1    2    0    0 -0.20819286359E+03  0.10661634512E+04  0.20363217198E+03  0.11090011859E+04  0.91481122307E+02 0.  0.
        254    2    1    2    0    0  0.20819286359E+03 -0.10661634512E+04 -0.49062827795E+03  0.14917030120E+04  0.89689073798E+03 0.  0.
        -24    2    4    4    0    0  0.53534162007E+03 -0.82869207132E+03 -0.28246330536E+03  0.10292645191E+04  0.79238451026E+02 0.  0.
         24    2    4    4    0    0 -0.32714875648E+03 -0.23747137986E+03 -0.20816497259E+03  0.46243849294E+03  0.84248079015E+02 0.  0.
         13    1    3    3    0    0 -0.16150689872E+03  0.96816147628E+03  0.18011799233E+03  0.99792966368E+03  0.00000000000E+00 0. -1.
        -13    1    3    3    0    0 -0.46685964866E+02  0.98001974898E+02  0.23514179656E+02  0.11107152220E+03  0.00000000000E+00 0.  1.
          2    1    6    6  502    0 -0.24971890969E+03 -0.14694313623E+03 -0.17614458090E+03  0.33908514052E+03  0.00000000000E+00 0. -1.
          3    1    5    5  503    0  0.39061067950E+03 -0.53659425847E+03 -0.18455513378E+03  0.68889091920E+03  0.00000000000E+00 0. -1.
         -4    1    5    5    0  503  0.14473094057E+03 -0.29209781286E+03 -0.97908171577E+02  0.34037359988E+03  0.00000000000E+00 0.  1.
         -1    1    6    6    0  502 -0.77429846792E+02 -0.90528243627E+02 -0.32020391693E+02  0.12335335242E+03  0.00000000000E+00 0.  1.
<mgrwt>
<rscale>  0 0.25848202E+04</rscale>
<asrwt>0</asrwt>
<pdfrwt beam="1">  1        2 0.17797755E+00 0.25848202E+04</pdfrwt>
<pdfrwt beam="2">  1       -2 0.22213079E+00 0.25848202E+04</pdfrwt>
<totfact> 0.17063116E+00</totfact>
</mgrwt>
</event>
<event>
12    1  0.1960998E-007  0.3167001E+04  0.7818608E-02  0.8197587E-01
          2   -1    0    0  501    0  0.00000000000E+00  0.00000000000E+00  0.20645299878E+04  0.20645299878E+04  0.00000000000E+00 0. -1.
         -2   -1    0    0    0  501 -0.00000000000E+00 -0.00000000000E+00 -0.12145491538E+04  0.12145491538E+04  0.00000000000E+00 0.  1.
         23    2    1    2    0    0  0.86167923474E+03 -0.49686012591E+03 -0.70866267819E+03  0.12231857275E+04  0.67966493905E+02 0.  0.
        254    2    1    2    0    0 -0.86167923474E+03  0.49686012591E+03  0.15586435122E+04  0.20558934141E+04  0.89886987027E+03 0.  0.
        -24    2    4    4    0    0  0.17495038829E+03  0.16951476032E+02  0.18768374509E+03  0.26928777647E+03  0.79973292296E+02 0.  0.
         24    2    4    4    0    0 -0.10366296230E+04  0.47990864987E+03  0.13709597671E+04  0.17866056376E+04  0.86693331876E+02 0.  0.
         13    1    3    3    0    0  0.42794773634E+03 -0.21131987972E+03 -0.32162673659E+03  0.57553376468E+03  0.00000000000E+00 0. -1.
        -13    1    3    3    0    0  0.43373149841E+03 -0.28554024618E+03 -0.38703594160E+03  0.64765196286E+03  0.00000000000E+00 0.  1.
          4    1    6    6  502    0 -0.68513548120E+03  0.35806526712E+03  0.89964822130E+03  0.11861653701E+04  0.00000000000E+00 0. -1.
          1    1    5    5  503    0  0.11220373970E+03  0.31182945219E+02  0.16310450790E+03  0.20041241422E+03  0.00000000000E+00 0. -1.
         -2    1    5    5    0  503  0.62746648587E+02 -0.14231469188E+02  0.24579237197E+02  0.68875362252E+02  0.00000000000E+00 0.  1.
         -3    1    6    6    0  502 -0.35149414184E+03  0.12184338276E+03  0.47131154582E+03  0.60044026754E+03  0.00000000000E+00 0.  1.
<mgrwt>
<rscale>  0 0.31670006E+04</rscale>
<asrwt>0</asrwt>
<pdfrwt beam="1">  1        2 0.31762000E+00 0.31670006E+04</pdfrwt>
<pdfrwt beam="2">  1       -2 0.18685372E+00 0.31670006E+04</pdfrwt>
<totfact> 0.84526891E-01</totfact>
</mgrwt>
</event>
<event>
12    1  0.1960998E-007  0.1360102E+04  0.7818608E-02  0.8983216E-01
          2   -1    0    0  501    0  0.00000000000E+00  0.00000000000E+00  0.19237683908E+04  0.19237683908E+04  0.00000000000E+00 0. -1.
         -2   -1    0    0    0  501 -0.00000000000E+00 -0.00000000000E+00 -0.24039748987E+03  0.24039748987E+03  0.00000000000E+00 0.  1.
         23    2    1    2    0    0  0.29113421871E+03 -0.44774886608E+02  0.81357281993E+03  0.86992903787E+03  0.90065941522E+02 0.  0.
        254    2    1    2    0    0 -0.29113421871E+03  0.44774886608E+02  0.86979808103E+03  0.12942368428E+04  0.91199582227E+03 0.  0.
        -24    2    4    4    0    0 -0.30925072515E+03  0.37310120043E+03  0.81521826410E+03  0.95168852508E+03  0.79307716348E+02 0.  0.
         24    2    4    4    0    0  0.18116506441E+02 -0.32832631383E+03  0.54579816930E+02  0.34254831776E+03  0.78955794145E+02 0.  0.
         11    1    3    3    0    0  0.98890578466E+02  0.60334668081E+01  0.17482817890E+03  0.20094935025E+03  0.00000000000E+00 0.  1.
        -11    1    3    3    0    0  0.19224364024E+03 -0.50808353416E+02  0.63874464104E+03  0.66897968762E+03  0.00000000000E+00 0. -1.
          2    1    6    6  502    0 -0.72462800121E+01 -0.29899431984E+03  0.52981593638E+02  0.30373863952E+03  0.00000000000E+00 0. -1.
          1    1    5    5  503    0 -0.98255885606E+02  0.16930441129E+03  0.28536143684E+03  0.34604819371E+03  0.00000000000E+00 0. -1.
         -2    1    5    5    0  503 -0.21099483954E+03  0.20379678915E+03  0.52985682727E+03  0.60564033137E+03  0.00000000000E+00 0.  1.
         -1    1    6    6    0  502  0.25362786453E+02 -0.29331993986E+02  0.15982232922E+01  0.38809678246E+02  0.00000000000E+00 0.  1.
<mgrwt>
<rscale>  0 0.13601016E+04</rscale>
<asrwt>0</asrwt>
<pdfrwt beam="1">  1        2 0.29596436E+00 0.13601016E+04</pdfrwt>
<pdfrwt beam="2">  1       -2 0.36984230E-01 0.13601016E+04</pdfrwt>
<totfact> 0.49555212E+01</totfact>
</mgrwt>
</event>
<event>
12    1  0.1960998E-007  0.1887751E+04  0.7818608E-02  0.8660978E-01
         -2   -1    0    0    0  501 -0.00000000000E+00  0.00000000000E+00  0.76014606470E+03  0.76014606470E+03  0.00000000000E+00 0.  1.
          2   -1    0    0  501    0  0.00000000000E+00 -0.00000000000E+00 -0.11720123416E+04  0.11720123416E+04  0.00000000000E+00 0. -1.
         23    2    1    2    0    0 -0.51404567038E+03 -0.48228645580E+03  0.17873078119E+02  0.71082932029E+03  0.90087174287E+02 0.  0.
        254    2    1    2    0    0  0.51404567038E+03  0.48228645580E+03 -0.42973935499E+03  0.12213290860E+04  0.90006980082E+03 0.  0.
        -24    2    4    4    0    0  0.64081266367E+03  0.61594597628E+03 -0.48177222395E+03  0.10140428936E+04  0.78410450397E+02 0.  0.
         24    2    4    4    0    0 -0.12676699329E+03 -0.13365952047E+03  0.52032868960E+02  0.20728619235E+03  0.79532434169E+02 0.  0.
         13    1    3    3    0    0 -0.40177754342E+02 -0.59997836762E+02 -0.20142732379E+02  0.74964805261E+02  0.00000000000E+00 0. -1.
        -13    1    3    3    0    0 -0.47386791604E+03 -0.42228861904E+03  0.38015810499E+02  0.63586451503E+03  0.00000000000E+00 0.  1.
          2    1    6    6  502    0 -0.10671330851E+03 -0.11017594488E+03  0.81147280481E+01  0.15359790967E+03  0.00000000000E+00 0. -1.
          1    1    5    5  503    0  0.35005672022E+03  0.36966176269E+03 -0.24066707597E+03  0.56312535693E+03  0.00000000000E+00 0. -1.
         -2    1    5    5    0  503  0.29075594345E+03  0.24628421359E+03 -0.24110514798E+03  0.45091753670E+03  0.00000000000E+00 0.  1.
         -1    1    6    6    0  502 -0.20053684779E+02 -0.23483575598E+02  0.43918140912E+02  0.53688282681E+02  0.00000000000E+00 0.  1.
<mgrwt>
<rscale>  0 0.18877506E+04</rscale>
<asrwt>0</asrwt>
<pdfrwt beam="1">  1        2 0.18030959E+00 0.18877506E+04</pdfrwt>
<pdfrwt beam="2">  1       -2 0.11694555E+00 0.18877506E+04</pdfrwt>
<totfact> 0.10447413E+01</totfact>
</mgrwt>
</event>
<event>
12    1  0.1960998E-007  0.1065369E+04  0.7818608E-02  0.9239619E-01
         -2   -1    0    0    0  501 -0.00000000000E+00  0.00000000000E+00  0.15054050030E+03  0.15054050030E+03  0.00000000000E+00 0. -1.
          2   -1    0    0  501    0  0.00000000000E+00 -0.00000000000E+00 -0.18848928901E+04  0.18848928901E+04  0.00000000000E+00 0.  1.
         23    2    1    2    0    0 -0.31401432405E+02  0.39273063637E+02 -0.48439380828E+02  0.11544542375E+03  0.91939375495E+02 0.  0.
        254    2    1    2    0    0  0.31401432405E+02 -0.39273063637E+02 -0.16859130090E+04  0.19199879667E+04  0.91734546099E+03 0.  0.
        -24    2    4    4    0    0 -0.38197050607E+03  0.11046499930E+03 -0.44855023458E+03  0.60435362197E+03  0.77084394465E+02 0.  0.
         24    2    4    4    0    0  0.41337193847E+03 -0.14973806294E+03 -0.12373627744E+04  0.13156343447E+04  0.80803752727E+02 0.  0.
         13    1    3    3    0    0 -0.59650253658E+02  0.64270989372E+01 -0.18496303948E+02  0.62781952996E+02  0.00000000000E+00 0. -1.
        -13    1    3    3    0    0  0.28248821254E+02  0.32845964700E+02 -0.29943076880E+02  0.52663470758E+02  0.00000000000E+00 0.  1.
          2    1    6    6  502    0  0.41248771858E+03 -0.14005013927E+03 -0.11886032862E+04  0.12659138720E+04  0.00000000000E+00 0. -1.
          1    1    5    5  503    0 -0.15731851036E+03  0.36445127076E+02 -0.12843529962E+03  0.20633222525E+03  0.00000000000E+00 0. -1.
         -2    1    5    5    0  503 -0.22465199571E+03  0.74019872227E+02 -0.32011493497E+03  0.39802139672E+03  0.00000000000E+00 0.  1.
         -3    1    6    6    0  502  0.88421989342E+00 -0.96879236689E+01 -0.48759488262E+02  0.49720472699E+02  0.00000000000E+00 0.  1.
<mgrwt>
<rscale>  0 0.10653689E+04</rscale>
<asrwt>0</asrwt>
<pdfrwt beam="1">  1        2 0.28998351E+00 0.10653689E+04</pdfrwt>
<pdfrwt beam="2">  1       -2 0.23160078E-01 0.10653689E+04</pdfrwt>
<totfact> 0.12702822E+02</totfact>
</mgrwt>
</event>
<event>
12    1  0.1960998E-007  0.3277589E+04  0.7818608E-02  0.8168621E-01
         -1   -1    0    0    0  501 -0.00000000000E+00  0.00000000000E+00  0.12806273806E+04  0.12806273806E+04  0.00000000000E+00 0.  1.
          1   -1    0    0  501    0  0.00000000000E+00 -0.00000000000E+00 -0.20971341292E+04  0.20971341292E+04  0.00000000000E+00 0. -1.
         23    2    1    2    0    0  0.56666378588E+03 -0.85776131864E+03 -0.15238540087E+04  0.18402264306E+04  0.86255145376E+02 0.  0.
        254    2    1    2    0    0 -0.56666378588E+03  0.85776131864E+03  0.70734726004E+03  0.15375350792E+04  0.89822694654E+03 0.  0.
        -24    2    4    4    0    0 -0.24553113029E+03  0.18099402866E+02 -0.14482027560E+03  0.29632495596E+03  0.78882463016E+02 0.  0.
         24    2    4    4    0    0 -0.32113265558E+03  0.83966191577E+03  0.85216753564E+03  0.12412101232E+04  0.79086951839E+02 0.  0.
         11    1    3    3    0    0  0.20724784237E+03 -0.34629446517E+03 -0.53081006634E+03  0.66680645715E+03  0.00000000000E+00 0.  1.
        -11    1    3    3    0    0  0.35941594351E+03 -0.51146685347E+03 -0.99304394238E+03  0.11734199735E+04  0.00000000000E+00 0. -1.
          2    1    6    6  502    0 -0.86526560520E+02  0.32424687839E+03  0.33831594288E+03  0.47652970635E+03  0.00000000000E+00 0. -1.
          3    1    5    5  503    0 -0.25047172325E+03  0.23047635185E+02 -0.14065389471E+03  0.28818534961E+03  0.00000000000E+00 0. -1.
         -4    1    5    5    0  503  0.49405929507E+01 -0.49482323192E+01 -0.41663808820E+01  0.81396063445E+01  0.00000000000E+00 0.  1.
         -1    1    6    6    0  502 -0.23460609506E+03  0.51541503738E+03  0.51385159276E+03  0.76468041689E+03  0.00000000000E+00 0.  1.
<mgrwt>
<rscale>  0 0.32775890E+04</rscale>
<asrwt>0</asrwt>
<pdfrwt beam="1">  1        1 0.32263602E+00 0.32775890E+04</pdfrwt>
<pdfrwt beam="2">  1       -1 0.19701960E+00 0.32775890E+04</pdfrwt>
<totfact> 0.33582586E-01</totfact>
</mgrwt>
</event>
<event>
12    1  0.1960998E-007  0.2020758E+04  0.7818608E-02  0.8596977E-01
         -2   -1    0    0    0  501 -0.00000000000E+00  0.00000000000E+00  0.29883333822E+03  0.29883333822E+03  0.00000000000E+00 0.  1.
          2   -1    0    0  501    0  0.00000000000E+00 -0.00000000000E+00 -0.34161696945E+04  0.34161696945E+04  0.00000000000E+00 0. -1.
         23    2    1    2    0    0 -0.14501992043E+03  0.28041102633E+03 -0.26167986658E+04  0.26373368285E+04  0.90824933635E+02 0.  0.
        254    2    1    2    0    0  0.14501992043E+03 -0.28041102633E+03 -0.50053769044E+03  0.10776662042E+04  0.90064718237E+03 0.  0.
        -24    2    4    4    0    0  0.50145545578E+03 -0.21126054023E+03 -0.43505804338E+03  0.70133139631E+03  0.80632725039E+02 0.  0.
         24    2    4    4    0    0 -0.35643553535E+03 -0.69150486092E+02 -0.65479647063E+02  0.37633480789E+03  0.74244345677E+02 0.  0.
         11    1    3    3    0    0 -0.10980229835E+03  0.12457548516E+03 -0.11654271654E+04  0.11771984004E+04  0.00000000000E+00 0.  1.
        -11    1    3    3    0    0 -0.35217622078E+02  0.15583554117E+03 -0.14513715005E+04  0.14601384281E+04  0.00000000000E+00 0. -1.
          4    1    6    6  502    0 -0.60180496416E+00 -0.31094249816E+01 -0.96338819326E+01  0.10141122917E+02  0.00000000000E+00 0. -1.
          1    1    5    5  503    0  0.15639352724E+03 -0.10092819129E+03 -0.17400953149E+03  0.25480335988E+03  0.00000000000E+00 0. -1.
         -2    1    5    5    0  503  0.34506192854E+03 -0.11033234894E+03 -0.26104851189E+03  0.44652803642E+03  0.00000000000E+00 0.  1.
         -3    1    6    6    0  502 -0.35583373038E+03 -0.66041061111E+02 -0.55845765130E+02  0.36619368497E+03  0.00000000000E+00 0.  1.
<mgrwt>
<rscale>  0 0.20207577E+04</rscale>
<asrwt>0</asrwt>
<pdfrwt beam="1">  1        2 0.52556459E+00 0.20207577E+04</pdfrwt>
<pdfrwt beam="2">  1       -2 0.45974358E-01 0.20207577E+04</pdfrwt>
<totfact> 0.38856193E+00</totfact>
</mgrwt>
</event>
<event>
12    1  0.1960998E-007  0.3093725E+04  0.7818608E-02  0.8217462E-01
         -2   -1    0    0    0  501 -0.00000000000E+00  0.00000000000E+00  0.80368064630E+03  0.80368064630E+03  0.00000000000E+00 0.  1.
          2   -1    0    0  501    0  0.00000000000E+00 -0.00000000000E+00 -0.29772808545E+04  0.29772808545E+04  0.00000000000E+00 0. -1.
         23    2    1    2    0    0  0.14018004180E+04 -0.99762549228E+02 -0.11823575081E+04  0.18388621452E+04  0.91911555050E+02 0.  0.
        254    2    1    2    0    0 -0.14018004180E+04  0.99762549228E+02 -0.99124270009E+03  0.19420993555E+04  0.90232523965E+03 0.  0.
        -24    2    4    4    0    0  0.11879965472E+03  0.22108787404E+02 -0.75728110794E+02  0.16368683633E+03  0.80352207058E+02 0.  0.
         24    2    4    4    0    0 -0.15206000728E+04  0.77653761825E+02 -0.91551458930E+03  0.17784125192E+04  0.79557760807E+02 0.  0.
         13    1    3    3    0    0  0.50166652442E+03  0.83042603254E+01 -0.42532791556E+03  0.65775534830E+03  0.00000000000E+00 0. -1.
        -13    1    3    3    0    0  0.90013389362E+03 -0.10806680955E+03 -0.75702959252E+03  0.11811067969E+04  0.00000000000E+00 0.  1.
          4    1    6    6  502    0 -0.87600489547E+03  0.17410644023E+02 -0.55942720275E+03  0.10395414867E+04  0.00000000000E+00 0. -1.
          3    1    5    5  503    0  0.31049961908E+02  0.44537449084E+02 -0.23740740051E+02  0.59256284423E+02  0.00000000000E+00 0. -1.
         -4    1    5    5    0  503  0.87749692816E+02 -0.22428661681E+02 -0.51987370742E+02  0.10443055190E+03  0.00000000000E+00 0.  1.
         -3    1    6    6    0  502 -0.64459517729E+03  0.60243117801E+02 -0.35608738654E+03  0.73887103251E+03  0.00000000000E+00 0.  1.
<mgrwt>
<rscale>  0 0.30937246E+04</rscale>
<asrwt>0</asrwt>
<pdfrwt beam="1">  1        2 0.45804321E+00 0.30937246E+04</pdfrwt>
<pdfrwt beam="2">  1       -2 0.12364318E+00 0.30937246E+04</pdfrwt>
<totfact> 0.75263644E-01</totfact>
</mgrwt>
</event>
<event>
12    1  0.1960998E-007  0.1721978E+04  0.7818608E-02  0.8748928E-01
          1   -1    0    0  501    0  0.00000000000E+00  0.00000000000E+00  0.19428795431E+04  0.19428795431E+04  0.00000000000E+00 0. -1.
         -1   -1    0    0    0  501 -0.00000000000E+00 -0.00000000000E+00 -0.38154810102E+03  0.38154810102E+03  0.00000000000E+00 0.  1.
         23    2    1    2    0    0 -0.13341823287E+03 -0.19080443031E+03  0.13453840900E+04  0.13683961992E+04  0.90791260002E+02 0.  0.
        254    2    1    2    0    0  0.13341823287E+03  0.19080443031E+03  0.21594735213E+03  0.95603144496E+03  0.90175168942E+03 0.  0.
        -24    2    4    4    0    0  0.28930204044E+03  0.49479492296E+03  0.14544562300E+03  0.59666900049E+03  0.79635296846E+02 0.  0.
         24    2    4    4    0    0 -0.15588380757E+03 -0.30399049265E+03  0.70501729124E+02  0.35936244447E+03  0.86376452828E+02 0.  0.
         13    1    3    3    0    0 -0.33381859113E+02 -0.74427652724E+02  0.26804740430E+03  0.28018428749E+03  0.00000000000E+00 0.  1.
        -13    1    3    3    0    0 -0.10003637375E+03 -0.11637677759E+03  0.10773366857E+04  0.10882119117E+04  0.00000000000E+00 0. -1.
          4    1    6    6  502    0 -0.16206700266E+03 -0.25450556637E+03  0.68761611847E+02  0.30946236593E+03  0.00000000000E+00 0. -1.
          3    1    5    5  503    0  0.24506364059E+03  0.38794280689E+03  0.14429157532E+03  0.48101545512E+03  0.00000000000E+00 0. -1.
         -4    1    5    5    0  503  0.44238399852E+02  0.10685211607E+03  0.11540476808E+01  0.11565354537E+03  0.00000000000E+00 0.  1.
         -3    1    6    6    0  502  0.61831950844E+01 -0.49484926280E+02  0.17401172767E+01  0.49900078542E+02  0.00000000000E+00 0.  1.
<mgrwt>
<rscale>  0 0.17219779E+04</rscale>
<asrwt>0</asrwt>
<pdfrwt beam="1">  1        1 0.29890454E+00 0.17219779E+04</pdfrwt>
<pdfrwt beam="2">  1       -1 0.58699709E-01 0.17219779E+04</pdfrwt>
<totfact> 0.91043007E+00</totfact>
</mgrwt>
</event>
<event>
12    1  0.1991019E-007  0.2446191E+04  0.7818608E-02  0.8422410E-01
          2   -1    0    0  501    0  0.00000000000E+00  0.00000000000E+00  0.34795702159E+04  0.34795702159E+04  0.00000000000E+00 0.  1.
         -2   -1    0    0    0  501 -0.00000000000E+00 -0.00000000000E+00 -0.42992756140E+03  0.42992756140E+03  0.00000000000E+00 0. -1.
         23    2    1    2    0    0 -0.27144613840E+03  0.10015632372E+04  0.10108894719E+04  0.14514721239E+04  0.89787960359E+02 0.  0.
        254    2    1    2    0    0  0.27144613840E+03 -0.10015632372E+04  0.20387531826E+04  0.24580256535E+04  0.89920167334E+03 0.  0.
        -24    2    4    4    0    0 -0.27107051373E+03 -0.45247694483E+03  0.12151690916E+04  0.13265499936E+04  0.69888163142E+02 0.  0.
         24    2    4    4    0    0  0.54251665213E+03 -0.54908629235E+03  0.82358409098E+03  0.11314756598E+04  0.78270936938E+02 0.  0.
         13    1    3    3    0    0 -0.17263617775E+03  0.47568703164E+03  0.47005760720E+03  0.69067760643E+03  0.00000000000E+00 0.  1.
        -13    1    3    3    0    0 -0.98809960654E+02  0.52587620554E+03  0.54083186473E+03  0.76079451745E+03  0.00000000000E+00 0. -1.
          4    1    6    6  502    0  0.50881367899E+03 -0.53768392304E+03  0.78669470720E+03  0.10802240154E+04  0.00000000000E+00 0. -1.
          3    1    5    5  503    0 -0.22182723025E+03 -0.36340662886E+03  0.10429365007E+04  0.11264937827E+04  0.00000000000E+00 0. -1.
         -4    1    5    5    0  503 -0.49243283479E+02 -0.89070315967E+02  0.17223259096E+03  0.20005621096E+03  0.00000000000E+00 0.  1.
         -3    1    6    6    0  502  0.33702973145E+02 -0.11402369311E+02  0.36889383774E+02  0.51251644461E+02  0.00000000000E+00 0.  1.
<mgrwt>
<rscale>  0 0.24461914E+04</rscale>
<asrwt>0</asrwt>
<pdfrwt beam="1">  1        2 0.53531848E+00 0.24461914E+04</pdfrwt>
<pdfrwt beam="2">  1       -2 0.66142704E-01 0.24461914E+04</pdfrwt>
<totfact> 0.15849974E+00</totfact>
</mgrwt>
</event>
<event>
12    1  0.1960998E-007  0.2346802E+04  0.7818608E-02  0.8459693E-01
          1   -1    0    0  501    0  0.00000000000E+00  0.00000000000E+00  0.32383094176E+04  0.32383094176E+04  0.00000000000E+00 0. -1.
         -1   -1    0    0    0  501 -0.00000000000E+00 -0.00000000000E+00 -0.42518171946E+03  0.42518171946E+03  0.00000000000E+00 0.  1.
         23    2    1    2    0    0  0.73834116573E+03 -0.49111513470E+03  0.19059743117E+04  0.21041655381E+04  0.91830182986E+02 0.  0.
        254    2    1    2    0    0 -0.73834116573E+03  0.49111513470E+03  0.90715338645E+03  0.15593255989E+04  0.90676750294E+03 0.  0.
        -24    2    4    4    0    0 -0.60681722203E+03  0.74087104903E+03  0.58384921954E+03  0.11244282565E+04  0.79636302119E+02 0.  0.
         24    2    4    4    0    0 -0.13152394370E+03 -0.24975591433E+03  0.32330416690E+03  0.43489734243E+03  0.70239231245E+02 0.  0.
         11    1    3    3    0    0  0.56558276944E+03 -0.33516459489E+03  0.13557593307E+04  0.15067523146E+04  0.00000000000E+00 0.  1.
        -11    1    3    3    0    0  0.17275839629E+03 -0.15595053981E+03  0.55021498094E+03  0.59741322350E+03  0.00000000000E+00 0. -1.
          2    1    6    6  502    0 -0.39187172324E+02 -0.14960707886E+03  0.17304586962E+03  0.23208357442E+03  0.00000000000E+00 0. -1.
          3    1    5    5  503    0 -0.25139318174E+03  0.24759682516E+03  0.20540011755E+03  0.40827922791E+03  0.00000000000E+00 0. -1.
         -4    1    5    5    0  503 -0.35542404029E+03  0.49327422387E+03  0.37844910200E+03  0.71614902859E+03  0.00000000000E+00 0.  1.
         -1    1    6    6    0  502 -0.92336771377E+02 -0.10014883546E+03  0.15025829728E+03  0.20281376801E+03  0.00000000000E+00 0.  1.
<mgrwt>
<rscale>  0 0.23468021E+04</rscale>
<asrwt>0</asrwt>
<pdfrwt beam="1">  1        1 0.49820143E+00 0.23468021E+04</pdfrwt>
<pdfrwt beam="2">  1       -1 0.65412575E-01 0.23468021E+04</pdfrwt>
<totfact> 0.84917866E-01</totfact>
</mgrwt>
</event>
<event>
12    1  0.1960998E-007  0.1655958E+04  0.7818608E-02  0.8786890E-01
         -2   -1    0    0    0  501 -0.00000000000E+00  0.00000000000E+00  0.61627435700E+03  0.61627435700E+03  0.00000000000E+00 0.  1.
          2   -1    0    0  501    0  0.00000000000E+00 -0.00000000000E+00 -0.11124085904E+04  0.11124085904E+04  0.00000000000E+00 0. -1.
         23    2    1    2    0    0 -0.28316210507E+03  0.50346493403E+03 -0.20101638687E+03  0.61873848435E+03  0.93658991449E+02 0.  0.
        254    2    1    2    0    0  0.28316210507E+03 -0.50346493403E+03 -0.29511784652E+03  0.11099444630E+04  0.90067999321E+03 0.  0.
        -24    2    4    4    0    0  0.37776540050E+03 -0.23345720278E+03 -0.55560067406E+03  0.71563014687E+03  0.78901424219E+02 0.  0.
         24    2    4    4    0    0 -0.94603295429E+02 -0.27000773125E+03  0.26048282754E+03  0.39431431617E+03  0.76016564345E+02 0.  0.
         11    1    3    3    0    0 -0.15362640981E+03  0.35897408568E+03 -0.14798875763E+03  0.41756932402E+03  0.00000000000E+00 0. -1.
        -11    1    3    3    0    0 -0.12953569526E+03  0.14449084835E+03 -0.53027629243E+02  0.20116916033E+03  0.00000000000E+00 0.  1.
          2    1    6    6  502    0 -0.12400202104E+02 -0.80768529747E+02  0.35626401438E+02  0.89143484839E+02  0.00000000000E+00 0. -1.
          1    1    5    5  503    0  0.91110582338E+02 -0.42037216354E+02 -0.80393610357E+02  0.12857448565E+03  0.00000000000E+00 0. -1.
         -2    1    5    5    0  503  0.28665481817E+03 -0.19141998643E+03 -0.47520706371E+03  0.58705566123E+03  0.00000000000E+00 0.  1.
         -1    1    6    6    0  502 -0.82203093325E+02 -0.18923920150E+03  0.22485642610E+03  0.30517083133E+03  0.00000000000E+00 0.  1.
<mgrwt>
<rscale>  0 0.16559576E+04</rscale>
<asrwt>0</asrwt>
<pdfrwt beam="1">  1        2 0.17113978E+00 0.16559576E+04</pdfrwt>
<pdfrwt beam="2">  1       -2 0.94811441E-01 0.16559576E+04</pdfrwt>
<totfact> 0.19141145E+01</totfact>
</mgrwt>
</event>
<event>
12    1  0.1960998E-007  0.2824327E+04  0.7818608E-02  0.8295755E-01
          2   -1    0    0  501    0  0.00000000000E+00  0.00000000000E+00  0.12413050805E+04  0.12413050805E+04  0.00000000000E+00 0. -1.
         -2   -1    0    0    0  501 -0.00000000000E+00 -0.00000000000E+00 -0.16065395744E+04  0.16065395744E+04  0.00000000000E+00 0.  1.
         23    2    1    2    0    0 -0.62743973677E+03  0.10974921083E+04 -0.76841665531E+02  0.12697157945E+04  0.90022253798E+02 0.  0.
        254    2    1    2    0    0  0.62743973677E+03 -0.10974921083E+04 -0.28839282839E+03  0.15781288604E+04  0.89952805714E+03 0.  0.
        -24    2    4    4    0    0  0.56520402080E+02 -0.28764005849E+03  0.29646413253E+03  0.42429374704E+03  0.78758128479E+02 0.  0.
         24    2    4    4    0    0  0.57091933469E+03 -0.80985204983E+03 -0.58485696092E+03  0.11538351134E+04  0.86420916747E+02 0.  0.
         11    1    3    3    0    0 -0.16093288295E+03  0.35141149928E+03 -0.76630697867E+00  0.38651005403E+03  0.00000000000E+00 0.  1.
        -11    1    3    3    0    0 -0.46650685382E+03  0.74608060904E+03 -0.76075358552E+02  0.88320574048E+03  0.00000000000E+00 0. -1.
          2    1    6    6  502    0  0.54232844557E+03 -0.76804524111E+03 -0.53057653160E+03  0.10795948736E+04  0.00000000000E+00 0. -1.
          1    1    5    5  503    0  0.10653346288E+02 -0.88322120839E+02  0.14371623184E+03  0.16902262011E+03  0.00000000000E+00 0. -1.
         -2    1    5    5    0  503  0.45867055792E+02 -0.19931793765E+03  0.15274790069E+03  0.25527112692E+03  0.00000000000E+00 0.  1.
         -1    1    6    6    0  502  0.28590889122E+02 -0.41806808724E+02 -0.54280429317E+02  0.74240239785E+02  0.00000000000E+00 0.  1.
<mgrwt>
<rscale>  0 0.28243270E+04</rscale>
<asrwt>0</asrwt>
<pdfrwt beam="1">  1        2 0.19097001E+00 0.28243270E+04</pdfrwt>
<pdfrwt beam="2">  1       -2 0.24715993E+00 0.28243270E+04</pdfrwt>
<totfact> 0.10399065E+00</totfact>
</mgrwt>
</event>
<event>
12    1  0.1960998E-007  0.1749510E+04  0.7818608E-02  0.8733620E-01
         -1   -1    0    0    0  501 -0.00000000000E+00  0.00000000000E+00  0.37495021656E+03  0.37495021656E+03  0.00000000000E+00 0.  1.
          1   -1    0    0  501    0  0.00000000000E+00 -0.00000000000E+00 -0.20407947973E+04  0.20407947973E+04  0.00000000000E+00 0. -1.
         23    2    1    2    0    0 -0.30511583541E+03 -0.15574437036E+03  0.12604493613E+03  0.38258591437E+03  0.11459787968E+03 0.  0.
        254    2    1    2    0    0  0.30511583541E+03  0.15574437036E+03 -0.17918895168E+04  0.20331590995E+04  0.89750537674E+03 0.  0.
        -24    2    4    4    0    0 -0.13988755583E+03 -0.15386229800E+03 -0.81712037969E+02  0.23746213034E+03  0.80431779626E+02 0.  0.
         24    2    4    4    0    0  0.44500339124E+03  0.30960666836E+03 -0.17101774789E+04  0.17956969691E+04  0.77047312734E+02 0.  0.
         11    1    3    3    0    0 -0.14775359256E+03 -0.13231124059E+03  0.42312941834E+02  0.20279983617E+03  0.00000000000E+00 0. -1.
        -11    1    3    3    0    0 -0.15736224285E+03 -0.23433129769E+02  0.83731994297E+02  0.17978607820E+03  0.00000000000E+00 0.  1.
          2    1    6    6  502    0  0.39896556157E+03  0.26963720792E+03 -0.14278649870E+04  0.15068762936E+04  0.00000000000E+00 0. -1.
          1    1    5    5  503    0 -0.14552837298E+03 -0.15689452659E+03 -0.85004634033E+02  0.23026112921E+03  0.00000000000E+00 0. -1.
         -2    1    5    5    0  503  0.56408171529E+01  0.30322285940E+01  0.32925960644E+01  0.72010011278E+01  0.00000000000E+00 0.  1.
         -1    1    6    6    0  502  0.46037829677E+02  0.39969460438E+02 -0.28231249188E+03  0.28882067550E+03  0.00000000000E+00 0.  1.
<mgrwt>
<rscale>  0 0.17495102E+04</rscale>
<asrwt>0</asrwt>
<pdfrwt beam="1">  1        1 0.31396843E+00 0.17495102E+04</pdfrwt>
<pdfrwt beam="2">  1       -1 0.57684649E-01 0.17495102E+04</pdfrwt>
<totfact> 0.80671932E+00</totfact>
</mgrwt>
</event>
<event>
12    1  0.1960998E-007  0.3065936E+04  0.7818608E-02  0.8225149E-01
          1   -1    0    0  501    0  0.00000000000E+00  0.00000000000E+00  0.32152919656E+04  0.32152919656E+04  0.00000000000E+00 0. -1.
         -1   -1    0    0    0  501 -0.00000000000E+00 -0.00000000000E+00 -0.73087970802E+03  0.73087970802E+03  0.00000000000E+00 0.  1.
         23    2    1    2    0    0 -0.13365957833E+04 -0.38398573715E+03  0.95603292798E+03  0.16906519389E+04  0.10184146988E+03 0.  0.
        254    2    1    2    0    0  0.13365957833E+04  0.38398573715E+03  0.15283793296E+04  0.22555197347E+04  0.90415295395E+03 0.  0.
        -24    2    4    4    0    0  0.15401450558E+03  0.42972695412E+03  0.53844791379E+03  0.71054441684E+03  0.81003020951E+02 0.  0.
         24    2    4    4    0    0  0.11825812777E+04 -0.45741216971E+02  0.98993141579E+03  0.15449753178E+04  0.79961161978E+02 0.  0.
         11    1    3    3    0    0 -0.65810879972E+03 -0.23281177136E+03  0.51385461200E+03  0.86680740388E+03  0.00000000000E+00 0.  1.
        -11    1    3    3    0    0 -0.67848698358E+03 -0.15117396579E+03  0.44217831599E+03  0.82384453506E+03  0.00000000000E+00 0. -1.
          2    1    6    6  502    0  0.11835846847E+04 -0.44328665334E+02  0.98878453906E+03  0.15428974694E+04  0.00000000000E+00 0. -1.
          1    1    5    5  503    0  0.63408344020E+02  0.18531119422E+03  0.29347423698E+03  0.35282854840E+03  0.00000000000E+00 0. -1.
         -2    1    5    5    0  503  0.90606161564E+02  0.24441575990E+03  0.24497367681E+03  0.35771586843E+03  0.00000000000E+00 0.  1.
         -1    1    6    6    0  502 -0.10034070131E+01 -0.14125516376E+01  0.11468767297E+01  0.20778484054E+01  0.00000000000E+00 0.  1.
<mgrwt>
<rscale>  0 0.30659365E+04</rscale>
<asrwt>0</asrwt>
<pdfrwt beam="1">  1        1 0.49466029E+00 0.30659365E+04</pdfrwt>
<pdfrwt beam="2">  1       -1 0.11244303E+00 0.30659365E+04</pdfrwt>
<totfact> 0.25353799E-01</totfact>
</mgrwt>
</event>
<event>
12    1  0.1960998E-007  0.1495159E+04  0.7818608E-02  0.8887679E-01
          1   -1    0    0  501    0  0.00000000000E+00  0.00000000000E+00  0.11075342270E+04  0.11075342270E+04  0.00000000000E+00 0. -1.
         -1   -1    0    0    0  501 -0.00000000000E+00 -0.00000000000E+00 -0.50461202200E+03  0.50461202200E+03  0.00000000000E+00 0.  1.
         23    2    1    2    0    0 -0.18351010234E+03  0.29992451161E+03  0.53154364468E+03  0.64388528168E+03  0.91754778808E+02 0.  0.
        254    2    1    2    0    0  0.18351010234E+03 -0.29992451161E+03  0.71378560324E+02  0.96826096733E+03  0.89933516091E+03 0.  0.
        -24    2    4    4    0    0  0.24702055006E+03 -0.39073784083E+03  0.39756140785E+03  0.61437016096E+03  0.75501054643E+02 0.  0.
         24    2    4    4    0    0 -0.63510447713E+02  0.90813329217E+02 -0.32618284753E+03  0.35389080637E+03  0.81011203400E+02 0.  0.
         11    1    3    3    0    0 -0.82830739136E+02  0.17162338486E+03  0.21153201158E+03  0.28471267885E+03  0.00000000000E+00 0.  1.
        -11    1    3    3    0    0 -0.10067936321E+03  0.12830112676E+03  0.32001163310E+03  0.35917260283E+03  0.00000000000E+00 0. -1.
          2    1    6    6  502    0 -0.41832137571E+02 -0.55666301697E+00 -0.12628496633E+03  0.13303432012E+03  0.00000000000E+00 0. -1.
          3    1    5    5  503    0 -0.50719769412E+01 -0.13495785728E+02  0.89059978282E+01  0.16946326440E+02  0.00000000000E+00 0. -1.
         -2    1    5    5    0  503  0.25209252700E+03 -0.37724205510E+03  0.38865541003E+03  0.59742383452E+03  0.00000000000E+00 0.  1.
         -1    1    6    6    0  502 -0.21678310142E+02  0.91369992234E+02 -0.19989788120E+03  0.22085648625E+03  0.00000000000E+00 0.  1.
<mgrwt>
<rscale>  0 0.14951590E+04</rscale>
<asrwt>0</asrwt>
<pdfrwt beam="1">  1        1 0.17038988E+00 0.14951590E+04</pdfrwt>
<pdfrwt beam="2">  1       -1 0.77632619E-01 0.14951590E+04</pdfrwt>
<totfact> 0.20138280E+01</totfact>
</mgrwt>
</event>
<event>
12    1  0.1960998E-007  0.3465666E+04  0.7818608E-02  0.8121975E-01
          1   -1    0    0  501    0  0.00000000000E+00  0.00000000000E+00  0.14464524908E+04  0.14464524908E+04  0.00000000000E+00 0. -1.
         -1   -1    0    0    0  501 -0.00000000000E+00 -0.00000000000E+00 -0.20759130649E+04  0.20759130649E+04  0.00000000000E+00 0.  1.
         23    2    1    2    0    0 -0.12756861706E+03 -0.14705052985E+04 -0.95944308163E+03  0.17626199122E+04  0.87397613963E+02 0.  0.
        254    2    1    2    0    0  0.12756861706E+03  0.14705052985E+04  0.32998250758E+03  0.17597456435E+04  0.89953137224E+03 0.  0.
        -24    2    4    4    0    0  0.18099360184E+03  0.15699280550E+04  0.35301319253E+03  0.16213038854E+04  0.81087564108E+02 0.  0.
         24    2    4    4    0    0 -0.53424984779E+02 -0.99422756476E+02 -0.23030684947E+02  0.13844175812E+03  0.76789285956E+02 0.  0.
         13    1    3    3    0    0 -0.13039324109E+03 -0.11330920181E+04 -0.71878597490E+03  0.13481666056E+04  0.00000000000E+00 0. -1.
        -13    1    3    3    0    0  0.28246240301E+01 -0.33741328042E+03 -0.24065710673E+03  0.41445330656E+03  0.00000000000E+00 0.  1.
          4    1    6    6  502    0  0.13889193591E+01 -0.62834850959E+02  0.11726358379E+02  0.63934772017E+02  0.00000000000E+00 0. -1.
          3    1    5    5  503    0  0.15044497463E+03  0.13198021232E+04  0.26601061587E+03  0.13547224744E+04  0.00000000000E+00 0. -1.
         -4    1    5    5    0  503  0.30548627209E+02  0.25012593176E+03  0.87002576662E+02  0.26658141104E+03  0.00000000000E+00 0.  1.
         -3    1    6    6    0  502 -0.54813904138E+02 -0.36587905516E+02 -0.34757043325E+02  0.74506986100E+02  0.00000000000E+00 0.  1.
<mgrwt>
<rscale>  0 0.34656657E+04</rscale>
<asrwt>0</asrwt>
<pdfrwt beam="1">  1        1 0.22253115E+00 0.34656657E+04</pdfrwt>
<pdfrwt beam="2">  1       -1 0.31937124E+00 0.34656657E+04</pdfrwt>
<totfact> 0.14406158E-01</totfact>
</mgrwt>
</event>
<event>
12    1  0.1960998E-007  0.1111747E+04  0.7818608E-02  0.9193817E-01
          2   -1    0    0  501    0  0.00000000000E+00  0.00000000000E+00  0.26517925311E+04  0.26517925311E+04  0.00000000000E+00 0.  1.
         -2   -1    0    0    0  501 -0.00000000000E+00 -0.00000000000E+00 -0.11652329707E+03  0.11652329707E+03  0.00000000000E+00 0. -1.
         23    2    1    2    0    0 -0.11829738339E+03 -0.12700620938E+02  0.77915584618E+03  0.79184245540E+03  0.75993847467E+02 0.  0.
        254    2    1    2    0    0  0.11829738339E+03  0.12700620938E+02  0.17561133878E+04  0.19764733728E+04  0.89908686209E+03 0.  0.
        -24    2    4    4    0    0 -0.71097435309E+01 -0.12540948564E+03 -0.51412749420E+02  0.15758679175E+03  0.80076454658E+02 0.  0.
         24    2    4    4    0    0  0.12540712692E+03  0.13811010658E+03  0.18075261373E+04  0.18188865810E+04  0.79976925781E+02 0.  0.
         11    1    3    3    0    0 -0.82182318221E+02  0.90409807395E+01  0.66558939046E+03  0.67070478562E+03  0.00000000000E+00 0.  1.
        -11    1    3    3    0    0 -0.36115065168E+02 -0.21741601678E+02  0.11356645572E+03  0.12113766979E+03  0.00000000000E+00 0. -1.
          2    1    6    6  502    0  0.19446272230E+02  0.58433666777E+02  0.35306176946E+03  0.35839261149E+03  0.00000000000E+00 0. -1.
          1    1    5    5  503    0  0.10806129171E+02 -0.23261379361E+02  0.19271413741E+02  0.32081951078E+02  0.00000000000E+00 0. -1.
         -2    1    5    5    0  503 -0.17915872702E+02 -0.10214810628E+03 -0.70684163161E+02  0.12550484067E+03  0.00000000000E+00 0.  1.
         -1    1    6    6    0  502  0.10596085469E+03  0.79676439800E+02  0.14544643678E+04  0.14604939695E+04  0.00000000000E+00 0.  1.
<mgrwt>
<rscale>  0 0.11117475E+04</rscale>
<asrwt>0</asrwt>
<pdfrwt beam="1">  1        2 0.40796804E+00 0.11117475E+04</pdfrwt>
<pdfrwt beam="2">  1       -2 0.17926663E-01 0.11117475E+04</pdfrwt>
<totfact> 0.73633319E+01</totfact>
</mgrwt>
</event>
<event>
12    1  0.1960998E-007  0.2500806E+04  0.7818608E-02  0.8402698E-01
         -2   -1    0    0    0  501 -0.00000000000E+00  0.00000000000E+00  0.13792879831E+04  0.13792879831E+04  0.00000000000E+00 0.  1.
          2   -1    0    0  501    0  0.00000000000E+00 -0.00000000000E+00 -0.11335618240E+04  0.11335618240E+04  0.00000000000E+00 0. -1.
         23    2    1    2    0    0 -0.35687843093E+03 -0.95399276228E+03 -0.27455439688E+03  0.10583982798E+04  0.85804410599E+02 0.  0.
        254    2    1    2    0    0  0.35687843093E+03  0.95399276228E+03  0.52028055592E+03  0.14544515273E+04  0.89848371350E+03 0.  0.
        -24    2    4    4    0    0  0.55083511032E+03  0.75012057712E+03  0.64488484092E+03  0.11348564516E+04  0.76957837729E+02 0.  0.
         24    2    4    4    0    0 -0.19395667938E+03  0.20387218516E+03 -0.12460428500E+03  0.31959507566E+03  0.86207442748E+02 0.  0.
         13    1    3    3    0    0 -0.20061093633E+03 -0.50667201872E+03 -0.18979070473E+03  0.57704574683E+03  0.00000000000E+00 0. -1.
        -13    1    3    3    0    0 -0.15626749461E+03 -0.44732074356E+03 -0.84763692157E+02  0.48135253297E+03  0.00000000000E+00 0.  1.
          4    1    6    6  502    0 -0.12595731001E+03  0.76759054188E+02 -0.84367089827E+02  0.16992646112E+03  0.00000000000E+00 0. -1.
          1    1    5    5  503    0  0.40568458258E+03  0.55459150238E+03  0.43397949706E+03  0.81270530879E+03  0.00000000000E+00 0. -1.
         -2    1    5    5    0  503  0.14515052774E+03  0.19552907474E+03  0.21090534386E+03  0.32215114285E+03  0.00000000000E+00 0.  1.
         -3    1    6    6    0  502 -0.67999369375E+02  0.12711313097E+03 -0.40237195174E+02  0.14966861454E+03  0.00000000000E+00 0.  1.
<mgrwt>
<rscale>  0 0.25008064E+04</rscale>
<asrwt>0</asrwt>
<pdfrwt beam="1">  1        2 0.17439413E+00 0.25008064E+04</pdfrwt>
<pdfrwt beam="2">  1       -2 0.21219815E+00 0.25008064E+04</pdfrwt>
<totfact> 0.20535090E+00</totfact>
</mgrwt>
</event>
<event>
12    1  0.1960998E-007  0.1803448E+04  0.7818608E-02  0.8704468E-01
          2   -1    0    0  501    0  0.00000000000E+00  0.00000000000E+00  0.32688140328E+04  0.32688140328E+04  0.00000000000E+00 0. -1.
         -2   -1    0    0    0  501 -0.00000000000E+00 -0.00000000000E+00 -0.24874655570E+03  0.24874655570E+03  0.00000000000E+00 0.  1.
         23    2    1    2    0    0  0.59648880934E+03 -0.24953259637E+02  0.17458293975E+04  0.18473146534E+04  0.90717026509E+02 0.  0.
        254    2    1    2    0    0 -0.59648880934E+03  0.24953259637E+02  0.12742380796E+04  0.16702459350E+04  0.89978732773E+03 0.  0.
        -24    2    4    4    0    0  0.13852748704E+02  0.35364906820E+03  0.29465194247E+03  0.46748649173E+03  0.80400812531E+02 0.  0.
         24    2    4    4    0    0 -0.61034155805E+03 -0.32869580857E+03  0.97958613713E+03  0.12027594433E+04  0.80520347457E+02 0.  0.
         13    1    3    3    0    0  0.28466101087E+03  0.29515928704E+02  0.88544140704E+03  0.93054261937E+03  0.00000000000E+00 0. -1.
        -13    1    3    3    0    0  0.31182779848E+03 -0.54469188341E+02  0.86038799044E+03  0.91677203408E+03  0.00000000000E+00 0.  1.
          2    1    6    6  502    0 -0.40212281912E+03 -0.22774084236E+03  0.71396356968E+03  0.85047788434E+03  0.00000000000E+00 0. -1.
          1    1    5    5  503    0 -0.18704579767E+02  0.26618508308E+03  0.24253583993E+03  0.36059394532E+03  0.00000000000E+00 0. -1.
         -2    1    5    5    0  503  0.32557328471E+02  0.87463985128E+02  0.52116102548E+02  0.10689254640E+03  0.00000000000E+00 0.  1.
         -3    1    6    6    0  502 -0.20821873893E+03 -0.10095496621E+03  0.26562256745E+03  0.35228155896E+03  0.00000000000E+00 0.  1.
<mgrwt>
<rscale>  0 0.18034481E+04</rscale>
<asrwt>0</asrwt>
<pdfrwt beam="1">  1        2 0.50289444E+00 0.18034481E+04</pdfrwt>
<pdfrwt beam="2">  1       -2 0.38268703E-01 0.18034481E+04</pdfrwt>
<totfact> 0.71527423E+00</totfact>
</mgrwt>
</event>
<event>
12    1  0.1960998E-007  0.2032617E+04  0.7818608E-02  0.8591521E-01
          1   -1    0    0  501    0  0.00000000000E+00  0.00000000000E+00  0.11614600476E+04  0.11614600476E+04  0.00000000000E+00 0. -1.
         -1   -1    0    0    0  501 -0.00000000000E+00 -0.00000000000E+00 -0.88929727170E+03  0.88929727170E+03  0.00000000000E+00 0.  1.
         23    2    1    2    0    0 -0.65611022655E+03  0.28768390869E+03 -0.27920843950E+03  0.77436113959E+03  0.91843133141E+02 0.  0.
        254    2    1    2    0    0  0.65611022655E+03 -0.28768390869E+03  0.55137121541E+03  0.12763961797E+04  0.90107398682E+03 0.  0.
        -24    2    4    4    0    0  0.61199332531E+03 -0.50579836254E+03  0.15265512780E+03  0.81251810347E+03  0.80711006988E+02 0.  0.
         24    2    4    4    0    0  0.44116901242E+02  0.21811445385E+03  0.39871608762E+03  0.46387807625E+03  0.81781019481E+02 0.  0.
         13    1    3    3    0    0 -0.15387746718E+03  0.10972468391E+03 -0.85227787892E+02  0.20731993872E+03  0.00000000000E+00 0.  1.
        -13    1    3    3    0    0 -0.50223275938E+03  0.17795922478E+03 -0.19398065161E+03  0.56704120086E+03  0.00000000000E+00 0. -1.
          2    1    6    6  502    0  0.57794176956E+02  0.21546274707E+03  0.37785982637E+03  0.43879654812E+03  0.00000000000E+00 0. -1.
          3    1    5    5  503    0  0.25180511773E+03 -0.25594699452E+03  0.52561257337E+02  0.36287376192E+03  0.00000000000E+00 0. -1.
         -4    1    5    5    0  503  0.36018820758E+03 -0.24985136802E+03  0.10009387046E+03  0.44964434155E+03  0.00000000000E+00 0.  1.
         -1    1    6    6    0  502 -0.13677275714E+02  0.26517067847E+01  0.20856261250E+02  0.25081528127E+02  0.00000000000E+00 0.  1.
<mgrwt>
<rscale>  0 0.20326173E+04</rscale>
<asrwt>0</asrwt>
<pdfrwt beam="1">  1        1 0.17868616E+00 0.20326173E+04</pdfrwt>
<pdfrwt beam="2">  1       -1 0.13681496E+00 0.20326173E+04</pdfrwt>
<totfact> 0.46968348E+00</totfact>
</mgrwt>
</event>
<event>
12    1  0.1960998E-007  0.2688419E+04  0.7818608E-02  0.8338772E-01
         -1   -1    0    0    0  501 -0.00000000000E+00  0.00000000000E+00  0.34457092390E+04  0.34457092390E+04  0.00000000000E+00 0.  1.
          1   -1    0    0  501    0  0.00000000000E+00 -0.00000000000E+00 -0.52439096582E+03  0.52439096582E+03  0.00000000000E+00 0. -1.
         23    2    1    2    0    0  0.11946183031E+04 -0.23788475111E+01  0.14087756579E+04  0.18494000895E+04  0.92267478981E+02 0.  0.
        254    2    1    2    0    0 -0.11946183031E+04  0.23788475111E+01  0.15125426153E+04  0.21207001154E+04  0.88457066838E+03 0.  0.
        -24    2    4    4    0    0  0.85500537055E+02  0.12527914440E+03  0.64520410372E+02  0.18242908531E+03  0.78181084374E+02 0.  0.
         24    2    4    4    0    0 -0.12801188401E+04 -0.12290029689E+03  0.14480222049E+04  0.19382710301E+04  0.79483031250E+02 0.  0.
         13    1    3    3    0    0  0.84227315403E+03 -0.38535042134E+02  0.96024207291E+03  0.12778786539E+04  0.00000000000E+00 0. -1.
        -13    1    3    3    0    0  0.35234514902E+03  0.36156194623E+02  0.44853358499E+03  0.57152143557E+03  0.00000000000E+00 0.  1.
          2    1    6    6  502    0 -0.10450049724E+04 -0.12868225948E+03  0.11652797121E+04  0.15705003418E+04  0.00000000000E+00 0. -1.
          1    1    5    5  503    0  0.98753299178E+02  0.11773232551E+03  0.50604919922E+02  0.16178372133E+03  0.00000000000E+00 0. -1.
         -2    1    5    5    0  503 -0.13252762122E+02  0.75468188934E+01  0.13915490451E+02  0.20645363978E+02  0.00000000000E+00 0.  1.
         -1    1    6    6    0  502 -0.23511386774E+03  0.57819625877E+01  0.28274249277E+03  0.36777068822E+03  0.00000000000E+00 0.  1.
<mgrwt>
<rscale>  0 0.26884187E+04</rscale>
<asrwt>0</asrwt>
<pdfrwt beam="1">  1        1 0.80675535E-01 0.26884187E+04</pdfrwt>
<pdfrwt beam="2">  1       -1 0.53010910E+00 0.26884187E+04</pdfrwt>
<totfact> 0.34953097E-02</totfact>
</mgrwt>
</event>
<event>
12    1  0.1960998E-007  0.1365793E+04  0.7818608E-02  0.8978958E-01
         -1   -1    0    0    0  501 -0.00000000000E+00  0.00000000000E+00  0.29330439770E+03  0.29330439770E+03  0.00000000000E+00 0.  1.
          1   -1    0    0  501    0  0.00000000000E+00 -0.00000000000E+00 -0.15899782738E+04  0.15899782738E+04  0.00000000000E+00 0. -1.
         23    2    1    2    0    0 -0.31651685983E+03 -0.19124866061E+03 -0.30225988421E+03  0.48455847454E+03  0.81712330183E+02 0.  0.
        254    2    1    2    0    0  0.31651685983E+03  0.19124866061E+03 -0.99441399191E+03  0.13987241970E+04  0.91148846354E+03 0.  0.
        -24    2    4    4    0    0  0.53445514952E+03  0.12793377026E+03 -0.10131821787E+04  0.11558899769E+04  0.86799510798E+02 0.  0.
         24    2    4    4    0    0 -0.21793828969E+03  0.63314890355E+02  0.18768186798E+02  0.24283422006E+03  0.84322832855E+02 0.  0.
         13    1    3    3    0    0 -0.16957793096E+03 -0.11585272474E+03 -0.21669748088E+03  0.29855707447E+03  0.00000000000E+00 0. -1.
        -13    1    3    3    0    0 -0.14693892887E+03 -0.75395935874E+02 -0.85562403333E+02  0.18600140007E+03  0.00000000000E+00 0.  1.
          2    1    6    6  502    0 -0.13642996227E+03  0.56539046717E+02  0.49057512192E+02  0.15561631634E+03  0.00000000000E+00 0. -1.
          3    1    5    5  503    0  0.26014014839E+03  0.32323620604E+02 -0.54763136260E+03  0.60713904714E+03  0.00000000000E+00 0. -1.
         -4    1    5    5    0  503  0.27431500113E+03  0.95610149651E+02 -0.46555081610E+03  0.54875092978E+03  0.00000000000E+00 0.  1.
         -1    1    6    6    0  502 -0.81508327421E+02  0.67758436378E+01 -0.30289325394E+02  0.87217903717E+02  0.00000000000E+00 0.  1.
<mgrwt>
<rscale>  0 0.13657930E+04</rscale>
<asrwt>0</asrwt>
<pdfrwt beam="1">  1        1 0.24461204E+00 0.13657930E+04</pdfrwt>
<pdfrwt beam="2">  1       -1 0.45123754E-01 0.13657930E+04</pdfrwt>
<totfact> 0.27005125E+01</totfact>
</mgrwt>
</event>
<event>
12    1  0.1960998E-007  0.1899811E+04  0.7818608E-02  0.8654951E-01
          2   -1    0    0  501    0  0.00000000000E+00  0.00000000000E+00  0.26250494253E+04  0.26250494253E+04  0.00000000000E+00 0.  1.
         -2   -1    0    0    0  501 -0.00000000000E+00 -0.00000000000E+00 -0.34373453550E+03  0.34373453550E+03  0.00000000000E+00 0. -1.
         23    2    1    2    0    0  0.40974577540E+03  0.42303811262E+03  0.15721383575E+04  0.16813253045E+04  0.91558282558E+02 0.  0.
        254    2    1    2    0    0 -0.40974577540E+03 -0.42303811262E+03  0.70917653232E+03  0.12874586564E+04  0.89875780534E+03 0.  0.
        -24    2    4    4    0    0 -0.55583339357E+03  0.22243311185E+02  0.54838170983E+03  0.78532915482E+03  0.81079315627E+02 0.  0.
         24    2    4    4    0    0  0.14608761817E+03 -0.44528142381E+03  0.16079482248E+03  0.50212950155E+03  0.81620602876E+02 0.  0.
         11    1    3    3    0    0  0.19153622100E+03  0.25031426108E+03  0.75725496026E+03  0.82023071638E+03  0.00000000000E+00 0. -1.
        -11    1    3    3    0    0  0.21820955440E+03  0.17272385155E+03  0.81488339727E+03  0.86109458811E+03  0.00000000000E+00 0.  1.
          2    1    6    6  502    0 -0.92166190455E+01 -0.45838046306E+02  0.10089596178E+02  0.47831710264E+02  0.00000000000E+00 0. -1.
          1    1    5    5  503    0 -0.56421056063E+02  0.15559066282E+02  0.31104483637E+02  0.66279023931E+02  0.00000000000E+00 0. -1.
         -4    1    5    5    0  503 -0.49941233751E+03  0.66842449038E+01  0.51727722620E+03  0.71905013089E+03  0.00000000000E+00 0.  1.
         -1    1    6    6    0  502  0.15530423721E+03 -0.39944337750E+03  0.15070522631E+03  0.45429779128E+03  0.00000000000E+00 0.  1.
<mgrwt>
<rscale>  0 0.18998107E+04</rscale>
<asrwt>0</asrwt>
<pdfrwt beam="1">  1        2 0.40385375E+00 0.18998107E+04</pdfrwt>
<pdfrwt beam="2">  1       -2 0.52882238E-01 0.18998107E+04</pdfrwt>
<totfact> 0.93037363E+00</totfact>
</mgrwt>
</event>
<event>
12    1  0.1960998E-007  0.1324214E+04  0.7818608E-02  0.9010581E-01
         -1   -1    0    0    0  501 -0.00000000000E+00  0.00000000000E+00  0.33139822800E+03  0.33139822800E+03  0.00000000000E+00 0.  1.
          1   -1    0    0  501    0  0.00000000000E+00 -0.00000000000E+00 -0.13228363333E+04  0.13228363333E+04  0.00000000000E+00 0. -1.
         23    2    1    2    0    0 -0.28561148275E+03  0.19084120536E+03 -0.31804741417E+03  0.47739915322E+03  0.93602933163E+02 0.  0.
        254    2    1    2    0    0  0.28561148275E+03 -0.19084120536E+03 -0.67339069111E+03  0.11768354081E+04  0.90193806330E+03 0.  0.
        -24    2    4    4    0    0 -0.66704611669E+02  0.13222880875E+03  0.14750158405E+03  0.22356571861E+03  0.79315510190E+02 0.  0.
         24    2    4    4    0    0  0.35231609442E+03 -0.32307001411E+03 -0.82089227516E+03  0.95326968944E+03  0.79737751367E+02 0.  0.
         13    1    3    3    0    0 -0.70256952863E+02  0.74356102312E+02 -0.14552178509E+03  0.17788046355E+03  0.00000000000E+00 0. -1.
        -13    1    3    3    0    0 -0.21535452988E+03  0.11648510305E+03 -0.17252562908E+03  0.29951868967E+03  0.00000000000E+00 0.  1.
          4    1    6    6  502    0  0.14370490588E+03 -0.83440739687E+02 -0.25732673236E+03  0.30631765244E+03  0.00000000000E+00 0. -1.
          3    1    5    5  503    0 -0.55785680268E+02  0.63047506538E+02  0.35271573296E+02  0.91274936793E+02  0.00000000000E+00 0. -1.
         -4    1    5    5    0  503 -0.10918931400E+02  0.69181302214E+02  0.11223001076E+03  0.13229078181E+03  0.00000000000E+00 0.  1.
         -3    1    6    6    0  502  0.20861118854E+03 -0.23962927442E+03 -0.56356554280E+03  0.64695203700E+03  0.00000000000E+00 0.  1.
<mgrwt>
<rscale>  0 0.13242139E+04</rscale>
<asrwt>0</asrwt>
<pdfrwt beam="1">  1        1 0.20351328E+00 0.13242139E+04</pdfrwt>
<pdfrwt beam="2">  1       -1 0.50984343E-01 0.13242139E+04</pdfrwt>
<totfact> 0.33036921E+01</totfact>
</mgrwt>
</event>
<event>
12    1  0.1960998E-007  0.1685219E+04  0.7818608E-02  0.8769840E-01
          1   -1    0    0  501    0  0.00000000000E+00  0.00000000000E+00  0.21446432041E+04  0.21446432041E+04  0.00000000000E+00 0. -1.
         -1   -1    0    0    0  501 -0.00000000000E+00 -0.00000000000E+00 -0.33105320318E+03  0.33105320318E+03  0.00000000000E+00 0.  1.
         23    2    1    2    0    0  0.43193976751E+03 -0.39528180516E+03  0.82447602576E+03  0.10154626739E+04  0.92650184951E+02 0.  0.
        254    2    1    2    0    0 -0.43193976751E+03  0.39528180516E+03  0.98911397513E+03  0.14602337334E+04  0.90062002641E+03 0.  0.
        -24    2    4    4    0    0 -0.16114230688E+02  0.56749471249E+03  0.75149787285E+03  0.94527181715E+03  0.80497442623E+02 0.  0.
         24    2    4    4    0    0 -0.41582553682E+03 -0.17221290733E+03  0.23761610228E+03  0.51496191620E+03  0.78461459021E+02 0.  0.
         11    1    3    3    0    0  0.22215816135E+03 -0.26487588414E+03  0.48886859442E+03  0.59875369332E+03  0.00000000000E+00 0. -1.
        -11    1    3    3    0    0  0.20978160616E+03 -0.13040592102E+03  0.33560743135E+03  0.41670898058E+03  0.00000000000E+00 0.  1.
          2    1    6    6  502    0 -0.14845973045E+03 -0.10159276355E+03  0.10468909193E+03  0.20813742369E+03  0.00000000000E+00 0. -1.
          1    1    5    5  503    0 -0.34330976884E+02  0.29970585247E+03  0.44818180991E+03  0.54024915430E+03  0.00000000000E+00 0. -1.
         -2    1    5    5    0  503  0.18216746197E+02  0.26778886002E+03  0.30331606294E+03  0.40502266286E+03  0.00000000000E+00 0.  1.
         -1    1    6    6    0  502 -0.26736580637E+03 -0.70620143774E+02  0.13292701035E+03  0.30682449251E+03  0.00000000000E+00 0.  1.
<mgrwt>
<rscale>  0 0.16852193E+04</rscale>
<asrwt>0</asrwt>
<pdfrwt beam="1">  1        1 0.32994510E+00 0.16852193E+04</pdfrwt>
<pdfrwt beam="2">  1       -1 0.50931263E-01 0.16852193E+04</pdfrwt>
<totfact> 0.87779203E+00</totfact>
</mgrwt>
</event>
<event>
12    1  0.1960998E-007  0.1525562E+04  0.7818608E-02  0.8867630E-01
          1   -1    0    0  501    0  0.00000000000E+00  0.00000000000E+00  0.11740519622E+04  0.11740519622E+04  0.00000000000E+00 0. -1.
         -1   -1    0    0    0  501 -0.00000000000E+00 -0.00000000000E+00 -0.49557829593E+03  0.49557829593E+03  0.00000000000E+00 0.  1.
         23    2    1    2    0    0 -0.13689710438E+03  0.44965764701E+03  0.37634406633E+03  0.60938565549E+03  0.93718750243E+02 0.  0.
        254    2    1    2    0    0  0.13689710438E+03 -0.44965764701E+03  0.30212959993E+03  0.10602446026E+04  0.90105688253E+03 0.  0.
        -24    2    4    4    0    0  0.36342631974E+03 -0.28691735372E+03 -0.17484805524E+03  0.50169435864E+03  0.82006885839E+02 0.  0.
         24    2    4    4    0    0 -0.22652921537E+03 -0.16274029329E+03  0.47697765516E+03  0.55855024399E+03  0.81674984281E+02 0.  0.
         11    1    3    3    0    0 -0.97329113075E+02  0.41556603786E+03  0.32906503798E+03  0.53893588422E+03  0.00000000000E+00 0.  1.
        -11    1    3    3    0    0 -0.39567991301E+02  0.34091609150E+02  0.47279028353E+02  0.70449771270E+02  0.00000000000E+00 0. -1.
          4    1    6    6  502    0 -0.65593224319E+02 -0.17590638572E+02  0.70390625220E+02  0.97809722220E+02  0.00000000000E+00 0. -1.
          3    1    5    5  503    0  0.10434794025E+03 -0.48135856638E+02 -0.67951778622E+02  0.13350279977E+03  0.00000000000E+00 0. -1.
         -4    1    5    5    0  503  0.25907837949E+03 -0.23878149708E+03 -0.10689627661E+03  0.36819155887E+03  0.00000000000E+00 0.  1.
         -3    1    6    6    0  502 -0.16093599105E+03 -0.14514965472E+03  0.40658702994E+03  0.46074052177E+03  0.00000000000E+00 0.  1.
<mgrwt>
<rscale>  0 0.15255618E+04</rscale>
<asrwt>0</asrwt>
<pdfrwt beam="1">  1        1 0.18062338E+00 0.15255618E+04</pdfrwt>
<pdfrwt beam="2">  1       -1 0.76242815E-01 0.15255618E+04</pdfrwt>
<totfact> 0.18618773E+01</totfact>
</mgrwt>
</event>
<event>
12    1  0.1960998E-007  0.4167663E+04  0.7818608E-02  0.7971552E-01
         -2   -1    0    0    0  501 -0.00000000000E+00  0.00000000000E+00  0.13647282023E+04  0.13647282023E+04  0.00000000000E+00 0.  1.
          2   -1    0    0  501    0  0.00000000000E+00 -0.00000000000E+00 -0.31818452228E+04  0.31818452228E+04  0.00000000000E+00 0. -1.
         23    2    1    2    0    0 -0.16585096710E+04  0.31640689440E+03 -0.20073348137E+04  0.26245190882E+04  0.89105210974E+02 0.  0.
        254    2    1    2    0    0  0.16585096710E+04 -0.31640689440E+03  0.19021779321E+03  0.19220543369E+04  0.89852234991E+03 0.  0.
        -24    2    4    4    0    0  0.97767545472E+03  0.22754388650E+03 -0.69090363905E+02  0.10092896909E+04  0.79162407713E+02 0.  0.
         24    2    4    4    0    0  0.68083421630E+03 -0.54395078090E+03  0.25930815712E+03  0.91276464593E+03  0.80504014639E+02 0.  0.
         13    1    3    3    0    0 -0.11674675209E+04  0.24724917374E+03 -0.13666307006E+04  0.18143296387E+04  0.00000000000E+00 0.  1.
        -13    1    3    3    0    0 -0.49104215013E+03  0.69157720653E+02 -0.64070411310E+03  0.81018944949E+03  0.00000000000E+00 0. -1.
          2    1    6    6  502    0  0.36560217109E+03 -0.33428639320E+03  0.12350288191E+03  0.51055391686E+03  0.00000000000E+00 0. -1.
          1    1    5    5  503    0  0.41040854914E+03  0.77863292561E+02  0.63451743632E+01  0.41777760923E+03  0.00000000000E+00 0. -1.
         -2    1    5    5    0  503  0.56726690558E+03  0.14968059394E+03 -0.75435538268E+02  0.59151208170E+03  0.00000000000E+00 0.  1.
         -1    1    6    6    0  502  0.31523204521E+03 -0.20966438770E+03  0.13580527520E+03  0.40221072906E+03  0.00000000000E+00 0.  1.
<mgrwt>
<rscale>  0 0.41676631E+04</rscale>
<asrwt>0</asrwt>
<pdfrwt beam="1">  1        2 0.48951465E+00 0.41676631E+04</pdfrwt>
<pdfrwt beam="2">  1       -2 0.20995819E+00 0.41676631E+04</pdfrwt>
<totfact> 0.11872318E-01</totfact>
</mgrwt>
</event>
<event>
12    1  0.1960998E-007  0.1725186E+04  0.7818608E-02  0.8747129E-01
         -1   -1    0    0    0  501 -0.00000000000E+00  0.00000000000E+00  0.55039240664E+03  0.55039240664E+03  0.00000000000E+00 0.  1.
          1   -1    0    0  501    0  0.00000000000E+00 -0.00000000000E+00 -0.13518836342E+04  0.13518836342E+04  0.00000000000E+00 0. -1.
         23    2    1    2    0    0  0.57884268349E+03  0.16712340312E+03 -0.11840135013E+03  0.61999194605E+03  0.85918853338E+02 0.  0.
        254    2    1    2    0    0 -0.57884268349E+03 -0.16712340312E+03 -0.68308987746E+03  0.12822840948E+04  0.90258054214E+03 0.  0.
        -24    2    4    4    0    0 -0.52543771636E+03 -0.18006259681E+03  0.30618321894E+02  0.56200188311E+03  0.80008139860E+02 0.  0.
         24    2    4    4    0    0 -0.53404967131E+02  0.12939193689E+02 -0.71370819935E+03  0.72028221171E+03  0.80047220033E+02 0.  0.
         13    1    3    3    0    0  0.17795593054E+03  0.93381074859E+02 -0.39201475832E+02  0.20475618199E+03  0.00000000000E+00 0. -1.
        -13    1    3    3    0    0  0.40088675295E+03  0.73742328259E+02 -0.79199874295E+02  0.41523576406E+03  0.00000000000E+00 0.  1.
          2    1    6    6  502    0 -0.58167676798E+02  0.10708339292E+02 -0.71241545905E+03  0.71486637454E+03  0.00000000000E+00 0. -1.
          1    1    5    5  503    0 -0.43018813102E+03 -0.17285929780E+03  0.73032276434E+01  0.46367607447E+03  0.00000000000E+00 0. -1.
         -2    1    5    5    0  503 -0.95249585343E+02 -0.72032990022E+01  0.23315094251E+02  0.98325808638E+02  0.00000000000E+00 0.  1.
         -1    1    6    6    0  502  0.47627096672E+01  0.22308543972E+01 -0.12927402970E+01  0.54158371644E+01  0.00000000000E+00 0.  1.
<mgrwt>
<rscale>  0 0.17251858E+04</rscale>
<asrwt>0</asrwt>
<pdfrwt beam="1">  1        1 0.20798209E+00 0.17251858E+04</pdfrwt>
<pdfrwt beam="2">  1       -1 0.84675757E-01 0.17251858E+04</pdfrwt>
<totfact> 0.10891176E+01</totfact>
</mgrwt>
</event>
<event>
12    1  0.1960998E-007  0.2017153E+04  0.7818608E-02  0.8598643E-01
         -2   -1    0    0    0  501 -0.00000000000E+00  0.00000000000E+00  0.65373186375E+03  0.65373186375E+03  0.00000000000E+00 0. -1.
          2   -1    0    0  501    0  0.00000000000E+00 -0.00000000000E+00 -0.15560307045E+04  0.15560307045E+04  0.00000000000E+00 0.  1.
         23    2    1    2    0    0 -0.72122542438E+03  0.26547531168E+03 -0.97936932816E+02  0.78017179603E+03  0.91832100253E+02 0.  0.
        254    2    1    2    0    0  0.72122542438E+03 -0.26547531168E+03 -0.80436190797E+03  0.14295907723E+04  0.89782428306E+03 0.  0.
        -24    2    4    4    0    0  0.28863172919E+03  0.29568874960E+03 -0.50195980307E+03  0.65504836457E+03  0.79903718860E+02 0.  0.
         24    2    4    4    0    0  0.43259369518E+03 -0.56116406128E+03 -0.30240210489E+03  0.77454240768E+03  0.80165450624E+02 0.  0.
         11    1    3    3    0    0 -0.35609923507E+03  0.90604263978E+02 -0.20697162701E+02  0.36802740443E+03  0.00000000000E+00 0.  1.
        -11    1    3    3    0    0 -0.36512618931E+03  0.17487104770E+03 -0.77239770115E+02  0.41214439161E+03  0.00000000000E+00 0. -1.
          4    1    6    6  502    0  0.57557287729E+02 -0.40637698289E+02 -0.42872944765E+02  0.82476380169E+02  0.00000000000E+00 0. -1.
          1    1    5    5  503    0 -0.30102890401E+01  0.36556787359E+01 -0.19854936115E+02  0.20411867020E+02  0.00000000000E+00 0. -1.
         -2    1    5    5    0  503  0.29164201823E+03  0.29203307087E+03 -0.48210486696E+03  0.63463649755E+03  0.00000000000E+00 0.  1.
         -3    1    6    6    0  502  0.37503640746E+03 -0.52052636299E+03 -0.25952916013E+03  0.69206602752E+03  0.00000000000E+00 0.  1.
<mgrwt>
<rscale>  0 0.20171533E+04</rscale>
<asrwt>0</asrwt>
<pdfrwt beam="1">  1        2 0.23938934E+00 0.20171533E+04</pdfrwt>
<pdfrwt beam="2">  1       -2 0.10057413E+00 0.20171533E+04</pdfrwt>
<totfact> 0.89242317E+00</totfact>
</mgrwt>
</event>
<event>
12    1  0.1960998E-007  0.1693290E+04  0.7818608E-02  0.8765201E-01
         -2   -1    0    0    0  501 -0.00000000000E+00  0.00000000000E+00  0.23405279799E+03  0.23405279799E+03  0.00000000000E+00 0.  1.
          2   -1    0    0  501    0  0.00000000000E+00 -0.00000000000E+00 -0.30625895671E+04  0.30625895671E+04  0.00000000000E+00 0. -1.
         23    2    1    2    0    0  0.53497448205E+03 -0.17738268911E+03 -0.13503338278E+04  0.14660492023E+04  0.90755177377E+02 0.  0.
        254    2    1    2    0    0 -0.53497448205E+03  0.17738268911E+03 -0.14782029413E+04  0.18305931628E+04  0.92104564335E+03 0.  0.
        -24    2    4    4    0    0 -0.96355526556E+02 -0.22474199262E+03 -0.25204005214E+02  0.25851330668E+03  0.80003356867E+02 0.  0.
         24    2    4    4    0    0 -0.43861895549E+03  0.40212468173E+03 -0.14529989361E+04  0.15720798561E+04  0.78347418178E+02 0.  0.
         13    1    3    3    0    0  0.41143313167E+03 -0.17263687143E+03 -0.10927492504E+04  0.11803311550E+04  0.00000000000E+00 0.  1.
        -13    1    3    3    0    0  0.12354135038E+03 -0.47458176807E+01 -0.25758457746E+03  0.28571804736E+03  0.00000000000E+00 0. -1.
          4    1    6    6  502    0 -0.37195289749E+03  0.36995835614E+03 -0.13078913320E+04  0.14091834088E+04  0.00000000000E+00 0. -1.
          3    1    5    5  503    0 -0.68856784256E+02 -0.21829177022E+03 -0.19732989454E+02  0.22974321439E+03  0.00000000000E+00 0. -1.
         -4    1    5    5    0  503 -0.27498742300E+02 -0.64502223907E+01 -0.54710157603E+01  0.28770092291E+02  0.00000000000E+00 0.  1.
         -3    1    6    6    0  502 -0.66666058001E+02  0.32166325592E+02 -0.14510760408E+03  0.16289644733E+03  0.00000000000E+00 0.  1.
<mgrwt>
<rscale>  0 0.16932899E+04</rscale>
<asrwt>0</asrwt>
<pdfrwt beam="1">  1        2 0.47116760E+00 0.16932899E+04</pdfrwt>
<pdfrwt beam="2">  1       -2 0.36008125E-01 0.16932899E+04</pdfrwt>
<totfact> 0.11039684E+01</totfact>
</mgrwt>
</event>
<event>
12    1  0.1960998E-007  0.2426303E+04  0.7818608E-02  0.8429721E-01
          2   -1    0    0  501    0  0.00000000000E+00  0.00000000000E+00  0.17662986722E+04  0.17662986722E+04  0.00000000000E+00 0. -1.
         -2   -1    0    0    0  501 -0.00000000000E+00 -0.00000000000E+00 -0.83323182967E+03  0.83323182967E+03  0.00000000000E+00 0.  1.
         23    2    1    2    0    0 -0.28025865350E+03 -0.46420934544E+03  0.13577927838E+04  0.14648828201E+04  0.90803103548E+02 0.  0.
        254    2    1    2    0    0  0.28025865350E+03  0.46420934544E+03 -0.42472594128E+03  0.11346476818E+04  0.90166402130E+03 0.  0.
        -24    2    4    4    0    0 -0.83826707696E+00 -0.18706410939E+03 -0.36538880109E+03  0.41824487055E+03  0.80163034290E+02 0.  0.
         24    2    4    4    0    0  0.28109692058E+03  0.65127345483E+03 -0.59337140187E+02  0.71640281123E+03  0.80867175082E+02 0.  0.
         13    1    3    3    0    0 -0.26614831241E+03 -0.40396735439E+03  0.12536132838E+04  0.13437153021E+04  0.00000000000E+00 0. -1.
        -13    1    3    3    0    0 -0.14110341090E+02 -0.60241991052E+02  0.10417949998E+03  0.12116751804E+03  0.00000000000E+00 0.  1.
          2    1    6    6  502    0  0.12338672502E+03  0.23532202691E+03  0.11475974750E+02  0.26595570732E+03  0.00000000000E+00 0. -1.
          3    1    5    5  503    0 -0.36776673931E+02 -0.54908077547E+02 -0.13263474297E+03  0.14818702969E+03  0.00000000000E+00 0. -1.
         -4    1    5    5    0  503  0.35938406854E+02 -0.13215603184E+03 -0.23275405812E+03  0.27005784086E+03  0.00000000000E+00 0.  1.
         -1    1    6    6    0  502  0.15771019556E+03  0.41595142792E+03 -0.70813114937E+02  0.45044710390E+03  0.00000000000E+00 0.  1.
<mgrwt>
<rscale>  0 0.24263028E+04</rscale>
<asrwt>0</asrwt>
<pdfrwt beam="1">  1        2 0.27173826E+00 0.24263028E+04</pdfrwt>
<pdfrwt beam="2">  1       -2 0.12818951E+00 0.24263028E+04</pdfrwt>
<totfact> 0.36379314E+00</totfact>
</mgrwt>
</event>
<event>
12    1  0.1960998E-007  0.2511863E+04  0.7818608E-02  0.8398771E-01
          2   -1    0    0  501    0  0.00000000000E+00  0.00000000000E+00  0.23683738205E+04  0.23683738205E+04  0.00000000000E+00 0.  1.
         -2   -1    0    0    0  501 -0.00000000000E+00 -0.00000000000E+00 -0.66601154240E+03  0.66601154240E+03  0.00000000000E+00 0. -1.
         23    2    1    2    0    0 -0.10767875089E+04 -0.16518766260E+03  0.62184444692E+03  0.12598015872E+04  0.11683843416E+03 0.  0.
        254    2    1    2    0    0  0.10767875089E+04  0.16518766260E+03  0.10805178312E+04  0.17745837757E+04  0.89155509674E+03 0.  0.
        -24    2    4    4    0    0  0.41637565340E+03 -0.79405955226E+02 -0.55786293600E+02  0.43535707196E+03  0.82156430562E+02 0.  0.
         24    2    4    4    0    0  0.66041185546E+03  0.24459361783E+03  0.11363041248E+04  0.13392267038E+04  0.79820069073E+02 0.  0.
         11    1    3    3    0    0 -0.31549226861E+03  0.24274972738E+01  0.19821707045E+03  0.37260068614E+03  0.00000000000E+00 0.  1.
        -11    1    3    3    0    0 -0.76129524026E+03 -0.16761515988E+03  0.42362737648E+03  0.88720090101E+03  0.00000000000E+00 0. -1.
          4    1    6    6  502    0  0.58682248218E+03  0.21290908277E+03  0.10493038936E+04  0.12209543662E+04  0.00000000000E+00 0. -1.
          1    1    5    5  503    0  0.32395007858E+03 -0.37374711383E+02 -0.67931694366E+02  0.33309944095E+03  0.00000000000E+00 0. -1.
         -2    1    5    5    0  503  0.92425574828E+02 -0.42031243844E+02  0.12145400766E+02  0.10225763102E+03  0.00000000000E+00 0.  1.
         -3    1    6    6    0  502  0.73589373281E+02  0.31684535057E+02  0.87000231150E+02  0.11827233760E+03  0.00000000000E+00 0.  1.
<mgrwt>
<rscale>  0 0.25118633E+04</rscale>
<asrwt>0</asrwt>
<pdfrwt beam="1">  1        2 0.36436520E+00 0.25118633E+04</pdfrwt>
<pdfrwt beam="2">  1       -2 0.10246332E+00 0.25118633E+04</pdfrwt>
<totfact> 0.28780418E+00</totfact>
</mgrwt>
</event>
<event>
12    1  0.1960998E-007  0.2104592E+04  0.7818608E-02  0.8559223E-01
         -1   -1    0    0    0  501 -0.00000000000E+00  0.00000000000E+00  0.13131927009E+04  0.13131927009E+04  0.00000000000E+00 0.  1.
          1   -1    0    0  501    0  0.00000000000E+00 -0.00000000000E+00 -0.84323223201E+03  0.84323223201E+03  0.00000000000E+00 0. -1.
         23    2    1    2    0    0  0.13776428017E+03 -0.32720437104E+02 -0.67284897745E+03  0.69371197553E+03  0.91983338943E+02 0.  0.
        254    2    1    2    0    0 -0.13776428017E+03  0.32720437104E+02  0.11428094464E+04  0.14627129574E+04  0.90192357833E+03 0.  0.
        -24    2    4    4    0    0 -0.48986365869E+03  0.16385344671E+03  0.58830268876E+03  0.78761298259E+03  0.86138264687E+02 0.  0.
         24    2    4    4    0    0  0.35209937852E+03 -0.13113300960E+03  0.55450675759E+03  0.67509997479E+03  0.84335005732E+02 0.  0.
         13    1    3    3    0    0  0.10862696699E+03  0.16346321688E+02 -0.49012087247E+03  0.50228029009E+03  0.00000000000E+00 0. -1.
        -13    1    3    3    0    0  0.29137313175E+02 -0.49066758791E+02 -0.18272810498E+03  0.19143168544E+03  0.00000000000E+00 0.  1.
          2    1    6    6  502    0  0.99044668809E+02 -0.57540254173E+01  0.10687349851E+03  0.14582489469E+03  0.00000000000E+00 0. -1.
          1    1    5    5  503    0 -0.13395844882E+03  0.23750999809E+02  0.20563647189E+03  0.24656709954E+03  0.00000000000E+00 0. -1.
         -2    1    5    5    0  503 -0.35590520987E+03  0.14010244690E+03  0.38266621687E+03  0.54104588306E+03  0.00000000000E+00 0.  1.
         -1    1    6    6    0  502  0.25305470971E+03 -0.12537898419E+03  0.44763325908E+03  0.52927508010E+03  0.00000000000E+00 0.  1.
<mgrwt>
<rscale>  0 0.21045916E+04</rscale>
<asrwt>0</asrwt>
<pdfrwt beam="1">  1        1 0.12972804E+00 0.21045916E+04</pdfrwt>
<pdfrwt beam="2">  1       -1 0.20202965E+00 0.21045916E+04</pdfrwt>
<totfact> 0.27186320E+00</totfact>
</mgrwt>
</event>
<event>
12    1  0.1960998E-007  0.2591829E+04  0.7818608E-02  0.8370982E-01
          2   -1    0    0  501    0  0.00000000000E+00  0.00000000000E+00  0.76320390424E+03  0.76320390424E+03  0.00000000000E+00 0. -1.
         -2   -1    0    0    0  501 -0.00000000000E+00 -0.00000000000E+00 -0.22004539371E+04  0.22004539371E+04  0.00000000000E+00 0.  1.
         23    2    1    2    0    0 -0.50726459367E+03  0.97458189016E+03 -0.29691442508E+03  0.11418052418E+04  0.91835754603E+02 0.  0.
        254    2    1    2    0    0  0.50726459367E+03 -0.97458189016E+03 -0.11403356078E+04  0.18218525995E+04  0.90091862415E+03 0.  0.
        -24    2    4    4    0    0 -0.97779793722E+02 -0.59669785457E+03 -0.85293734739E+03  0.10485109463E+04  0.79144602729E+02 0.  0.
         24    2    4    4    0    0  0.60504438740E+03 -0.37788403560E+03 -0.28739826041E+03  0.77334165327E+03  0.81144916729E+02 0.  0.
         13    1    3    3    0    0 -0.29501778031E+03  0.47228611851E+03 -0.16480229993E+03  0.58073183700E+03  0.00000000000E+00 0.  1.
        -13    1    3    3    0    0 -0.21224681336E+03  0.50229577165E+03 -0.13211212516E+03  0.56107340484E+03  0.00000000000E+00 0. -1.
          2    1    6    6  502    0  0.59859048647E+03 -0.37329586061E+03 -0.29275231813E+03  0.76378288133E+03  0.00000000000E+00 0. -1.
          3    1    5    5  503    0 -0.40601693698E+02 -0.44851169922E+03 -0.65110746087E+03  0.79167680746E+03  0.00000000000E+00 0. -1.
         -4    1    5    5    0  503 -0.57178100024E+02 -0.14818615534E+03 -0.20182988652E+03  0.25683413879E+03  0.00000000000E+00 0.  1.
         -1    1    6    6    0  502  0.64539009259E+01 -0.45881749860E+01  0.53540577199E+01  0.95587719364E+01  0.00000000000E+00 0.  1.
<mgrwt>
<rscale>  0 0.25918295E+04</rscale>
<asrwt>0</asrwt>
<pdfrwt beam="1">  1        2 0.11741599E+00 0.25918295E+04</pdfrwt>
<pdfrwt beam="2">  1       -2 0.33853137E+00 0.25918295E+04</pdfrwt>
<totfact> 0.59606040E-01</totfact>
</mgrwt>
</event>
<event>
12    1  0.1960998E-007  0.1669929E+04  0.7818608E-02  0.8778704E-01
         -2   -1    0    0    0  501 -0.00000000000E+00  0.00000000000E+00  0.52927577826E+03  0.52927577826E+03  0.00000000000E+00 0.  1.
          2   -1    0    0  501    0  0.00000000000E+00 -0.00000000000E+00 -0.13172062025E+04  0.13172062025E+04  0.00000000000E+00 0. -1.
         23    2    1    2    0    0  0.41650150714E+03 -0.17698156950E+03  0.13433199157E+03  0.48081498968E+03  0.91334489370E+02 0.  0.
        254    2    1    2    0    0 -0.41650150714E+03  0.17698156950E+03 -0.92226241582E+03  0.13656669911E+04  0.89982353021E+03 0.  0.
        -24    2    4    4    0    0 -0.61003562211E+03  0.13201109108E+03 -0.28150763431E+03  0.68989127956E+03  0.84457332566E+02 0.  0.
         24    2    4    4    0    0  0.19353411497E+03  0.44970478426E+02 -0.64075478151E+03  0.67577571153E+03  0.81414523783E+02 0.  0.
         13    1    3    3    0    0  0.18538248454E+03 -0.30234193138E+02  0.50686486474E+02  0.19455048682E+03  0.00000000000E+00 0.  1.
        -13    1    3    3    0    0  0.23111902260E+03 -0.14674737637E+03  0.83645505095E+02  0.28626450286E+03  0.00000000000E+00 0. -1.
          4    1    6    6  502    0  0.17851512853E+03  0.61764300845E+02 -0.60207703974E+03  0.63101445447E+03  0.00000000000E+00 0. -1.
          1    1    5    5  503    0 -0.42644210161E+03  0.80468438245E+02 -0.15393100849E+03  0.46045932605E+03  0.00000000000E+00 0. -1.
         -2    1    5    5    0  503 -0.18359352051E+03  0.51542652832E+02 -0.12757662583E+03  0.22943195351E+03  0.00000000000E+00 0.  1.
         -3    1    6    6    0  502  0.15018986438E+02 -0.16793822418E+02 -0.38677741770E+02  0.44761257059E+02  0.00000000000E+00 0.  1.
<mgrwt>
<rscale>  0 0.16699285E+04</rscale>
<asrwt>0</asrwt>
<pdfrwt beam="1">  1        2 0.20264710E+00 0.16699285E+04</pdfrwt>
<pdfrwt beam="2">  1       -2 0.81427044E-01 0.16699285E+04</pdfrwt>
<totfact> 0.20466601E+01</totfact>
</mgrwt>
</event>
<event>
12    1  0.1960998E-007  0.1340039E+04  0.7818608E-02  0.8998403E-01
          2   -1    0    0  501    0  0.00000000000E+00  0.00000000000E+00  0.15910236086E+04  0.15910236086E+04  0.00000000000E+00 0. -1.
         -2   -1    0    0    0  501 -0.00000000000E+00 -0.00000000000E+00 -0.28216178168E+03  0.28216178168E+03  0.00000000000E+00 0.  1.
         23    2    1    2    0    0  0.99407163830E+02 -0.31766419107E+03  0.16978637661E+03  0.38412915849E+03  0.89081278669E+02 0.  0.
        254    2    1    2    0    0 -0.99407163830E+02  0.31766419107E+03  0.11390754503E+04  0.14890562318E+04  0.89944608367E+03 0.  0.
        -24    2    4    4    0    0  0.17842394790E+03 -0.11961743993E+03 -0.63291275584E+01  0.22888085210E+03  0.78758805728E+02 0.  0.
         24    2    4    4    0    0 -0.27783111173E+03  0.43728163100E+03  0.11454045779E+04  0.12601753797E+04  0.87664069733E+02 0.  0.
         11    1    3    3    0    0  0.60223651352E+02 -0.11243123548E+03  0.10549949924E+03  0.16552285411E+03  0.00000000000E+00 0. -1.
        -11    1    3    3    0    0  0.39183512478E+02 -0.20523295559E+03  0.64286877369E+02  0.21860630437E+03  0.00000000000E+00 0.  1.
          2    1    6    6  502    0 -0.27547482217E+03  0.43948473807E+03  0.11448970636E+04  0.12569099009E+04  0.00000000000E+00 0. -1.
          3    1    5    5  503    0  0.17873060985E+03 -0.99234315312E+02 -0.18286417043E+02  0.20524734659E+03  0.00000000000E+00 0. -1.
         -4    1    5    5    0  503 -0.30666194651E+00 -0.20383124622E+02  0.11957289485E+02  0.23633505511E+02  0.00000000000E+00 0.  1.
         -1    1    6    6    0  502 -0.23562895611E+01 -0.22031070680E+01  0.50751426758E+00  0.32654788287E+01  0.00000000000E+00 0.  1.
<mgrwt>
<rscale>  0 0.13400389E+04</rscale>
<asrwt>0</asrwt>
<pdfrwt beam="1">  1        2 0.24477286E+00 0.13400389E+04</pdfrwt>
<pdfrwt beam="2">  1       -2 0.43409506E-01 0.13400389E+04</pdfrwt>
<totfact> 0.55474862E+01</totfact>
</mgrwt>
</event>
<event>
12    1  0.1960998E-007  0.1171057E+04  0.7818608E-02  0.9138575E-01
          1   -1    0    0  501    0  0.00000000000E+00  0.00000000000E+00  0.26968000768E+04  0.26968000768E+04  0.00000000000E+00 0. -1.
         -1   -1    0    0    0  501 -0.00000000000E+00 -0.00000000000E+00 -0.12712976003E+03  0.12712976003E+03  0.00000000000E+00 0.  1.
         23    2    1    2    0    0  0.86477396256E+02 -0.72117088849E+02  0.71007909344E+02  0.16618625491E+03  0.99481322695E+02 0.  0.
        254    2    1    2    0    0 -0.86477396256E+02  0.72117088849E+02  0.24986624075E+04  0.26577435820E+04  0.89867007651E+03 0.  0.
        -24    2    4    4    0    0 -0.45699674376E+02 -0.19691241510E+03  0.94725777994E+02  0.23715218831E+03  0.80032668000E+02 0.  0.
         24    2    4    4    0    0 -0.40777721881E+02  0.26902950395E+03  0.24039366295E+04  0.24205913936E+04  0.79446081804E+02 0.  0.
         13    1    3    3    0    0  0.71543371764E+01 -0.61535050498E+02  0.44672969537E+01  0.62110415570E+02  0.00000000000E+00 0.  1.
        -13    1    3    3    0    0  0.79323059080E+02 -0.10582038350E+02  0.66540612390E+02  0.10407583934E+03  0.00000000000E+00 0. -1.
          2    1    6    6  502    0 -0.17055537108E+02  0.13366508527E+03  0.15291759971E+04  0.15351014548E+04  0.00000000000E+00 0. -1.
          1    1    5    5  503    0 -0.41543407632E+02 -0.15667008064E+03  0.36321144171E+02  0.16610416731E+03  0.00000000000E+00 0. -1.
         -2    1    5    5    0  503 -0.41562667445E+01 -0.40242334460E+02  0.58404633823E+02  0.71048021001E+02  0.00000000000E+00 0.  1.
         -1    1    6    6    0  502 -0.23722184773E+02  0.13536441867E+03  0.87476063233E+03  0.88548993883E+03  0.00000000000E+00 0.  1.
<mgrwt>
<rscale>  0 0.11710569E+04</rscale>
<asrwt>0</asrwt>
<pdfrwt beam="1">  1        1 0.41489228E+00 0.11710569E+04</pdfrwt>
<pdfrwt beam="2">  1       -1 0.19558427E-01 0.11710569E+04</pdfrwt>
<totfact> 0.20973733E+01</totfact>
</mgrwt>
</event>
<event>
12    1  0.1960998E-007  0.1465198E+04  0.7818608E-02  0.8907932E-01
         -1   -1    0    0    0  501 -0.00000000000E+00  0.00000000000E+00  0.66354502821E+03  0.66354502821E+03  0.00000000000E+00 0.  1.
          1   -1    0    0  501    0  0.00000000000E+00 -0.00000000000E+00 -0.80883884674E+03  0.80883884674E+03  0.00000000000E+00 0. -1.
         23    2    1    2    0    0  0.26263571768E+03  0.29361656744E+03  0.17133094305E+03  0.43910192547E+03  0.90928543507E+02 0.  0.
        254    2    1    2    0    0 -0.26263571768E+03 -0.29361656744E+03 -0.31662476159E+03  0.10332819495E+04  0.90123922385E+03 0.  0.
        -24    2    4    4    0    0 -0.52469239451E+03 -0.12655917889E+03 -0.42818334849E+03  0.69342179581E+03  0.78571447468E+02 0.  0.
         24    2    4    4    0    0  0.26205667683E+03 -0.16705738855E+03  0.11155858690E+03  0.33986015368E+03  0.80484363737E+02 0.  0.
         13    1    3    3    0    0  0.10240383412E+03  0.10350478032E+03  0.17299560584E+02  0.14662557617E+03  0.00000000000E+00 0. -1.
        -13    1    3    3    0    0  0.16023188357E+03  0.19011178712E+03  0.15403138247E+03  0.29247634930E+03  0.00000000000E+00 0.  1.
          4    1    6    6  502    0  0.95031341243E+02 -0.72987586839E+02  0.83673605724E+02  0.14614860911E+03  0.00000000000E+00 0. -1.
          1    1    5    5  503    0 -0.12752135407E+03 -0.37873655171E+02 -0.14992349116E+03  0.20043243925E+03  0.00000000000E+00 0. -1.
         -4    1    5    5    0  503 -0.39717104044E+03 -0.88685523721E+02 -0.27825985733E+03  0.49298935656E+03  0.00000000000E+00 0.  1.
         -3    1    6    6    0  502  0.16702533559E+03 -0.94069801709E+02  0.27884981176E+02  0.19371154456E+03  0.00000000000E+00 0.  1.
<mgrwt>
<rscale>  0 0.14651976E+04</rscale>
<asrwt>0</asrwt>
<pdfrwt beam="1">  1        1 0.12443675E+00 0.14651976E+04</pdfrwt>
<pdfrwt beam="2">  1       -1 0.10208385E+00 0.14651976E+04</pdfrwt>
<totfact> 0.19158528E+01</totfact>
</mgrwt>
</event>
<event>
12    1  0.1960998E-007  0.2098688E+04  0.7818608E-02  0.8561822E-01
          2   -1    0    0  501    0  0.00000000000E+00  0.00000000000E+00  0.74279613106E+03  0.74279613106E+03  0.00000000000E+00 0. -1.
         -2   -1    0    0    0  501 -0.00000000000E+00 -0.00000000000E+00 -0.14824022088E+04  0.14824022088E+04  0.00000000000E+00 0.  1.
         23    2    1    2    0    0  0.35406522439E+03  0.44055166274E+03  0.37138773702E+03  0.68226399130E+03  0.90040834864E+02 0.  0.
        254    2    1    2    0    0 -0.35406522439E+03 -0.44055166274E+03 -0.11109938148E+04  0.15429343486E+04  0.90933557989E+03 0.  0.
        -24    2    4    4    0    0  0.14381422069E+03  0.18598861891E+03 -0.39445594622E+03  0.46601664540E+03  0.79383397809E+02 0.  0.
         24    2    4    4    0    0 -0.49787944508E+03 -0.62654028164E+03 -0.71653786855E+03  0.10769177032E+04  0.76736926939E+02 0.  0.
         11    1    3    3    0    0  0.21201494985E+03  0.24031766767E+03  0.25997932857E+03  0.41266472061E+03  0.00000000000E+00 0. -1.
        -11    1    3    3    0    0  0.14205027454E+03  0.20023399507E+03  0.11140840845E+03  0.26959927068E+03  0.00000000000E+00 0.  1.
          4    1    6    6  502    0 -0.97254220387E+02 -0.16823220380E+03 -0.15200416442E+03  0.24670979668E+03  0.00000000000E+00 0. -1.
          3    1    5    5  503    0  0.77268995321E+02  0.12010708264E+03 -0.30374088012E+03  0.33564077702E+03  0.00000000000E+00 0. -1.
         -4    1    5    5    0  503  0.66545225370E+02  0.65881536265E+02 -0.90715066097E+02  0.13037586839E+03  0.00000000000E+00 0.  1.
         -3    1    6    6    0  502 -0.40062522470E+03 -0.45830807785E+03 -0.56453370412E+03  0.83020790648E+03  0.00000000000E+00 0.  1.
<mgrwt>
<rscale>  0 0.20986878E+04</rscale>
<asrwt>0</asrwt>
<pdfrwt beam="1">  1        2 0.11427633E+00 0.20986878E+04</pdfrwt>
<pdfrwt beam="2">  1       -2 0.22806188E+00 0.20986878E+04</pdfrwt>
<totfact> 0.30758236E+00</totfact>
</mgrwt>
</event>
<event>
12    1  0.1960998E-007  0.2234559E+04  0.7818608E-02  0.8504180E-01
          2   -1    0    0  501    0  0.00000000000E+00  0.00000000000E+00  0.19003318765E+04  0.19003318765E+04  0.00000000000E+00 0. -1.
         -2   -1    0    0    0  501 -0.00000000000E+00 -0.00000000000E+00 -0.65689235339E+03  0.65689235339E+03  0.00000000000E+00 0.  1.
         23    2    1    2    0    0 -0.59647084462E+03  0.71741836142E+03  0.46368298504E+03  0.10457872276E+04  0.90567328045E+02 0.  0.
        254    2    1    2    0    0  0.59647084462E+03 -0.71741836142E+03  0.77975653808E+03  0.15114370023E+04  0.89774995382E+03 0.  0.
        -24    2    4    4    0    0  0.64410551389E+03 -0.84422325574E+03  0.82705332083E+03  0.13483501693E+04  0.80288013001E+02 0.  0.
         24    2    4    4    0    0 -0.47634669269E+02  0.12680489431E+03 -0.47296782747E+02  0.16308683303E+03  0.77535711204E+02 0.  0.
         13    1    3    3    0    0 -0.21365523159E+03  0.28958190657E+03  0.22238381514E+03  0.42303758679E+03  0.00000000000E+00 0. -1.
        -13    1    3    3    0    0 -0.38281561302E+03  0.42783645485E+03  0.24129916990E+03  0.62274964076E+03  0.00000000000E+00 0.  1.
          2    1    6    6  502    0  0.17857955424E+02  0.51552403409E+02 -0.51909301875E+01  0.54804220872E+02  0.00000000000E+00 0. -1.
          3    1    5    5  503    0  0.29085415373E+03 -0.40215851388E+03  0.33848264173E+03  0.60074795696E+03  0.00000000000E+00 0. -1.
         -4    1    5    5    0  503  0.35325136015E+03 -0.44206474186E+03  0.48857067910E+03  0.74760221235E+03  0.00000000000E+00 0.  1.
         -1    1    6    6    0  502 -0.65492624692E+02  0.75252490906E+02 -0.42105852560E+02  0.10828261216E+03  0.00000000000E+00 0.  1.
<mgrwt>
<rscale>  0 0.22345590E+04</rscale>
<asrwt>0</asrwt>
<pdfrwt beam="1">  1        2 0.29235875E+00 0.22345590E+04</pdfrwt>
<pdfrwt beam="2">  1       -2 0.10106036E+00 0.22345590E+04</pdfrwt>
<totfact> 0.55726800E+00</totfact>
</mgrwt>
</event>
<event>
12    1  0.1960998E-007  0.1984762E+04  0.7818608E-02  0.8613778E-01
         -2   -1    0    0    0  501 -0.00000000000E+00  0.00000000000E+00  0.41593047669E+03  0.41593047669E+03  0.00000000000E+00 0. -1.
          2   -1    0    0  501    0  0.00000000000E+00 -0.00000000000E+00 -0.23677525113E+04  0.23677525113E+04  0.00000000000E+00 0.  1.
         23    2    1    2    0    0 -0.61000100563E+03 -0.49106373283E+03 -0.84071058957E+03  0.11529205399E+04  0.95847062385E+02 0.  0.
        254    2    1    2    0    0  0.61000100563E+03  0.49106373283E+03 -0.11111114450E+04  0.16307624480E+04  0.90087329971E+03 0.  0.
        -24    2    4    4    0    0  0.50034383587E+03  0.68936797516E+03 -0.54110403893E+03  0.10123661555E+04  0.80743375313E+02 0.  0.
         24    2    4    4    0    0  0.10965716976E+03 -0.19830424232E+03 -0.57000740609E+03  0.61839629251E+03  0.78461864593E+02 0.  0.
         13    1    3    3    0    0 -0.17943517553E+03 -0.17281251339E+03 -0.21197498737E+03  0.32710020219E+03  0.00000000000E+00 0. -1.
        -13    1    3    3    0    0 -0.43056583010E+03 -0.31825121945E+03 -0.62873560220E+03  0.82582033773E+03  0.00000000000E+00 0.  1.
          4    1    6    6  502    0  0.41000531051E+02 -0.14855846043E+02 -0.91959186650E+02  0.10177539839E+03  0.00000000000E+00 0. -1.
          3    1    5    5  503    0  0.38601011429E+03  0.56554118933E+03 -0.40332158395E+03  0.79467537097E+03  0.00000000000E+00 0. -1.
         -4    1    5    5    0  503  0.11433372158E+03  0.12382678583E+03 -0.13778245499E+03  0.21769078456E+03  0.00000000000E+00 0.  1.
         -3    1    6    6    0  502  0.68656638713E+02 -0.18344839628E+03 -0.47804821944E+03  0.51662089412E+03  0.00000000000E+00 0.  1.
<mgrwt>
<rscale>  0 0.19847624E+04</rscale>
<asrwt>0</asrwt>
<pdfrwt beam="1">  1        2 0.36426962E+00 0.19847624E+04</pdfrwt>
<pdfrwt beam="2">  1       -2 0.63989304E-01 0.19847624E+04</pdfrwt>
<totfact> 0.87150230E+00</totfact>
</mgrwt>
</event>
<event>
12    1  0.1960998E-007  0.4364978E+04  0.7818608E-02  0.7934711E-01
          1   -1    0    0  501    0  0.00000000000E+00  0.00000000000E+00  0.16847515600E+04  0.16847515600E+04  0.00000000000E+00 0. -1.
         -1   -1    0    0    0  501 -0.00000000000E+00 -0.00000000000E+00 -0.28272758942E+04  0.28272758942E+04  0.00000000000E+00 0.  1.
         23    2    1    2    0    0 -0.17551949405E+04  0.10947622404E+04 -0.25082379224E+03  0.20858199650E+04  0.92296854730E+02 0.  0.
        254    2    1    2    0    0  0.17551949405E+04 -0.10947622404E+04 -0.89170054190E+03  0.24262074892E+04  0.90118770633E+03 0.  0.
        -24    2    4    4    0    0  0.20922556705E+03  0.12878636876E+03  0.37403456593E+01  0.25935789700E+03  0.83013624554E+02 0.  0.
         24    2    4    4    0    0  0.15459693735E+04 -0.12235486092E+04 -0.89544088756E+03  0.21668495922E+04  0.79562990565E+02 0.  0.
         11    1    3    3    0    0 -0.70911303358E+03  0.47553692507E+03 -0.67628727536E+02  0.85647551412E+03  0.00000000000E+00 0. -1.
        -11    1    3    3    0    0 -0.10460819069E+04  0.61922531535E+03 -0.18319506470E+03  0.12293444509E+04  0.00000000000E+00 0.  1.
          4    1    6    6  502    0  0.23650469190E+03 -0.21685096462E+03 -0.12617689762E+03  0.34478894942E+03  0.00000000000E+00 0. -1.
          1    1    5    5  503    0 -0.16245328884E+01  0.18927453693E+02  0.10108581823E+02  0.21519085410E+02  0.00000000000E+00 0. -1.
         -2    1    5    5    0  503  0.21085009994E+03  0.10985891507E+03 -0.63682361637E+01  0.23783881159E+03  0.00000000000E+00 0.  1.
         -1    1    6    6    0  502  0.13094646816E+04 -0.10066976446E+04 -0.76926398994E+03  0.18220606428E+04  0.00000000000E+00 0.  1.
<mgrwt>
<rscale>  0 0.43649777E+04</rscale>
<asrwt>0</asrwt>
<pdfrwt beam="1">  1        1 0.25919255E+00 0.43649777E+04</pdfrwt>
<pdfrwt beam="2">  1       -1 0.43496552E+00 0.43649777E+04</pdfrwt>
<totfact> 0.15244746E-02</totfact>
</mgrwt>
</event>
<event>
12    1  0.1960998E-007  0.1679267E+04  0.7818608E-02  0.8773278E-01
          3   -1    0    0  501    0  0.00000000000E+00  0.00000000000E+00  0.68356226506E+03  0.68356226506E+03  0.00000000000E+00 0. -1.
         -3   -1    0    0    0  501 -0.00000000000E+00 -0.00000000000E+00 -0.10313395282E+04  0.10313395282E+04  0.00000000000E+00 0.  1.
         23    2    1    2    0    0 -0.54189574083E+03  0.24140602681E+03 -0.17803517328E+03  0.62603958751E+03  0.91110803392E+02 0.  0.
        254    2    1    2    0    0  0.54189574083E+03 -0.24140602681E+03 -0.16974208990E+03  0.10888622058E+04  0.89715141553E+03 0.  0.
        -24    2    4    4    0    0  0.68206915367E+02  0.10958740395E+03  0.29665325623E+03  0.33283576011E+03  0.78197866775E+02 0.  0.
         24    2    4    4    0    0  0.47368882546E+03 -0.35099343077E+03 -0.46639534613E+03  0.75602644567E+03  0.80460399328E+02 0.  0.
         11    1    3    3    0    0 -0.27829740060E+03  0.13021591137E+03 -0.45006632266E+02  0.31053377224E+03  0.00000000000E+00 0.  1.
        -11    1    3    3    0    0 -0.26359834023E+03  0.11119011544E+03 -0.13302854102E+03  0.31550581527E+03  0.00000000000E+00 0. -1.
          2    1    6    6  502    0  0.12601586446E+03 -0.13823144148E+03 -0.15908458418E+03  0.24555210126E+03  0.00000000000E+00 0. -1.
          3    1    5    5  503    0  0.67523985612E+02  0.66182435408E+02  0.13079474305E+03  0.16139042165E+03  0.00000000000E+00 0. -1.
         -4    1    5    5    0  503  0.68292975534E+00  0.43404968545E+02  0.16585851318E+03  0.17144533846E+03  0.00000000000E+00 0.  1.
         -1    1    6    6    0  502  0.34767296100E+03 -0.21276198929E+03 -0.30731076195E+03  0.51047434442E+03  0.00000000000E+00 0.  1.
<mgrwt>
<rscale>  0 0.16792674E+04</rscale>
<asrwt>0</asrwt>
<pdfrwt beam="1">  1        3 0.10516343E+00 0.16792674E+04</pdfrwt>
<pdfrwt beam="2">  1       -3 0.15866762E+00 0.16792674E+04</pdfrwt>
<totfact> 0.53949748E-01</totfact>
</mgrwt>
</event>
<event>
12    1  0.1960998E-007  0.1761139E+04  0.7818608E-02  0.8727243E-01
          2   -1    0    0  501    0  0.00000000000E+00  0.00000000000E+00  0.14729856649E+04  0.14729856649E+04  0.00000000000E+00 0.  1.
         -2   -1    0    0    0  501 -0.00000000000E+00 -0.00000000000E+00 -0.52641551312E+03  0.52641551312E+03  0.00000000000E+00 0. -1.
         23    2    1    2    0    0 -0.63404059818E+03  0.12886273549E+03  0.37548548897E+03  0.75338719727E+03  0.89385859292E+02 0.  0.
        254    2    1    2    0    0  0.63404059818E+03 -0.12886273549E+03  0.57108466283E+03  0.12460139808E+04  0.89877698202E+03 0.  0.
        -24    2    4    4    0    0  0.54246277381E+02 -0.43384946643E+03  0.27313977004E+03  0.52186566913E+03  0.81058155134E+02 0.  0.
         24    2    4    4    0    0  0.57979432080E+03  0.30498673093E+03  0.29794489279E+03  0.72414831163E+03  0.80257445923E+02 0.  0.
         11    1    3    3    0    0 -0.18032858605E+03  0.32598909800E+02  0.15417597596E+03  0.23948135508E+03  0.00000000000E+00 0.  1.
        -11    1    3    3    0    0 -0.45371201213E+03  0.96263825693E+02  0.22130951301E+03  0.51390584219E+03  0.00000000000E+00 0. -1.
          2    1    6    6  502    0  0.53258045226E+03  0.29635899933E+03  0.25855465951E+03  0.66205823503E+03  0.00000000000E+00 0. -1.
          1    1    5    5  503    0  0.34307197862E+02 -0.51986551250E+02  0.37145533211E+02  0.72521555234E+02  0.00000000000E+00 0. -1.
         -2    1    5    5    0  503  0.19939079519E+02 -0.38186291518E+03  0.23599423683E+03  0.44934411390E+03  0.00000000000E+00 0.  1.
         -1    1    6    6    0  502  0.47213868540E+02  0.86277315996E+01  0.39390233278E+02  0.62090076605E+02  0.00000000000E+00 0.  1.
<mgrwt>
<rscale>  0 0.17611388E+04</rscale>
<asrwt>0</asrwt>
<pdfrwt beam="1">  1        2 0.22661318E+00 0.17611388E+04</pdfrwt>
<pdfrwt beam="2">  1       -2 0.80987002E-01 0.17611388E+04</pdfrwt>
<totfact> 0.16742891E+01</totfact>
</mgrwt>
</event>
<event>
12    1  0.1960998E-007  0.1323385E+04  0.7818608E-02  0.9011224E-01
         -1   -1    0    0    0  501 -0.00000000000E+00  0.00000000000E+00  0.93678849940E+03  0.93678849940E+03  0.00000000000E+00 0.  1.
          1   -1    0    0  501    0  0.00000000000E+00 -0.00000000000E+00 -0.46738076318E+03  0.46738076318E+03  0.00000000000E+00 0. -1.
         23    2    1    2    0    0 -0.97996212588E+02  0.18071217881E+03 -0.16900207319E+03  0.28176930312E+03  0.92585583029E+02 0.  0.
        254    2    1    2    0    0  0.97996212588E+02 -0.18071217881E+03  0.63840980941E+03  0.11223999595E+04  0.89997468575E+03 0.  0.
        -24    2    4    4    0    0  0.38857447459E+03 -0.50618976860E+02 -0.52640916983E+01  0.39990330640E+03  0.79640069593E+02 0.  0.
         24    2    4    4    0    0 -0.29057826200E+03 -0.13009320195E+03  0.64367390111E+03  0.72249665306E+03  0.79532101568E+02 0.  0.
         13    1    3    3    0    0 -0.71423322443E+02  0.80440904527E+02 -0.36725820664E+02  0.11366976737E+03  0.00000000000E+00 0.  1.
        -13    1    3    3    0    0 -0.26572890145E+02  0.10027127428E+03 -0.13227625253E+03  0.16809953575E+03  0.00000000000E+00 0. -1.
          2    1    6    6  502    0 -0.29370510470E+03 -0.13356987724E+03  0.62656731842E+03  0.70476251685E+03  0.00000000000E+00 0. -1.
          3    1    5    5  503    0  0.37150853895E+03 -0.30138319180E+02  0.26946961994E-02  0.37272900719E+03  0.00000000000E+00 0. -1.
         -4    1    5    5    0  503  0.17065935638E+02 -0.20480657680E+02 -0.52667863945E+01  0.27174299202E+02  0.00000000000E+00 0.  1.
         -3    1    6    6    0  502  0.31268426996E+01  0.34766752872E+01  0.17106582682E+02  0.17734136217E+02  0.00000000000E+00 0.  1.
<mgrwt>
<rscale>  0 0.13233849E+04</rscale>
<asrwt>0</asrwt>
<pdfrwt beam="1">  1        1 0.71904733E-01 0.13233849E+04</pdfrwt>
<pdfrwt beam="2">  1       -1 0.14412131E+00 0.13233849E+04</pdfrwt>
<totfact> 0.18522643E+01</totfact>
</mgrwt>
</event>
<event>
12    1  0.1960998E-007  0.2521724E+04  0.7818608E-02  0.8395287E-01
         -2   -1    0    0    0  501 -0.00000000000E+00  0.00000000000E+00  0.42065151170E+03  0.42065151170E+03  0.00000000000E+00 0.  1.
          2   -1    0    0  501    0  0.00000000000E+00 -0.00000000000E+00 -0.37793113020E+04  0.37793113020E+04  0.00000000000E+00 0. -1.
         23    2    1    2    0    0 -0.66440675598E+03  0.24106130673E+03 -0.68083055941E+02  0.71588644830E+03  0.91165856330E+02 0.  0.
        254    2    1    2    0    0  0.66440675598E+03 -0.24106130673E+03 -0.32905767343E+04  0.34840763654E+04  0.90074745865E+03 0.  0.
        -24    2    4    4    0    0  0.34065014312E+03  0.12097878311E+03 -0.26536726908E+04  0.26793900253E+04  0.80459754405E+02 0.  0.
         24    2    4    4    0    0  0.32375661286E+03 -0.36204008984E+03 -0.63690404357E+03  0.80468634006E+03  0.77343223010E+02 0.  0.
         11    1    3    3    0    0 -0.63552994421E+03  0.22582592628E+03 -0.45113396558E+02  0.67596662456E+03  0.00000000000E+00 0.  1.
        -11    1    3    3    0    0 -0.28876811770E+02  0.15235380449E+02 -0.22969659383E+02  0.39919823743E+02  0.00000000000E+00 0. -1.
          2    1    6    6  502    0  0.38271403794E+02 -0.31628587011E+02 -0.10766403179E+03  0.11856058201E+03  0.00000000000E+00 0. -1.
          3    1    5    5  503    0  0.67637874975E+02 -0.43114254108E+01 -0.61120034209E+03  0.61494660637E+03  0.00000000000E+00 0. -1.
         -4    1    5    5    0  503  0.27301226814E+03  0.12529020853E+03 -0.20424723487E+04  0.20644434189E+04  0.00000000000E+00 0.  1.
         -1    1    6    6    0  502  0.28548520907E+03 -0.33041150283E+03 -0.52924001177E+03  0.68612575805E+03  0.00000000000E+00 0.  1.
<mgrwt>
<rscale>  0 0.25217240E+04</rscale>
<asrwt>0</asrwt>
<pdfrwt beam="1">  1        2 0.58143247E+00 0.25217240E+04</pdfrwt>
<pdfrwt beam="2">  1       -2 0.64715621E-01 0.25217240E+04</pdfrwt>
<totfact> 0.10012645E+00</totfact>
</mgrwt>
</event>
<event>
12    1  0.1960998E-007  0.1279500E+04  0.7818608E-02  0.9045981E-01
         -1   -1    0    0    0  501 -0.00000000000E+00  0.00000000000E+00  0.50108913176E+03  0.50108913176E+03  0.00000000000E+00 0.  1.
          1   -1    0    0  501    0  0.00000000000E+00 -0.00000000000E+00 -0.81678123491E+03  0.81678123491E+03  0.00000000000E+00 0. -1.
         23    2    1    2    0    0 -0.17143093910E+03 -0.25580586316E+03 -0.25242579409E+02  0.32212537026E+03  0.91117286171E+02 0.  0.
        254    2    1    2    0    0  0.17143093910E+03  0.25580586316E+03 -0.29044952374E+03  0.99574499641E+03  0.90128905770E+03 0.  0.
        -24    2    4    4    0    0  0.69227260684E+02  0.56047078857E+03 -0.33504527741E+03  0.66162781760E+03  0.81093234202E+02 0.  0.
         24    2    4    4    0    0  0.10220367842E+03 -0.30466492541E+03  0.44595753669E+02  0.33411717881E+03  0.79869889655E+02 0.  0.
         11    1    3    3    0    0 -0.28243275528E+02 -0.80622948734E+02 -0.42109565220E+02  0.95241576835E+02  0.00000000000E+00 0. -1.
        -11    1    3    3    0    0 -0.14318766358E+03 -0.17518291443E+03  0.16866985811E+02  0.22688379342E+03  0.00000000000E+00 0.  1.
          2    1    6    6  502    0  0.60746964059E+02 -0.21553330426E+03 -0.50575651193E+01  0.22398745022E+03  0.00000000000E+00 0. -1.
          3    1    5    5  503    0  0.34266133833E+01  0.33543932974E+03 -0.21221664762E+03  0.39694734051E+03  0.00000000000E+00 0. -1.
         -4    1    5    5    0  503  0.65800647301E+02  0.22503145884E+03 -0.12282862979E+03  0.26468047708E+03  0.00000000000E+00 0.  1.
         -1    1    6    6    0  502  0.41456714360E+02 -0.89131621150E+02  0.49653318789E+02  0.11012972860E+03  0.00000000000E+00 0.  1.
<mgrwt>
<rscale>  0 0.12795002E+04</rscale>
<asrwt>0</asrwt>
<pdfrwt beam="1">  1        1 0.12565865E+00 0.12795002E+04</pdfrwt>
<pdfrwt beam="2">  1       -1 0.77090636E-01 0.12795002E+04</pdfrwt>
<totfact> 0.35514624E+01</totfact>
</mgrwt>
</event>
<event>
12    1  0.2848116E-007  0.2586166E+04  0.7818608E-02  0.8372916E-01
         -2   -1    0    0    0  501 -0.00000000000E+00  0.00000000000E+00  0.83872227698E+03  0.83872227698E+03  0.00000000000E+00 0.  1.
          2   -1    0    0  501    0  0.00000000000E+00 -0.00000000000E+00 -0.19935842518E+04  0.19935842518E+04  0.00000000000E+00 0. -1.
         23    2    1    2    0    0  0.66272312085E+03 -0.87994732444E+03 -0.26091665382E+03  0.11355058789E+04  0.88243254729E+02 0.  0.
        254    2    1    2    0    0 -0.66272312085E+03  0.87994732444E+03 -0.89394532098E+03  0.16968006499E+04  0.93085174966E+03 0.  0.
        -24    2    4    4    0    0 -0.63869666205E+03  0.11459389631E+03 -0.27807318981E+03  0.71093457784E+03  0.83893312538E+02 0.  0.
         24    2    4    4    0    0 -0.24026458801E+02  0.76535342813E+03 -0.61587213117E+03  0.98586607205E+03  0.79311344671E+02 0.  0.
         13    1    3    3    0    0  0.38147290017E+03 -0.52734961474E+03 -0.19666474447E+03  0.67992368061E+03  0.00000000000E+00 0. -1.
        -13    1    3    3    0    0  0.28125022068E+03 -0.35259770969E+03 -0.64251909346E+02  0.45558219826E+03  0.00000000000E+00 0.  1.
          4    1    6    6  502    0 -0.27590074638E+02  0.99104471942E+02 -0.68509175706E+02  0.12359779825E+03  0.00000000000E+00 0. -1.
          3    1    5    5  503    0 -0.71305413540E+02 -0.90802969012E+01 -0.15087237674E+02  0.73447522304E+02  0.00000000000E+00 0. -1.
         -4    1    5    5    0  503 -0.56739124851E+03  0.12367419321E+03 -0.26298595214E+03  0.63748705553E+03  0.00000000000E+00 0.  1.
         -3    1    6    6    0  502  0.35636158363E+01  0.66624895618E+03 -0.54736295546E+03  0.86226827379E+03  0.00000000000E+00 0.  1.
<mgrwt>
<rscale>  0 0.25861659E+04</rscale>
<asrwt>0</asrwt>
<pdfrwt beam="1">  1        2 0.30670527E+00 0.25861659E+04</pdfrwt>
<pdfrwt beam="2">  1       -2 0.12903420E+00 0.25861659E+04</pdfrwt>
<totfact> 0.26403134E+00</totfact>
</mgrwt>
</event>
<event>
12    1  0.1960998E-007  0.1559460E+04  0.7818608E-02  0.8845848E-01
          2   -1    0    0  501    0  0.00000000000E+00  0.00000000000E+00  0.87735333138E+03  0.87735333138E+03  0.00000000000E+00 0. -1.
         -2   -1    0    0    0  501 -0.00000000000E+00 -0.00000000000E+00 -0.69296929758E+03  0.69296929758E+03  0.00000000000E+00 0.  1.
         23    2    1    2    0    0 -0.50467993794E+03  0.93195419494E+02  0.28660570439E+02  0.52218724675E+03  0.92037309795E+02 0.  0.
        254    2    1    2    0    0  0.50467993794E+03 -0.93195419494E+02  0.15572346336E+03  0.10481353822E+04  0.90052804312E+03 0.  0.
        -24    2    4    4    0    0  0.93892359429E+02  0.36721678149E+03 -0.55095753939E+02  0.39126419784E+03  0.79926157451E+02 0.  0.
         24    2    4    4    0    0  0.41078757851E+03 -0.46041220098E+03  0.21081921730E+03  0.65687118438E+03  0.79430353203E+02 0.  0.
         13    1    3    3    0    0 -0.24044544137E+03  0.51329482365E+01  0.38127640989E+02  0.24350374626E+03  0.00000000000E+00 0.  1.
        -13    1    3    3    0    0 -0.26423449657E+03  0.88062471258E+02 -0.94670705500E+01  0.27868350049E+03  0.00000000000E+00 0. -1.
          4    1    6    6  502    0  0.82655067777E+02 -0.81348431198E+02  0.72551288819E+02  0.13679589539E+03  0.00000000000E+00 0. -1.
          1    1    5    5  503    0  0.20442300715E+02  0.10354627045E+02 -0.54543197678E+01  0.23555372294E+02  0.00000000000E+00 0. -1.
         -2    1    5    5    0  503  0.73450058714E+02  0.35686215444E+03 -0.49641434171E+02  0.36770882555E+03  0.00000000000E+00 0.  1.
         -3    1    6    6    0  502  0.32813251073E+03 -0.37906376979E+03  0.13826792848E+03  0.52007528898E+03  0.00000000000E+00 0.  1.
<mgrwt>
<rscale>  0 0.15594601E+04</rscale>
<asrwt>0</asrwt>
<pdfrwt beam="1">  1        2 0.13497744E+00 0.15594601E+04</pdfrwt>
<pdfrwt beam="2">  1       -2 0.10661066E+00 0.15594601E+04</pdfrwt>
<totfact> 0.20713538E+01</totfact>
</mgrwt>
</event>
<event>
12    1  0.1960998E-007  0.3296701E+04  0.7818608E-02  0.8163735E-01
          2   -1    0    0  501    0  0.00000000000E+00  0.00000000000E+00  0.35688913838E+04  0.35688913838E+04  0.00000000000E+00 0. -1.
         -2   -1    0    0    0  501 -0.00000000000E+00 -0.00000000000E+00 -0.76131741368E+03  0.76131741368E+03  0.00000000000E+00 0.  1.
         23    2    1    2    0    0  0.10804518371E+04  0.90155600690E+03  0.20362264607E+04  0.24767631506E+04  0.89208178111E+02 0.  0.
        254    2    1    2    0    0 -0.10804518371E+04 -0.90155600690E+03  0.77134750940E+03  0.18534456469E+04  0.92741812569E+03 0.  0.
        -24    2    4    4    0    0 -0.49446135315E+03  0.10963433703E+03  0.20832402494E+03  0.55371643984E+03  0.81800236943E+02 0.  0.
         24    2    4    4    0    0 -0.58599048392E+03 -0.10111903439E+04  0.56302348446E+03  0.12997292070E+04  0.80061280692E+02 0.  0.
         13    1    3    3    0    0  0.69705899494E+03  0.56730634163E+03  0.13720254350E+04  0.16401772837E+04  0.00000000000E+00 0. -1.
        -13    1    3    3    0    0  0.38339284214E+03  0.33424966527E+03  0.66420102567E+03  0.83658586686E+03  0.00000000000E+00 0.  1.
          4    1    6    6  502    0 -0.48588084091E+03 -0.77297452496E+03  0.43356823340E+03  0.10107181708E+04  0.00000000000E+00 0. -1.
          3    1    5    5  503    0 -0.47777723265E+03  0.10555049180E+03  0.18152328255E+03  0.52188379211E+03  0.00000000000E+00 0. -1.
         -4    1    5    5    0  503 -0.16684120498E+02  0.40838452317E+01  0.26800742390E+02  0.31832647727E+02  0.00000000000E+00 0.  1.
         -3    1    6    6    0  502 -0.10010964302E+03 -0.23821581897E+03  0.12945525106E+03  0.28901103622E+03  0.00000000000E+00 0.  1.
<mgrwt>
<rscale>  0 0.32967009E+04</rscale>
<asrwt>0</asrwt>
<pdfrwt beam="1">  1        2 0.54906020E+00 0.32967009E+04</pdfrwt>
<pdfrwt beam="2">  1       -2 0.11712576E+00 0.32967009E+04</pdfrwt>
<totfact> 0.34178591E-01</totfact>
</mgrwt>
</event>
<event>
12    1  0.1960998E-007  0.1907397E+04  0.7818608E-02  0.8651183E-01
          2   -1    0    0  501    0  0.00000000000E+00  0.00000000000E+00  0.12770140713E+04  0.12770140713E+04  0.00000000000E+00 0. -1.
         -2   -1    0    0    0  501 -0.00000000000E+00 -0.00000000000E+00 -0.71224028147E+03  0.71224028147E+03  0.00000000000E+00 0.  1.
         23    2    1    2    0    0  0.15960645577E+03 -0.70672630718E+03  0.74703139786E+02  0.73415532107E+03  0.92017293942E+02 0.  0.
        254    2    1    2    0    0 -0.15960645577E+03  0.70672630718E+03  0.49007065003E+03  0.12550990317E+04  0.90009335256E+03 0.  0.
        -24    2    4    4    0    0 -0.19457701152E+03 -0.12849169672E+03  0.31048298207E+03  0.39645167228E+03  0.80024475998E+02 0.  0.
         24    2    4    4    0    0  0.34970555752E+02  0.83521800389E+03  0.17958766796E+03  0.85864735940E+03  0.78813092356E+02 0.  0.
         11    1    3    3    0    0  0.72872991471E+02 -0.22599717585E+03  0.62364839233E+02  0.24550879730E+03  0.00000000000E+00 0. -1.
        -11    1    3    3    0    0  0.86733464298E+02 -0.48072913132E+03  0.12338300553E+02  0.48864652377E+03  0.00000000000E+00 0.  1.
          4    1    6    6  502    0  0.44293622792E+02  0.26033738286E+03  0.71921375062E+02  0.27369720883E+03  0.00000000000E+00 0. -1.
          1    1    5    5  503    0 -0.20247866394E+03 -0.12370141603E+03  0.29820685076E+03  0.38108657221E+03  0.00000000000E+00 0. -1.
         -2    1    5    5    0  503  0.79016524228E+01 -0.47902806894E+01  0.12276131308E+02  0.15365100064E+02  0.00000000000E+00 0.  1.
         -1    1    6    6    0  502 -0.93230670394E+01  0.57488062104E+03  0.10766629290E+03  0.58495015057E+03  0.00000000000E+00 0.  1.
<mgrwt>
<rscale>  0 0.19073970E+04</rscale>
<asrwt>0</asrwt>
<pdfrwt beam="1">  1        2 0.19646370E+00 0.19073970E+04</pdfrwt>
<pdfrwt beam="2">  1       -2 0.10957543E+00 0.19073970E+04</pdfrwt>
<totfact> 0.10586942E+01</totfact>
</mgrwt>
</event>
<event>
12    1  0.1960998E-007  0.2472728E+04  0.7818608E-02  0.8412766E-01
          2   -1    0    0  501    0  0.00000000000E+00  0.00000000000E+00  0.84709843201E+03  0.84709843201E+03  0.00000000000E+00 0. -1.
         -2   -1    0    0    0  501 -0.00000000000E+00 -0.00000000000E+00 -0.18045080458E+04  0.18045080458E+04  0.00000000000E+00 0.  1.
         23    2    1    2    0    0 -0.84303551575E+03  0.47516727924E+03 -0.90812133047E+03  0.13302225831E+04  0.91186323905E+02 0.  0.
        254    2    1    2    0    0  0.84303551575E+03 -0.47516727924E+03 -0.49288283271E+02  0.13213838947E+04  0.89840594283E+03 0.  0.
        -24    2    4    4    0    0  0.35243807442E+03 -0.19534134107E+03  0.41618134306E+03  0.58510931983E+03  0.82311420885E+02 0.  0.
         24    2    4    4    0    0  0.49059744133E+03 -0.27982593817E+03 -0.46546962634E+03  0.73627457482E+03  0.80311091271E+02 0.  0.
         13    1    3    3    0    0  0.10822942624E+01 -0.11762931355E+01  0.50319850574E+00  0.16757789673E+01  0.00000000000E+00 0. -1.
        -13    1    3    3    0    0 -0.84411781001E+03  0.47634357237E+03 -0.90862452898E+03  0.13285468041E+04  0.00000000000E+00 0.  1.
          4    1    6    6  502    0  0.23508739085E+03 -0.11439870935E+03 -0.26208509258E+03  0.37019149341E+03  0.00000000000E+00 0. -1.
          1    1    5    5  503    0  0.16899109533E+03 -0.14035744386E+03  0.22831812032E+03  0.31683965411E+03  0.00000000000E+00 0. -1.
         -2    1    5    5    0  503  0.18344697909E+03 -0.54983897214E+02  0.18786322274E+03  0.26826966572E+03  0.00000000000E+00 0.  1.
         -1    1    6    6    0  502  0.25551005048E+03 -0.16542722882E+03 -0.20338453376E+03  0.36608308142E+03  0.00000000000E+00 0.  1.
<mgrwt>
<rscale>  0 0.24727280E+04</rscale>
<asrwt>0</asrwt>
<pdfrwt beam="1">  1        2 0.13032284E+00 0.24727280E+04</pdfrwt>
<pdfrwt beam="2">  1       -2 0.27761662E+00 0.24727280E+04</pdfrwt>
<totfact> 0.12412466E+00</totfact>
</mgrwt>
</event>
<event>
12    1  0.1960998E-007  0.2554014E+04  0.7818608E-02  0.8383992E-01
          1   -1    0    0  501    0  0.00000000000E+00  0.00000000000E+00  0.55084094613E+03  0.55084094613E+03  0.00000000000E+00 0. -1.
         -1   -1    0    0    0  501 -0.00000000000E+00 -0.00000000000E+00 -0.29604666426E+04  0.29604666426E+04  0.00000000000E+00 0.  1.
         23    2    1    2    0    0  0.43725751764E+03  0.10229917010E+04 -0.90844840945E+03  0.14390586011E+04  0.88909997933E+02 0.  0.
        254    2    1    2    0    0 -0.43725751764E+03 -0.10229917010E+04 -0.15011772870E+04  0.20722489876E+04  0.89608953934E+03 0.  0.
        -24    2    4    4    0    0 -0.55473565755E+03 -0.52491716619E+03 -0.42438277832E+03  0.87736103779E+03  0.79949777862E+02 0.  0.
         24    2    4    4    0    0  0.11747813991E+03 -0.49807453482E+03 -0.10767945087E+04  0.11948879498E+04  0.79946501251E+02 0.  0.
         13    1    3    3    0    0  0.13148922871E+03  0.39448516940E+03 -0.30543357103E+03  0.51594343920E+03  0.00000000000E+00 0.  1.
        -13    1    3    3    0    0  0.30576828893E+03  0.62850653161E+03 -0.60301483842E+03  0.92311516190E+03  0.00000000000E+00 0. -1.
          4    1    6    6  502    0 -0.63182237284E+01 -0.21545175206E+01 -0.11062507392E+02  0.12920563711E+02  0.00000000000E+00 0. -1.
          1    1    5    5  503    0 -0.11568159102E+03 -0.15393393403E+03 -0.12085770886E+03  0.22734219216E+03  0.00000000000E+00 0. -1.
         -2    1    5    5    0  503 -0.43905406653E+03 -0.37098323217E+03 -0.30352506946E+03  0.65001884563E+03  0.00000000000E+00 0.  1.
         -3    1    6    6    0  502  0.12379636364E+03 -0.49592001730E+03 -0.10657320013E+04  0.11819673861E+04  0.00000000000E+00 0.  1.
<mgrwt>
<rscale>  0 0.25540135E+04</rscale>
<asrwt>0</asrwt>
<pdfrwt beam="1">  1        1 0.84744759E-01 0.25540135E+04</pdfrwt>
<pdfrwt beam="2">  1       -1 0.45545642E+00 0.25540135E+04</pdfrwt>
<totfact> 0.10145711E-01</totfact>
</mgrwt>
</event>
<event>
12    1  0.1960998E-007  0.2796375E+04  0.7818608E-02  0.8304395E-01
          1   -1    0    0  501    0  0.00000000000E+00  0.00000000000E+00  0.85338542891E+03  0.85338542891E+03  0.00000000000E+00 0. -1.
         -1   -1    0    0    0  501 -0.00000000000E+00 -0.00000000000E+00 -0.22907924200E+04  0.22907924200E+04  0.00000000000E+00 0.  1.
         23    2    1    2    0    0  0.59276547991E+03  0.10728094073E+04 -0.36139420170E+03  0.12808622092E+04  0.87813958120E+02 0.  0.
        254    2    1    2    0    0 -0.59276547991E+03 -0.10728094073E+04 -0.10760127894E+04  0.18633156397E+04  0.90102758656E+03 0.  0.
        -24    2    4    4    0    0 -0.14061575524E+03 -0.22804849897E+03 -0.82141448970E+03  0.86784716327E+03  0.81596730314E+02 0.  0.
         24    2    4    4    0    0 -0.45214972468E+03 -0.84476090836E+03 -0.25459829970E+03  0.99546847648E+03  0.89871172459E+02 0.  0.
         13    1    3    3    0    0  0.20228418249E+03  0.35825390435E+03 -0.78550156055E+02  0.41884946876E+03  0.00000000000E+00 0. -1.
        -13    1    3    3    0    0  0.39048129743E+03  0.71455550298E+03 -0.28284404564E+03  0.86201274041E+03  0.00000000000E+00 0.  1.
          2    1    6    6  502    0 -0.35768799296E+03 -0.73185521413E+03 -0.22779134494E+03  0.84583784000E+03  0.00000000000E+00 0. -1.
          1    1    5    5  503    0 -0.11042653587E+03 -0.20624354538E+03 -0.61285770645E+03  0.65599160680E+03  0.00000000000E+00 0. -1.
         -2    1    5    5    0  503 -0.30189219368E+02 -0.21804953593E+02 -0.20855678326E+03  0.21185555648E+03  0.00000000000E+00 0.  1.
         -1    1    6    6    0  502 -0.94461731716E+02 -0.11290569423E+03 -0.26806954760E+02  0.14963063648E+03  0.00000000000E+00 0.  1.
<mgrwt>
<rscale>  0 0.27963754E+04</rscale>
<asrwt>0</asrwt>
<pdfrwt beam="1">  1        1 0.13129007E+00 0.27963754E+04</pdfrwt>
<pdfrwt beam="2">  1       -1 0.35242960E+00 0.27963754E+04</pdfrwt>
<totfact> 0.25792630E-01</totfact>
</mgrwt>
</event>
<event>
12    1  0.1960998E-007  0.1819178E+04  0.7818608E-02  0.8696167E-01
         -2   -1    0    0    0  501 -0.00000000000E+00  0.00000000000E+00  0.28700734640E+03  0.28700734640E+03  0.00000000000E+00 0.  1.
          2   -1    0    0  501    0  0.00000000000E+00 -0.00000000000E+00 -0.28826856305E+04  0.28826856305E+04  0.00000000000E+00 0. -1.
         23    2    1    2    0    0  0.42966508749E+03 -0.35669561354E+03 -0.29589070702E+03  0.63899082539E+03  0.94414597977E+02 0.  0.
        254    2    1    2    0    0 -0.42966508749E+03  0.35669561354E+03 -0.22997875770E+04  0.25307021515E+04  0.89642993694E+03 0.  0.
        -24    2    4    4    0    0 -0.67258186928E+03  0.34048464877E+03 -0.13645909665E+04  0.15611403520E+04  0.82185921464E+02 0.  0.
         24    2    4    4    0    0  0.24291678180E+03  0.16210964775E+02 -0.93519661051E+03  0.96956179950E+03  0.78651284073E+02 0.  0.
         13    1    3    3    0    0  0.14841646750E+03 -0.80614386344E+02 -0.12129782310E+03  0.20794059007E+03  0.00000000000E+00 0.  1.
        -13    1    3    3    0    0  0.28124861999E+03 -0.27608122720E+03 -0.17459288392E+03  0.43105023532E+03  0.00000000000E+00 0. -1.
          2    1    6    6  502    0  0.79389579264E+02  0.91332982703E+01 -0.46189018501E+03  0.46875224313E+03  0.00000000000E+00 0. -1.
          3    1    5    5  503    0 -0.15316855012E+03  0.82218086467E+02 -0.24799274261E+03  0.30285445163E+03  0.00000000000E+00 0. -1.
         -4    1    5    5    0  503 -0.51941331917E+03  0.25826656230E+03 -0.11165982239E+04  0.12582859003E+04  0.00000000000E+00 0.  1.
         -1    1    6    6    0  502  0.16352720253E+03  0.70776665050E+01 -0.47330642550E+03  0.50080955637E+03  0.00000000000E+00 0.  1.
<mgrwt>
<rscale>  0 0.18191778E+04</rscale>
<asrwt>0</asrwt>
<pdfrwt beam="1">  1        2 0.44349008E+00 0.18191778E+04</pdfrwt>
<pdfrwt beam="2">  1       -2 0.44154978E-01 0.18191778E+04</pdfrwt>
<totfact> 0.94680515E+00</totfact>
</mgrwt>
</event>
<event>
12    1  0.1960998E-007  0.3394640E+04  0.7818608E-02  0.8139223E-01
          1   -1    0    0  501    0  0.00000000000E+00  0.00000000000E+00  0.38515849935E+04  0.38515849935E+04  0.00000000000E+00 0. -1.
         -1   -1    0    0    0  501 -0.00000000000E+00 -0.00000000000E+00 -0.74797667952E+03  0.74797667952E+03  0.00000000000E+00 0.  1.
         23    2    1    2    0    0 -0.99529387823E+02  0.15303929365E+04  0.19402119120E+04  0.24748151187E+04  0.90988841128E+02 0.  0.
        254    2    1    2    0    0  0.99529387823E+02 -0.15303929365E+04  0.11633964020E+04  0.21247465544E+04  0.89947100722E+03 0.  0.
        -24    2    4    4    0    0  0.20331788787E+03 -0.64579720139E+02  0.41493109042E+03  0.47371640866E+03  0.82040979124E+02 0.  0.
         24    2    4    4    0    0 -0.10378850004E+03 -0.14658132164E+04  0.74846531160E+03  0.16510301457E+04  0.79497052108E+02 0.  0.
         11    1    3    3    0    0  0.59417200169E+01  0.11815710414E+03  0.11909752545E+03  0.16787086068E+03  0.00000000000E+00 0.  1.
        -11    1    3    3    0    0 -0.10547110784E+03  0.14122358324E+04  0.18211143865E+04  0.23069442580E+04  0.00000000000E+00 0. -1.
          4    1    6    6  502    0 -0.21407971340E+02 -0.13070257054E+03  0.46420662206E+02  0.14034365345E+03  0.00000000000E+00 0. -1.
          1    1    5    5  503    0  0.33632798307E+02 -0.43939787660E+02  0.74735344848E+02  0.92990546999E+02  0.00000000000E+00 0. -1.
         -2    1    5    5    0  503  0.16968508956E+03 -0.20639932479E+02  0.34019574557E+03  0.38072586166E+03  0.00000000000E+00 0.  1.
         -3    1    6    6    0  502 -0.82380528702E+02 -0.13351106458E+04  0.70204464940E+03  0.15106864922E+04  0.00000000000E+00 0.  1.
<mgrwt>
<rscale>  0 0.33946403E+04</rscale>
<asrwt>0</asrwt>
<pdfrwt beam="1">  1        1 0.59255152E+00 0.33946403E+04</pdfrwt>
<pdfrwt beam="2">  1       -1 0.11507334E+00 0.33946403E+04</pdfrwt>
<totfact> 0.72583622E-02</totfact>
</mgrwt>
</event>
<event>
12    1  0.1960998E-007  0.1713067E+04  0.7818608E-02  0.8753947E-01
         -2   -1    0    0    0  501 -0.00000000000E+00  0.00000000000E+00  0.42713935176E+03  0.42713935176E+03  0.00000000000E+00 0.  1.
          2   -1    0    0  501    0  0.00000000000E+00 -0.00000000000E+00 -0.17175878535E+04  0.17175878535E+04  0.00000000000E+00 0. -1.
         23    2    1    2    0    0 -0.19017167452E+02 -0.61578025872E+03 -0.51288697801E+03  0.80589456236E+03  0.82861412826E+02 0.  0.
        254    2    1    2    0    0  0.19017167452E+02  0.61578025872E+03 -0.77756152374E+03  0.13388326429E+04  0.89906837496E+03 0.  0.
        -24    2    4    4    0    0 -0.24298200915E+03  0.57571138179E+00  0.60963276479E+02  0.26346228826E+03  0.81579826174E+02 0.  0.
         24    2    4    4    0    0  0.26199917661E+03  0.61520454734E+03 -0.83852480022E+03  0.10753703547E+04  0.78596154402E+02 0.  0.
         13    1    3    3    0    0  0.29681643694E+02 -0.14590452376E+03 -0.11175361333E+03  0.18616659238E+03  0.00000000000E+00 0.  1.
        -13    1    3    3    0    0 -0.48698811146E+02 -0.46987573496E+03 -0.40113336468E+03  0.61972796998E+03  0.00000000000E+00 0. -1.
          4    1    6    6  502    0  0.10796940017E+03  0.16351584127E+03 -0.23577327385E+03  0.30656786912E+03  0.00000000000E+00 0. -1.
          3    1    5    5  503    0 -0.16892318203E+03  0.37950598304E+02  0.36054834681E+02  0.17684807164E+03  0.00000000000E+00 0. -1.
         -4    1    5    5    0  503 -0.74058827120E+02 -0.37374886922E+02  0.24908441798E+02  0.86614216614E+02  0.00000000000E+00 0.  1.
         -3    1    6    6    0  502  0.15402977644E+03  0.45168870608E+03 -0.60275152637E+03  0.76880248554E+03  0.00000000000E+00 0.  1.
<mgrwt>
<rscale>  0 0.17130667E+04</rscale>
<asrwt>0</asrwt>
<pdfrwt beam="1">  1        2 0.26424428E+00 0.17130667E+04</pdfrwt>
<pdfrwt beam="2">  1       -2 0.65713747E-01 0.17130667E+04</pdfrwt>
<totfact> 0.19433322E+01</totfact>
</mgrwt>
</event>
<event>
12    1  0.1960998E-007  0.1402608E+04  0.7818608E-02  0.8951933E-01
          2   -1    0    0  501    0  0.00000000000E+00  0.00000000000E+00  0.10075552413E+04  0.10075552413E+04  0.00000000000E+00 0. -1.
         -2   -1    0    0    0  501 -0.00000000000E+00 -0.00000000000E+00 -0.48813900204E+03  0.48813900204E+03  0.00000000000E+00 0.  1.
         23    2    1    2    0    0  0.31752570744E+03  0.12877822006E+02 -0.11275822316E+03  0.34925899229E+03  0.90989085187E+02 0.  0.
        254    2    1    2    0    0 -0.31752570744E+03 -0.12877822006E+02  0.63217446240E+03  0.11464352510E+04  0.90204258252E+03 0.  0.
        -24    2    4    4    0    0 -0.43833719777E+03 -0.36271662494E+03  0.41881447692E+03  0.71134978224E+03  0.83126997165E+02 0.  0.
         24    2    4    4    0    0  0.12081149033E+03  0.34983880294E+03  0.21335998548E+03  0.43508546877E+03  0.82427407437E+02 0.  0.
         13    1    3    3    0    0  0.20638072813E+03  0.51410941400E+02 -0.66295585094E+02  0.22278059710E+03  0.00000000000E+00 0. -1.
        -13    1    3    3    0    0  0.11114497931E+03 -0.38533119394E+02 -0.46462638066E+02  0.12647839520E+03  0.00000000000E+00 0.  1.
          4    1    6    6  502    0 -0.10182148239E+02  0.58627463679E+02  0.26777276454E+02  0.65252418917E+02  0.00000000000E+00 0. -1.
          3    1    5    5  503    0 -0.36540918170E+02 -0.11683695247E+02  0.11328595200E+02  0.40001056292E+02  0.00000000000E+00 0. -1.
         -4    1    5    5    0  503 -0.40179627960E+03 -0.35103292970E+03  0.40748588172E+03  0.67134872595E+03  0.00000000000E+00 0.  1.
         -3    1    6    6    0  502  0.13099363857E+03  0.29121133926E+03  0.18658270903E+03  0.36983304986E+03  0.00000000000E+00 0.  1.
<mgrwt>
<rscale>  0 0.14026076E+04</rscale>
<asrwt>0</asrwt>
<pdfrwt beam="1">  1        2 0.15500850E+00 0.14026076E+04</pdfrwt>
<pdfrwt beam="2">  1       -2 0.75098308E-01 0.14026076E+04</pdfrwt>
<totfact> 0.38602319E+01</totfact>
</mgrwt>
</event>
<event>
12    1  0.1960998E-007  0.1872692E+04  0.7818608E-02  0.8668570E-01
         -1   -1    0    0    0  501 -0.00000000000E+00  0.00000000000E+00  0.44258236767E+03  0.44258236767E+03  0.00000000000E+00 0.  1.
          1   -1    0    0  501    0  0.00000000000E+00 -0.00000000000E+00 -0.19809740718E+04  0.19809740718E+04  0.00000000000E+00 0. -1.
         23    2    1    2    0    0 -0.15095013066E+03  0.65897436281E+03 -0.89743664588E+03  0.11276368842E+04  0.95599458680E+02 0.  0.
        254    2    1    2    0    0  0.15095013066E+03 -0.65897436281E+03 -0.64095505822E+03  0.12959195552E+04  0.90086122912E+03 0.  0.
        -24    2    4    4    0    0  0.13474321038E+03  0.13477872799E+03  0.78509056789E+02  0.22150374827E+03  0.81112269321E+02 0.  0.
         24    2    4    4    0    0  0.16206920273E+02 -0.79375309081E+03 -0.71946411500E+03  0.10744158069E+04  0.80212717239E+02 0.  0.
         13    1    3    3    0    0 -0.12724999296E+03  0.53429996946E+03 -0.66206224163E+03  0.86022987036E+03  0.00000000000E+00 0.  1.
        -13    1    3    3    0    0 -0.23700137693E+02  0.12467439336E+03 -0.23537440425E+03  0.26740701386E+03  0.00000000000E+00 0. -1.
          4    1    6    6  502    0  0.18022882973E+02 -0.99368725505E+02 -0.12196556817E+03  0.15834951133E+03  0.00000000000E+00 0. -1.
          3    1    5    5  503    0  0.47229236696E+01 -0.37021975636E+01 -0.10218017896E+02  0.11849901456E+02  0.00000000000E+00 0. -1.
         -4    1    5    5    0  503  0.13002028671E+03  0.13848092556E+03  0.88727074685E+02  0.20965384681E+03  0.00000000000E+00 0.  1.
         -3    1    6    6    0  502 -0.18159626994E+01 -0.69438436530E+03 -0.59749854683E+03  0.91606629561E+03  0.00000000000E+00 0.  1.
<mgrwt>
<rscale>  0 0.18726924E+04</rscale>
<asrwt>0</asrwt>
<pdfrwt beam="1">  1        1 0.30476524E+00 0.18726924E+04</pdfrwt>
<pdfrwt beam="2">  1       -1 0.68089596E-01 0.18726924E+04</pdfrwt>
<totfact> 0.62867772E+00</totfact>
</mgrwt>
</event>
<event>
12    1  0.1960998E-007  0.3835109E+04  0.7818608E-02  0.8038662E-01
          1   -1    0    0  501    0  0.00000000000E+00  0.00000000000E+00  0.35445077751E+04  0.35445077751E+04  0.00000000000E+00 0. -1.
         -1   -1    0    0    0  501 -0.00000000000E+00 -0.00000000000E+00 -0.10373837502E+04  0.10373837502E+04  0.00000000000E+00 0.  1.
         23    2    1    2    0    0 -0.15722962587E+04 -0.14504083187E+03  0.12780779742E+03  0.15867868823E+04  0.91681017322E+02 0.  0.
        254    2    1    2    0    0  0.15722962587E+04  0.14504083187E+03  0.23793162274E+04  0.29951046430E+04  0.90352296278E+03 0.  0.
        -24    2    4    4    0    0  0.59845041506E+03 -0.34991024307E+03  0.11799364660E+04  0.13708720172E+04  0.80373791925E+02 0.  0.
         24    2    4    4    0    0  0.97384584361E+03  0.49495107494E+03  0.11993797615E+04  0.16242326257E+04  0.79167648561E+02 0.  0.
         11    1    3    3    0    0 -0.33678581248E+03 -0.64837968140E+01  0.55887086962E+02  0.34145290978E+03  0.00000000000E+00 0. -1.
        -11    1    3    3    0    0 -0.12355104462E+04 -0.13855703506E+03  0.71920710459E+02  0.12453339726E+04  0.00000000000E+00 0.  1.
          2    1    6    6  502    0  0.78390591430E+02  0.41710043352E+02  0.67916906310E+02  0.11179230163E+03  0.00000000000E+00 0. -1.
          3    1    5    5  503    0  0.22172390956E+03 -0.88825268099E+02  0.43318508757E+03  0.49467235663E+03  0.00000000000E+00 0. -1.
         -4    1    5    5    0  503  0.37672650550E+03 -0.26108497497E+03  0.74675137840E+03  0.87619966060E+03  0.00000000000E+00 0.  1.
         -1    1    6    6    0  502  0.89545525218E+03  0.45324103159E+03  0.11314628551E+04  0.15124403241E+04  0.00000000000E+00 0.  1.
<mgrwt>
<rscale>  0 0.38351087E+04</rscale>
<asrwt>0</asrwt>
<pdfrwt beam="1">  1        1 0.54530888E+00 0.38351087E+04</pdfrwt>
<pdfrwt beam="2">  1       -1 0.15959750E+00 0.38351087E+04</pdfrwt>
<totfact> 0.53703528E-02</totfact>
</mgrwt>
</event>
<event>
12    1  0.1960998E-007  0.3178440E+04  0.7818608E-02  0.8194534E-01
         -1   -1    0    0    0  501 -0.00000000000E+00  0.00000000000E+00  0.79060352154E+03  0.79060352154E+03  0.00000000000E+00 0.  1.
          1   -1    0    0  501    0  0.00000000000E+00 -0.00000000000E+00 -0.31945477242E+04  0.31945477242E+04  0.00000000000E+00 0. -1.
         23    2    1    2    0    0 -0.14109485714E+04 -0.15932809073E+03 -0.67972170013E+03  0.15769206720E+04  0.92173232095E+02 0.  0.
        254    2    1    2    0    0  0.14109485714E+04  0.15932809073E+03 -0.17242225025E+04  0.24082305737E+04  0.90026104348E+03 0.  0.
        -24    2    4    4    0    0  0.15276854048E+04  0.13462053870E+03 -0.15404698708E+04  0.21750958947E+04  0.77777520092E+02 0.  0.
         24    2    4    4    0    0 -0.11673683346E+03  0.24707552034E+02 -0.18375263171E+03  0.23313467902E+03  0.79679341661E+02 0.  0.
         13    1    3    3    0    0 -0.35889379271E+03 -0.67518205383E+02 -0.20834323688E+03  0.42044068173E+03  0.00000000000E+00 0. -1.
        -13    1    3    3    0    0 -0.10520547787E+04 -0.91809885352E+02 -0.47137846326E+03  0.11564799903E+04  0.00000000000E+00 0.  1.
          2    1    6    6  502    0 -0.41084388863E+02  0.26643536404E+01 -0.10027782868E+02  0.42374310824E+02  0.00000000000E+00 0. -1.
          1    1    5    5  503    0  0.80923305869E+03  0.10902044842E+03 -0.83301708329E+03  0.11664737727E+04  0.00000000000E+00 0. -1.
         -2    1    5    5    0  503  0.71845234613E+03  0.25600090285E+02 -0.70745278751E+03  0.10086221219E+04  0.00000000000E+00 0.  1.
         -1    1    6    6    0  502 -0.75652444601E+02  0.22043198393E+02 -0.17372484884E+03  0.19076036820E+03  0.00000000000E+00 0.  1.
<mgrwt>
<rscale>  0 0.31784403E+04</rscale>
<asrwt>0</asrwt>
<pdfrwt beam="1">  1        1 0.49146888E+00 0.31784403E+04</pdfrwt>
<pdfrwt beam="2">  1       -1 0.12163131E+00 0.31784403E+04</pdfrwt>
<totfact> 0.21517294E-01</totfact>
</mgrwt>
</event>
<event>
12    1  0.1960998E-007  0.1202942E+04  0.7818608E-02  0.9110285E-01
          2   -1    0    0  501    0  0.00000000000E+00  0.00000000000E+00  0.36883700042E+04  0.36883700042E+04  0.00000000000E+00 0. -1.
         -2   -1    0    0    0  501 -0.00000000000E+00 -0.00000000000E+00 -0.98083310365E+02  0.98083310365E+02  0.00000000000E+00 0.  1.
         23    2    1    2    0    0  0.98999552981E+02  0.22032243900E+03  0.82919618212E+03  0.86851158492E+03  0.91668839193E+02 0.  0.
        254    2    1    2    0    0 -0.98999552981E+02 -0.22032243900E+03  0.27610905117E+04  0.29179417296E+04  0.91237066760E+03 0.  0.
        -24    2    4    4    0    0 -0.31733964516E+03 -0.38048489713E+03  0.85726067592E+03  0.99330409690E+03  0.79271401541E+02 0.  0.
         24    2    4    4    0    0  0.21834009218E+03  0.16016245813E+03  0.19038298358E+04  0.19246376327E+04  0.79608824026E+02 0.  0.
         11    1    3    3    0    0  0.80907993318E+02  0.17762946847E+03  0.76379721439E+03  0.78834289250E+03  0.00000000000E+00 0. -1.
        -11    1    3    3    0    0  0.18091559663E+02  0.42692970524E+02  0.65398967731E+02  0.80168692414E+02  0.00000000000E+00 0.  1.
          4    1    6    6  502    0  0.13760744976E+03  0.12215370722E+03  0.14885281057E+04  0.14998577465E+04  0.00000000000E+00 0. -1.
          3    1    5    5  503    0 -0.32076960416E+03 -0.37465089171E+03  0.85294541360E+03  0.98527778225E+03  0.00000000000E+00 0. -1.
         -4    1    5    5    0  503  0.34299589928E+01 -0.58340054276E+01  0.43152623150E+01  0.80263146505E+01  0.00000000000E+00 0.  1.
         -3    1    6    6    0  502  0.80732642420E+02  0.38008750920E+02  0.41530173010E+03  0.42477988620E+03  0.00000000000E+00 0.  1.
<mgrwt>
<rscale>  0 0.12029423E+04</rscale>
<asrwt>0</asrwt>
<pdfrwt beam="1">  1        2 0.56744143E+00 0.12029423E+04</pdfrwt>
<pdfrwt beam="2">  1       -2 0.15089743E-01 0.12029423E+04</pdfrwt>
<totfact> 0.21052027E+01</totfact>
</mgrwt>
</event>
<event>
12    1  0.2222332E-007  0.3170533E+04  0.7818608E-02  0.8196643E-01
          2   -1    0    0  501    0  0.00000000000E+00  0.00000000000E+00  0.22640747049E+04  0.22640747049E+04  0.00000000000E+00 0. -1.
         -2   -1    0    0    0  501 -0.00000000000E+00 -0.00000000000E+00 -0.11099762655E+04  0.11099762655E+04  0.00000000000E+00 0.  1.
         23    2    1    2    0    0  0.90392939817E+03 -0.77186710583E+03 -0.36090743436E+03  0.12457002759E+04  0.92993629992E+02 0.  0.
        254    2    1    2    0    0 -0.90392939817E+03  0.77186710583E+03  0.15150058737E+04  0.21283506945E+04  0.90651348331E+03 0.  0.
        -24    2    4    4    0    0 -0.30225876528E+03  0.17097737815E+03 -0.35610869667E+02  0.35784613821E+03  0.78689894971E+02 0.  0.
         24    2    4    4    0    0 -0.60167063290E+03  0.60088972768E+03  0.15506167434E+04  0.17705045563E+04  0.84841520679E+02 0.  0.
         13    1    3    3    0    0  0.28587811035E+03 -0.29525447631E+03 -0.14650021003E+03  0.43630701496E+03  0.00000000000E+00 0. -1.
        -13    1    3    3    0    0  0.61805128782E+03 -0.47661262952E+03 -0.21440722433E+03  0.80939326093E+03  0.00000000000E+00 0.  1.
          4    1    6    6  502    0 -0.30178626641E+03  0.25775180912E+03  0.78200460353E+03  0.87695048072E+03  0.00000000000E+00 0. -1.
          3    1    5    5  503    0 -0.16132471039E+03  0.12780352157E+03  0.16109596696E+01  0.20582030390E+03  0.00000000000E+00 0. -1.
         -4    1    5    5    0  503 -0.14093405488E+03  0.43173856581E+02 -0.37221829337E+02  0.15202583431E+03  0.00000000000E+00 0.  1.
         -3    1    6    6    0  502 -0.29988436649E+03  0.34313791856E+03  0.76861213986E+03  0.89355407557E+03  0.00000000000E+00 0.  1.
<mgrwt>
<rscale>  0 0.31705326E+04</rscale>
<asrwt>0</asrwt>
<pdfrwt beam="1">  1        2 0.34831919E+00 0.31705326E+04</pdfrwt>
<pdfrwt beam="2">  1       -2 0.17076558E+00 0.31705326E+04</pdfrwt>
<totfact> 0.84410529E-01</totfact>
</mgrwt>
</event>
<event>
12    1  0.1960998E-007  0.1748730E+04  0.7818608E-02  0.8734050E-01
         -2   -1    0    0    0  501 -0.00000000000E+00  0.00000000000E+00  0.28433376907E+03  0.28433376907E+03  0.00000000000E+00 0.  1.
          2   -1    0    0  501    0  0.00000000000E+00 -0.00000000000E+00 -0.26887901832E+04  0.26887901832E+04  0.00000000000E+00 0. -1.
         23    2    1    2    0    0 -0.46995121869E+03  0.22510741361E+03 -0.25573188123E+03  0.58757959299E+03  0.91233148651E+02 0.  0.
        254    2    1    2    0    0  0.46995121869E+03 -0.22510741361E+03 -0.21487245329E+04  0.23855443593E+04  0.89569932241E+03 0.  0.
        -24    2    4    4    0    0  0.40088258506E+03 -0.47433710996E+03 -0.83380227683E+03  0.10431415551E+04  0.84944253924E+02 0.  0.
         24    2    4    4    0    0  0.69068633629E+02  0.24922969635E+03 -0.13149222561E+04  0.13424028042E+04  0.78350694884E+02 0.  0.
         11    1    3    3    0    0 -0.32376317564E+03  0.10703998828E+03 -0.15942561242E+03  0.37642619315E+03  0.00000000000E+00 0. -1.
        -11    1    3    3    0    0 -0.14618804305E+03  0.11806742533E+03 -0.96306268807E+02  0.21115339985E+03  0.00000000000E+00 0.  1.
          4    1    6    6  502    0 -0.10240645621E+01 -0.56670633393E+01 -0.22912951968E+02  0.23625572649E+02  0.00000000000E+00 0. -1.
          3    1    5    5  503    0  0.77729677478E+02 -0.14024320263E+03 -0.18158866132E+03  0.24224884018E+03  0.00000000000E+00 0. -1.
         -4    1    5    5    0  503  0.32315290759E+03 -0.33409390733E+03 -0.65221361551E+03  0.80089271494E+03  0.00000000000E+00 0.  1.
         -3    1    6    6    0  502  0.70092698191E+02  0.25489675969E+03 -0.12920093041E+04  0.13187772315E+04  0.00000000000E+00 0.  1.
<mgrwt>
<rscale>  0 0.17487296E+04</rscale>
<asrwt>0</asrwt>
<pdfrwt beam="1">  1        2 0.41366001E+00 0.17487296E+04</pdfrwt>
<pdfrwt beam="2">  1       -2 0.43743659E-01 0.17487296E+04</pdfrwt>
<totfact> 0.12697306E+01</totfact>
</mgrwt>
</event>
<event>
12    1  0.1960998E-007  0.1869345E+04  0.7818608E-02  0.8670268E-01
          2   -1    0    0  501    0  0.00000000000E+00  0.00000000000E+00  0.14480081663E+04  0.14480081663E+04  0.00000000000E+00 0. -1.
         -2   -1    0    0    0  501 -0.00000000000E+00 -0.00000000000E+00 -0.60332000657E+03  0.60332000657E+03  0.00000000000E+00 0.  1.
         23    2    1    2    0    0 -0.64128540214E+03  0.10400838501E+03  0.58220943152E+00  0.65614164745E+03  0.91960923270E+02 0.  0.
        254    2    1    2    0    0  0.64128540214E+03 -0.10400838501E+03  0.84410595032E+03  0.13951865254E+04  0.90109149050E+03 0.  0.
        -24    2    4    4    0    0  0.61405576546E+03 -0.34778301957E+03  0.88507917394E+03  0.11347185704E+04  0.78762795870E+02 0.  0.
         24    2    4    4    0    0  0.27229636681E+02  0.24377463456E+03 -0.40973223619E+02  0.26046795507E+03  0.77441752273E+02 0.  0.
         11    1    3    3    0    0 -0.26858359284E+03  0.65955684317E+01  0.26982921794E+02  0.27001615866E+03  0.00000000000E+00 0. -1.
        -11    1    3    3    0    0 -0.37270180929E+03  0.97412816580E+02 -0.26400712363E+02  0.38612548880E+03  0.00000000000E+00 0.  1.
          2    1    6    6  502    0 -0.77732000295E+01 -0.27367563329E+01 -0.12665942846E+01  0.83376696388E+01  0.00000000000E+00 0. -1.
          3    1    5    5  503    0  0.26330290685E+03 -0.18330424760E+03  0.44198367213E+03  0.54614872917E+03  0.00000000000E+00 0. -1.
         -4    1    5    5    0  503  0.35075285861E+03 -0.16447877197E+03  0.44309550181E+03  0.58856984120E+03  0.00000000000E+00 0.  1.
         -1    1    6    6    0  502  0.35002836710E+02  0.24651139089E+03 -0.39706629335E+02  0.25213028543E+03  0.00000000000E+00 0.  1.
<mgrwt>
<rscale>  0 0.18693446E+04</rscale>
<asrwt>0</asrwt>
<pdfrwt beam="1">  1        2 0.22277049E+00 0.18693446E+04</pdfrwt>
<pdfrwt beam="2">  1       -2 0.92818463E-01 0.18693446E+04</pdfrwt>
<totfact> 0.12550720E+01</totfact>
</mgrwt>
</event>
<event>
12    1  0.1960998E-007  0.1795011E+04  0.7818608E-02  0.8708957E-01
          1   -1    0    0  501    0  0.00000000000E+00  0.00000000000E+00  0.85118501770E+03  0.85118501770E+03  0.00000000000E+00 0. -1.
         -1   -1    0    0    0  501 -0.00000000000E+00 -0.00000000000E+00 -0.94634671393E+03  0.94634671393E+03  0.00000000000E+00 0.  1.
         23    2    1    2    0    0 -0.48082301206E+03  0.44727010430E+03  0.95887113938E+02  0.66721095652E+03  0.68809932077E+02 0.  0.
        254    2    1    2    0    0  0.48082301206E+03 -0.44727010430E+03 -0.19104881016E+03  0.11303207751E+04  0.89993560416E+03 0.  0.
        -24    2    4    4    0    0 -0.25660928532E+03 -0.64212119375E+02 -0.17578166237E+02  0.27763541349E+03  0.82467625826E+02 0.  0.
         24    2    4    4    0    0  0.73743229738E+03 -0.38305798493E+03 -0.17347064393E+03  0.85268536162E+03  0.80252405394E+02 0.  0.
         13    1    3    3    0    0 -0.14393704749E+03  0.17751871973E+03  0.26039645057E+02  0.23001920052E+03  0.00000000000E+00 0.  1.
        -13    1    3    3    0    0 -0.33688596458E+03  0.26975138458E+03  0.69847468882E+02  0.43719175600E+03  0.00000000000E+00 0. -1.
          4    1    6    6  502    0  0.11371401023E+03 -0.85464102958E+02 -0.10396419304E+02  0.14262915043E+03  0.00000000000E+00 0. -1.
          1    1    5    5  503    0 -0.19055490833E+02 -0.15418398718E+02 -0.24995611472E+02  0.35008846636E+02  0.00000000000E+00 0. -1.
         -2    1    5    5    0  503 -0.23755379448E+03 -0.48793720658E+02  0.74174452343E+01  0.24262656685E+03  0.00000000000E+00 0.  1.
         -1    1    6    6    0  502  0.62371828715E+03 -0.29759388197E+03 -0.16307422462E+03  0.71005621119E+03  0.00000000000E+00 0.  1.
<mgrwt>
<rscale>  0 0.17950110E+04</rscale>
<asrwt>0</asrwt>
<pdfrwt beam="1">  1        1 0.13095154E+00 0.17950110E+04</pdfrwt>
<pdfrwt beam="2">  1       -1 0.14559180E+00 0.17950110E+04</pdfrwt>
<totfact> 0.71301780E+00</totfact>
</mgrwt>
</event>
<event>
12    1  0.1960998E-007  0.1746457E+04  0.7818608E-02  0.8735303E-01
         -1   -1    0    0    0  501 -0.00000000000E+00  0.00000000000E+00  0.44576072773E+03  0.44576072773E+03  0.00000000000E+00 0.  1.
          1   -1    0    0  501    0  0.00000000000E+00 -0.00000000000E+00 -0.17106222201E+04  0.17106222201E+04  0.00000000000E+00 0. -1.
         23    2    1    2    0    0  0.77869467458E+02 -0.57173835026E+02 -0.12433725175E+04  0.12504328115E+04  0.90964264346E+02 0.  0.
        254    2    1    2    0    0 -0.77869467458E+02  0.57173835026E+02 -0.21488974871E+02  0.90595013636E+03  0.90052838498E+03 0.  0.
        -24    2    4    4    0    0  0.87813077534E+02  0.20158600677E+03 -0.39862048617E+03  0.46203592450E+03  0.78935725919E+02 0.  0.
         24    2    4    4    0    0 -0.16568254499E+03 -0.14441217174E+03  0.37713151130E+03  0.44391421185E+03  0.80784092565E+02 0.  0.
         13    1    3    3    0    0  0.88533932732E+02 -0.20861865212E+02 -0.10009046904E+04  0.10050291906E+04  0.00000000000E+00 0. -1.
        -13    1    3    3    0    0 -0.10664465274E+02 -0.36311969814E+02 -0.24246782711E+03  0.24540362091E+03  0.00000000000E+00 0.  1.
          4    1    6    6  502    0 -0.27086325646E+02 -0.71205942615E+02  0.10265228653E+03  0.12783367018E+03  0.00000000000E+00 0. -1.
          1    1    5    5  503    0  0.14652829512E+02  0.11832220615E+03 -0.16622733681E+03  0.20456387115E+03  0.00000000000E+00 0. -1.
         -2    1    5    5    0  503  0.73160248021E+02  0.83263800625E+02 -0.23239314936E+03  0.25747205335E+03  0.00000000000E+00 0.  1.
         -3    1    6    6    0  502 -0.13859621935E+03 -0.73206229129E+02  0.27447922476E+03  0.31608054168E+03  0.00000000000E+00 0.  1.
<mgrwt>
<rscale>  0 0.17464572E+04</rscale>
<asrwt>0</asrwt>
<pdfrwt beam="1">  1        1 0.26317264E+00 0.17464572E+04</pdfrwt>
<pdfrwt beam="2">  1       -1 0.68578576E-01 0.17464572E+04</pdfrwt>
<totfact> 0.95604718E+00</totfact>
</mgrwt>
</event>
<event>
12    1  0.1960998E-007  0.2274834E+04  0.7818608E-02  0.8487910E-01
          1   -1    0    0  501    0  0.00000000000E+00  0.00000000000E+00  0.11985330573E+04  0.11985330573E+04  0.00000000000E+00 0. -1.
         -1   -1    0    0    0  501 -0.00000000000E+00 -0.00000000000E+00 -0.10794175978E+04  0.10794175978E+04  0.00000000000E+00 0.  1.
         23    2    1    2    0    0 -0.60336044352E+03  0.56571287694E+03 -0.43311548166E+03  0.93822715890E+03  0.92770131591E+02 0.  0.
        254    2    1    2    0    0  0.60336044352E+03 -0.56571287694E+03  0.55223094119E+03  0.13397234961E+04  0.89767764247E+03 0.  0.
        -24    2    4    4    0    0  0.11524091947E+03  0.22648490973E+03  0.23115392059E+03  0.35217381422E+03  0.77578196451E+02 0.  0.
         24    2    4    4    0    0  0.48811952405E+03 -0.79219778666E+03  0.32107702060E+03  0.98754968193E+03  0.79535640887E+02 0.  0.
         13    1    3    3    0    0 -0.13510090711E+03  0.15086098002E+03 -0.14739879866E+03  0.25047494135E+03  0.00000000000E+00 0.  1.
        -13    1    3    3    0    0 -0.46825953641E+03  0.41485189691E+03 -0.28571668300E+03  0.68775221756E+03  0.00000000000E+00 0. -1.
          4    1    6    6  502    0  0.16406424713E+03 -0.30589620401E+03  0.85639548761E+02  0.35752440074E+03  0.00000000000E+00 0. -1.
          3    1    5    5  503    0  0.90620099421E+02  0.21450092351E+03  0.18061596096E+03  0.29469437382E+03  0.00000000000E+00 0. -1.
         -4    1    5    5    0  503  0.24620820049E+02  0.11983986216E+02  0.50537959631E+02  0.57479440404E+02  0.00000000000E+00 0.  1.
         -1    1    6    6    0  502  0.32405527692E+03 -0.48630158265E+03  0.23543747184E+03  0.63002528119E+03  0.00000000000E+00 0.  1.
<mgrwt>
<rscale>  0 0.22748342E+04</rscale>
<asrwt>0</asrwt>
<pdfrwt beam="1">  1        1 0.18438970E+00 0.22748342E+04</pdfrwt>
<pdfrwt beam="2">  1       -1 0.16606425E+00 0.22748342E+04</pdfrwt>
<totfact> 0.25535143E+00</totfact>
</mgrwt>
</event>
<event>
12    1  0.1960998E-007  0.2188286E+04  0.7818608E-02  0.8523320E-01
         -2   -1    0    0    0  501 -0.00000000000E+00  0.00000000000E+00  0.67075125199E+03  0.67075125199E+03  0.00000000000E+00 0.  1.
          2   -1    0    0  501    0  0.00000000000E+00 -0.00000000000E+00 -0.17847874463E+04  0.17847874463E+04  0.00000000000E+00 0. -1.
         23    2    1    2    0    0  0.63039438482E+03 -0.20659265935E+03  0.22904199116E+03  0.70829143673E+03  0.95597689903E+02 0.  0.
        254    2    1    2    0    0 -0.63039438482E+03  0.20659265935E+03 -0.13430781855E+04  0.17472472616E+04  0.89940890224E+03 0.  0.
        -24    2    4    4    0    0 -0.54887172426E+03  0.53411087019E+03 -0.89700860569E+03  0.11821092146E+04  0.78887041277E+02 0.  0.
         24    2    4    4    0    0 -0.81522660568E+02 -0.32751821084E+03 -0.44606957978E+03  0.56513804694E+03  0.80553208946E+02 0.  0.
         11    1    3    3    0    0  0.22586893882E+03 -0.29742036392E+02  0.60447211145E+02  0.23570157315E+03  0.00000000000E+00 0.  1.
        -11    1    3    3    0    0  0.40452544601E+03 -0.17685062296E+03  0.16859478002E+03  0.47258986358E+03  0.00000000000E+00 0. -1.
          2    1    6    6  502    0 -0.43020547843E+01 -0.58623227580E+01  0.25861206993E+01  0.77176760594E+01  0.00000000000E+00 0. -1.
          3    1    5    5  503    0 -0.37244159836E+03  0.32014345433E+03 -0.53791358923E+03  0.72839248007E+03  0.00000000000E+00 0. -1.
         -4    1    5    5    0  503 -0.17643012589E+03  0.21396741586E+03 -0.35909501646E+03  0.45371673456E+03  0.00000000000E+00 0.  1.
         -1    1    6    6    0  502 -0.77220605783E+02 -0.32165588808E+03 -0.44865570048E+03  0.55742037088E+03  0.00000000000E+00 0.  1.
<mgrwt>
<rscale>  0 0.21882856E+04</rscale>
<asrwt>0</asrwt>
<pdfrwt beam="1">  1        2 0.27458268E+00 0.21882856E+04</pdfrwt>
<pdfrwt beam="2">  1       -2 0.10319250E+00 0.21882856E+04</pdfrwt>
<totfact> 0.61689962E+00</totfact>
</mgrwt>
</event>
<event>
12    1  0.1960998E-007  0.1953382E+04  0.7818608E-02  0.8628731E-01
          2   -1    0    0  501    0  0.00000000000E+00  0.00000000000E+00  0.22376387048E+04  0.22376387048E+04  0.00000000000E+00 0.  1.
         -2   -1    0    0    0  501 -0.00000000000E+00 -0.00000000000E+00 -0.42630912241E+03  0.42630912241E+03  0.00000000000E+00 0. -1.
         23    2    1    2    0    0 -0.60295888569E+03  0.46063041704E+03  0.55111244059E+03  0.94213129879E+03  0.90258866931E+02 0.  0.
        254    2    1    2    0    0  0.60295888569E+03 -0.46063041704E+03  0.12602171418E+04  0.17218165284E+04  0.89485480055E+03 0.  0.
        -24    2    4    4    0    0  0.72784262950E+03 -0.59551064160E+03  0.11691506422E+04  0.15025238611E+04  0.79226962018E+02 0.  0.
         24    2    4    4    0    0 -0.12488374381E+03  0.13488022455E+03  0.91066499536E+02  0.21929266723E+03  0.77508335811E+02 0.  0.
         13    1    3    3    0    0 -0.24559612278E+03  0.13304583529E+03  0.19834423249E+03  0.34257712179E+03  0.00000000000E+00 0.  1.
        -13    1    3    3    0    0 -0.35736276291E+03  0.32758458176E+03  0.35276820810E+03  0.59955417701E+03  0.00000000000E+00 0. -1.
          2    1    6    6  502    0  0.98704464771E+01  0.18195797624E+02  0.14599354737E+02  0.25330888724E+02  0.00000000000E+00 0. -1.
          3    1    5    5  503    0  0.43355672742E+03 -0.37114167598E+03  0.65026101137E+03  0.86519186453E+03  0.00000000000E+00 0. -1.
         -4    1    5    5    0  503  0.29428590208E+03 -0.22436896562E+03  0.51888963086E+03  0.63733199662E+03  0.00000000000E+00 0.  1.
         -1    1    6    6    0  502 -0.13475419029E+03  0.11668442693E+03  0.76467144799E+02  0.19396177851E+03  0.00000000000E+00 0.  1.
<mgrwt>
<rscale>  0 0.19533825E+04</rscale>
<asrwt>0</asrwt>
<pdfrwt beam="1">  1        2 0.34425210E+00 0.19533825E+04</pdfrwt>
<pdfrwt beam="2">  1       -2 0.65586020E-01 0.19533825E+04</pdfrwt>
<totfact> 0.98212624E+00</totfact>
</mgrwt>
</event>
<event>
12    1  0.1960998E-007  0.2012279E+04  0.7818608E-02  0.8600901E-01
          1   -1    0    0  501    0  0.00000000000E+00  0.00000000000E+00  0.79807560124E+03  0.79807560124E+03  0.00000000000E+00 0. -1.
         -1   -1    0    0    0  501 -0.00000000000E+00 -0.00000000000E+00 -0.12684471693E+04  0.12684471693E+04  0.00000000000E+00 0.  1.
         23    2    1    2    0    0  0.43574085168E+03  0.64652254004E+03 -0.37975542228E+03  0.87210647361E+03  0.92163094326E+02 0.  0.
        254    2    1    2    0    0 -0.43574085168E+03 -0.64652254004E+03 -0.90616145830E+02  0.11944162970E+04  0.90030968004E+03 0.  0.
        -24    2    4    4    0    0 -0.35111927099E+03 -0.17927120890E+03  0.35676553942E+03  0.53720789028E+03  0.76731730467E+02 0.  0.
         24    2    4    4    0    0 -0.84621580696E+02 -0.46725133115E+03 -0.44738168525E+03  0.65720840669E+03  0.79296274500E+02 0.  0.
         11    1    3    3    0    0  0.55928029760E+02  0.10432944605E+03 -0.93630035174E+02  0.15092766914E+03  0.00000000000E+00 0.  1.
        -11    1    3    3    0    0  0.37981282192E+03  0.54219309399E+03 -0.28612538711E+03  0.72117880447E+03  0.00000000000E+00 0. -1.
          2    1    6    6  502    0 -0.34460689272E+01 -0.17968349447E+03 -0.13376356870E+03  0.22403286787E+03  0.00000000000E+00 0. -1.
          1    1    5    5  503    0 -0.82549255898E+02 -0.72050956771E+02  0.70449687551E+02  0.13026464792E+03  0.00000000000E+00 0. -1.
         -2    1    5    5    0  503 -0.26857001509E+03 -0.10722025212E+03  0.28631585187E+03  0.40694324236E+03  0.00000000000E+00 0.  1.
         -1    1    6    6    0  502 -0.81175511769E+02 -0.28756783668E+03 -0.31361811655E+03  0.43317553882E+03  0.00000000000E+00 0.  1.
<mgrwt>
<rscale>  0 0.20122790E+04</rscale>
<asrwt>0</asrwt>
<pdfrwt beam="1">  1        1 0.12278086E+00 0.20122790E+04</pdfrwt>
<pdfrwt beam="2">  1       -1 0.19514572E+00 0.20122790E+04</pdfrwt>
<totfact> 0.33447363E+00</totfact>
</mgrwt>
</event>
<event>
12    1  0.1960998E-007  0.2469565E+04  0.7818608E-02  0.8413909E-01
         -2   -1    0    0    0  501 -0.00000000000E+00  0.00000000000E+00  0.89749705432E+03  0.89749705432E+03  0.00000000000E+00 0.  1.
          2   -1    0    0  501    0  0.00000000000E+00 -0.00000000000E+00 -0.16988227231E+04  0.16988227231E+04  0.00000000000E+00 0. -1.
         23    2    1    2    0    0 -0.74034435781E+03  0.73796645183E+03 -0.11098867108E+03  0.10551246157E+04  0.90913240950E+02 0.  0.
        254    2    1    2    0    0  0.74034435781E+03 -0.73796645183E+03 -0.69033699768E+03  0.15411951617E+04  0.89778232549E+03 0.  0.
        -24    2    4    4    0    0  0.23403287964E+03  0.14298869222E+03 -0.38100697491E+03  0.47609812029E+03  0.79283985506E+02 0.  0.
         24    2    4    4    0    0  0.50631147817E+03 -0.88095514405E+03 -0.30933002277E+03  0.10650970414E+04  0.79456692056E+02 0.  0.
         13    1    3    3    0    0 -0.20700255945E+03  0.23940260927E+03  0.11012045864E+01  0.31648835934E+03  0.00000000000E+00 0. -1.
        -13    1    3    3    0    0 -0.53334179836E+03  0.49856384255E+03 -0.11208987567E+03  0.73863625636E+03  0.00000000000E+00 0.  1.
          4    1    6    6  502    0  0.87883124464E+02 -0.21985201351E+03 -0.75273461181E+02  0.24844404877E+03  0.00000000000E+00 0. -1.
          1    1    5    5  503    0  0.15181905992E+03  0.57445402545E+02 -0.17750125821E+03  0.24053211406E+03  0.00000000000E+00 0. -1.
         -2    1    5    5    0  503  0.82213819725E+02  0.85543289677E+02 -0.20350571670E+03  0.23556600623E+03  0.00000000000E+00 0.  1.
         -3    1    6    6    0  502  0.41842835370E+03 -0.66110313054E+03 -0.23405656159E+03  0.81665299266E+03  0.00000000000E+00 0.  1.
<mgrwt>
<rscale>  0 0.24695655E+04</rscale>
<asrwt>0</asrwt>
<pdfrwt beam="1">  1        2 0.26135734E+00 0.24695655E+04</pdfrwt>
<pdfrwt beam="2">  1       -2 0.13807647E+00 0.24695655E+04</pdfrwt>
<totfact> 0.32698703E+00</totfact>
</mgrwt>
</event>
<event>
12    1  0.1960998E-007  0.1772660E+04  0.7818608E-02  0.8720975E-01
         -2   -1    0    0    0  501 -0.00000000000E+00  0.00000000000E+00  0.66328040241E+03  0.66328040241E+03  0.00000000000E+00 0.  1.
          2   -1    0    0  501    0  0.00000000000E+00 -0.00000000000E+00 -0.11843873750E+04  0.11843873750E+04  0.00000000000E+00 0. -1.
         23    2    1    2    0    0 -0.36525434762E+03  0.52744098457E+03 -0.61150071853E+02  0.65104717840E+03  0.92294997480E+02 0.  0.
        254    2    1    2    0    0  0.36525434762E+03 -0.52744098457E+03 -0.45995690073E+03  0.11966205990E+04  0.89929737950E+03 0.  0.
        -24    2    4    4    0    0  0.46281300513E+03 -0.71353988403E+03 -0.46096141066E+03  0.97072933165E+03  0.80591372953E+02 0.  0.
         24    2    4    4    0    0 -0.97558657514E+02  0.18609889946E+03  0.10045099338E+01  0.22589126735E+03  0.82917812267E+02 0.  0.
         11    1    3    3    0    0 -0.31460400124E+02  0.67059660583E+02  0.19763068416E+02  0.76663770627E+02  0.00000000000E+00 0.  1.
        -11    1    3    3    0    0 -0.33379394749E+03  0.46038132398E+03 -0.80913140269E+02  0.57438340777E+03  0.00000000000E+00 0. -1.
          2    1    6    6  502    0 -0.32861801872E+01  0.85469948010E+02  0.16579150687E+02  0.87125078081E+02  0.00000000000E+00 0. -1.
          3    1    5    5  503    0  0.34277042888E+03 -0.58259480812E+03 -0.38086043580E+03  0.77586271267E+03  0.00000000000E+00 0. -1.
         -4    1    5    5    0  503  0.12004257625E+03 -0.13094507591E+03 -0.80100974866E+02  0.19486661898E+03  0.00000000000E+00 0.  1.
         -1    1    6    6    0  502 -0.94272477327E+02  0.10062895145E+03 -0.15574640753E+02  0.13876618927E+03  0.00000000000E+00 0.  1.
<mgrwt>
<rscale>  0 0.17726601E+04</rscale>
<asrwt>0</asrwt>
<pdfrwt beam="1">  1        2 0.18221344E+00 0.17726601E+04</pdfrwt>
<pdfrwt beam="2">  1       -2 0.10204314E+00 0.17726601E+04</pdfrwt>
<totfact> 0.14416020E+01</totfact>
</mgrwt>
</event>
<event>
12    1  0.1960998E-007  0.2070767E+04  0.7818608E-02  0.8574231E-01
          2   -1    0    0  501    0  0.00000000000E+00  0.00000000000E+00  0.66646088599E+03  0.66646088599E+03  0.00000000000E+00 0. -1.
         -2   -1    0    0    0  501 -0.00000000000E+00 -0.00000000000E+00 -0.16085246624E+04  0.16085246624E+04  0.00000000000E+00 0.  1.
         23    2    1    2    0    0  0.15251949446E+03  0.82080250337E+03 -0.34016164066E+03  0.90612074072E+03  0.91465344562E+02 0.  0.
        254    2    1    2    0    0 -0.15251949446E+03 -0.82080250337E+03 -0.60190213573E+03  0.13688648077E+04  0.90251079491E+03 0.  0.
        -24    2    4    4    0    0 -0.28845619600E+03  0.84261682066E+02 -0.15076267420E+03  0.34543375582E+03  0.79297463081E+02 0.  0.
         24    2    4    4    0    0  0.13593670154E+03 -0.90506418543E+03 -0.45113946153E+03  0.10234310518E+04  0.79147568126E+02 0.  0.
         13    1    3    3    0    0  0.44582142011E+02  0.18212741951E+03 -0.37728685177E+02  0.19126269372E+03  0.00000000000E+00 0. -1.
        -13    1    3    3    0    0  0.10793735244E+03  0.63867508386E+03 -0.30243295548E+03  0.71485804700E+03  0.00000000000E+00 0.  1.
          4    1    6    6  502    0  0.13088785039E+03 -0.70672091876E+03 -0.37709948513E+03  0.81165886189E+03  0.00000000000E+00 0. -1.
          3    1    5    5  503    0 -0.70904676122E+02 -0.12543642696E+02 -0.25568541312E+02  0.76410512188E+02  0.00000000000E+00 0. -1.
         -4    1    5    5    0  503 -0.21755151988E+03  0.96805324762E+02 -0.12519413289E+03  0.26902324363E+03  0.00000000000E+00 0.  1.
         -3    1    6    6    0  502  0.50488511544E+01 -0.19834326667E+03 -0.74039976397E+02  0.21177218995E+03  0.00000000000E+00 0.  1.
<mgrwt>
<rscale>  0 0.20707668E+04</rscale>
<asrwt>0</asrwt>
<pdfrwt beam="1">  1        2 0.10253245E+00 0.20707668E+04</pdfrwt>
<pdfrwt beam="2">  1       -2 0.24746533E+00 0.20707668E+04</pdfrwt>
<totfact> 0.26813572E+00</totfact>
</mgrwt>
</event>
<event>
12    1  0.1960998E-007  0.1823687E+04  0.7818608E-02  0.8693803E-01
          1   -1    0    0  501    0  0.00000000000E+00  0.00000000000E+00  0.23253413649E+04  0.23253413649E+04  0.00000000000E+00 0. -1.
         -1   -1    0    0    0  501 -0.00000000000E+00 -0.00000000000E+00 -0.35756424831E+03  0.35756424831E+03  0.00000000000E+00 0.  1.
         23    2    1    2    0    0  0.57083139427E+03 -0.93195414533E+02  0.20451211153E+03  0.62006662928E+03  0.90130766178E+02 0.  0.
        254    2    1    2    0    0 -0.57083139427E+03  0.93195414533E+02  0.17632650050E+04  0.20628389839E+04  0.90092581799E+03 0.  0.
        -24    2    4    4    0    0 -0.73997884679E+03  0.23308326932E+03  0.10218443209E+04  0.12854977997E+04  0.80263769913E+02 0.  0.
         24    2    4    4    0    0  0.16914745253E+03 -0.13988785479E+03  0.74142068413E+03  0.77734118418E+03  0.79844931906E+02 0.  0.
         11    1    3    3    0    0  0.13896376025E+03 -0.60520674608E+02  0.39875736749E+02  0.15672827792E+03  0.00000000000E+00 0. -1.
        -11    1    3    3    0    0  0.43186763402E+03 -0.32674739925E+02  0.16463637478E+03  0.46333835136E+03  0.00000000000E+00 0.  1.
          2    1    6    6  502    0 -0.60345740706E+01 -0.20999239685E+02  0.67844186155E+02  0.71275646237E+02  0.00000000000E+00 0. -1.
          1    1    5    5  503    0 -0.58981990813E+03  0.21704863459E+03  0.84096134378E+03  0.10498636176E+04  0.00000000000E+00 0. -1.
         -2    1    5    5    0  503 -0.15015893867E+03  0.16034634732E+02  0.18088297712E+03  0.23563418212E+03  0.00000000000E+00 0.  1.
         -1    1    6    6    0  502  0.17518202660E+03 -0.11888861511E+03  0.67357649798E+03  0.70606553794E+03  0.00000000000E+00 0.  1.
<mgrwt>
<rscale>  0 0.18236874E+04</rscale>
<asrwt>0</asrwt>
<pdfrwt beam="1">  1        1 0.35774482E+00 0.18236874E+04</pdfrwt>
<pdfrwt beam="2">  1       -1 0.55009886E-01 0.18236874E+04</pdfrwt>
<totfact> 0.56272953E+00</totfact>
</mgrwt>
</event>
<event>
12    1  0.1960998E-007  0.2461881E+04  0.7818608E-02  0.8416693E-01
          1   -1    0    0  501    0  0.00000000000E+00  0.00000000000E+00  0.41212135391E+04  0.41212135391E+04  0.00000000000E+00 0. -1.
         -1   -1    0    0    0  501 -0.00000000000E+00 -0.00000000000E+00 -0.36766225064E+03  0.36766225064E+03  0.00000000000E+00 0.  1.
         23    2    1    2    0    0 -0.92041364339E+03  0.52103038692E+03  0.18504493901E+04  0.21331620346E+04  0.87082612336E+02 0.  0.
        254    2    1    2    0    0  0.92041364339E+03 -0.52103038692E+03  0.19031018983E+04  0.23557137552E+04  0.89942010304E+03 0.  0.
        -24    2    4    4    0    0  0.10614330327E+04 -0.54411747433E+03  0.17997318442E+04  0.21606156282E+04  0.80754400151E+02 0.  0.
         24    2    4    4    0    0 -0.14101938929E+03  0.23087087411E+02  0.10337005412E+03  0.19509812692E+03  0.83417200134E+02 0.  0.
         13    1    3    3    0    0 -0.27694170370E+03  0.19120691144E+03  0.64361774514E+03  0.72629235992E+03  0.00000000000E+00 0. -1.
        -13    1    3    3    0    0 -0.64347193970E+03  0.32982347547E+03  0.12068316450E+04  0.14068696747E+04  0.00000000000E+00 0.  1.
          4    1    6    6  502    0 -0.91007497600E+02  0.34281120972E+02  0.23252407343E+02  0.99991171219E+02  0.00000000000E+00 0. -1.
          1    1    5    5  503    0  0.78824239562E+03 -0.43416028200E+03  0.13953193543E+04  0.16603425325E+04  0.00000000000E+00 0. -1.
         -4    1    5    5    0  503  0.27319063706E+03 -0.10995719232E+03  0.40441248995E+03  0.50027309577E+03  0.00000000000E+00 0.  1.
         -3    1    6    6    0  502 -0.50011891691E+02 -0.11194033561E+02  0.80117646776E+02  0.95106955701E+02  0.00000000000E+00 0.  1.
<mgrwt>
<rscale>  0 0.24618811E+04</rscale>
<asrwt>0</asrwt>
<pdfrwt beam="1">  1        1 0.63403282E+00 0.24618811E+04</pdfrwt>
<pdfrwt beam="2">  1       -1 0.56563426E-01 0.24618811E+04</pdfrwt>
<totfact> 0.21148462E-01</totfact>
</mgrwt>
</event>
<event>
12    1  0.1960998E-007  0.1697699E+04  0.7818608E-02  0.8762678E-01
          1   -1    0    0  501    0  0.00000000000E+00  0.00000000000E+00  0.47104023285E+03  0.47104023285E+03  0.00000000000E+00 0. -1.
         -1   -1    0    0    0  501 -0.00000000000E+00 -0.00000000000E+00 -0.15296902032E+04  0.15296902032E+04  0.00000000000E+00 0.  1.
         23    2    1    2    0    0  0.36431237957E+03  0.38654497159E+03 -0.68479706537E+03  0.87193659483E+03  0.95842994998E+02 0.  0.
        254    2    1    2    0    0 -0.36431237957E+03 -0.38654497159E+03 -0.37385290496E+03  0.11287938412E+04  0.92318417253E+03 0.  0.
        -24    2    4    4    0    0 -0.25164657632E+03  0.27625605344E+03 -0.20089788350E+03  0.43002689969E+03  0.70141060881E+02 0.  0.
         24    2    4    4    0    0 -0.11266580325E+03 -0.66280102503E+03 -0.17295502146E+03  0.69876694151E+03  0.79768521929E+02 0.  0.
         13    1    3    3    0    0  0.29242984048E+03  0.27343780520E+03 -0.45628471320E+03  0.60702486310E+03  0.00000000000E+00 0. -1.
        -13    1    3    3    0    0  0.71882539085E+02  0.11310716639E+03 -0.22851235217E+03  0.26491173173E+03  0.00000000000E+00 0.  1.
          2    1    6    6  502    0 -0.29814386971E+02 -0.69261470054E+02 -0.14685555884E+01  0.75420193317E+02  0.00000000000E+00 0. -1.
          1    1    5    5  503    0 -0.12889075642E+03  0.16400677473E+03 -0.14695042331E+03  0.25515774760E+03  0.00000000000E+00 0. -1.
         -2    1    5    5    0  503 -0.12275581990E+03  0.11224927871E+03 -0.53947460189E+02  0.17486915209E+03  0.00000000000E+00 0.  1.
         -1    1    6    6    0  502 -0.82851416278E+02 -0.59353955498E+03 -0.17148646587E+03  0.62334674819E+03  0.00000000000E+00 0.  1.
<mgrwt>
<rscale>  0 0.16976992E+04</rscale>
<asrwt>0</asrwt>
<pdfrwt beam="1">  1        1 0.72467728E-01 0.16976992E+04</pdfrwt>
<pdfrwt beam="2">  1       -1 0.23533696E+00 0.16976992E+04</pdfrwt>
<totfact> 0.39849513E+00</totfact>
</mgrwt>
</event>
<event>
12    1  0.1960998E-007  0.3509947E+04  0.7818608E-02  0.8111437E-01
          2   -1    0    0  501    0  0.00000000000E+00  0.00000000000E+00  0.20393815280E+04  0.20393815280E+04  0.00000000000E+00 0. -1.
         -2   -1    0    0    0  501 -0.00000000000E+00 -0.00000000000E+00 -0.15102281851E+04  0.15102281851E+04  0.00000000000E+00 0.  1.
         23    2    1    2    0    0  0.78837594212E+03  0.11420908367E+04  0.11235025817E+04  0.17878134560E+04  0.90059961640E+02 0.  0.
        254    2    1    2    0    0 -0.78837594212E+03 -0.11420908367E+04 -0.59434923889E+03  0.17617962571E+04  0.90816679550E+03 0.  0.
        -24    2    4    4    0    0 -0.95609407204E+03 -0.91778775176E+03 -0.32961189253E+03  0.13680561388E+04  0.80519360131E+02 0.  0.
         24    2    4    4    0    0  0.16771812993E+03 -0.22430308496E+03 -0.26473734636E+03  0.39374011832E+03  0.80648454371E+02 0.  0.
         11    1    3    3    0    0  0.16785659637E+03  0.28753591958E+03  0.23267021410E+03  0.40618735890E+03  0.00000000000E+00 0.  1.
        -11    1    3    3    0    0  0.62051934575E+03  0.85455491714E+03  0.89083236763E+03  0.13816260971E+04  0.00000000000E+00 0. -1.
          4    1    6    6  502    0  0.12519936709E+02 -0.55126417625E+02 -0.85409600512E+02  0.10242299837E+03  0.00000000000E+00 0. -1.
          1    1    5    5  503    0 -0.23818794044E+02 -0.15181935992E+02  0.32096621826E+01  0.28427593312E+02  0.00000000000E+00 0. -1.
         -2    1    5    5    0  503 -0.93227527800E+03 -0.90260581577E+03 -0.33282155471E+03  0.13396285455E+04  0.00000000000E+00 0.  1.
         -3    1    6    6    0  502  0.15519819322E+03 -0.16917666733E+03 -0.17932774585E+03  0.29131711995E+03  0.00000000000E+00 0.  1.
<mgrwt>
<rscale>  0 0.35099467E+04</rscale>
<asrwt>0</asrwt>
<pdfrwt beam="1">  1        2 0.31375100E+00 0.35099467E+04</pdfrwt>
<pdfrwt beam="2">  1       -2 0.23234280E+00 0.35099467E+04</pdfrwt>
<totfact> 0.43114091E-01</totfact>
</mgrwt>
</event>
<event>
12    1  0.1960998E-007  0.3161701E+04  0.7818608E-02  0.8199006E-01
          1   -1    0    0  501    0  0.00000000000E+00  0.00000000000E+00  0.15880771258E+04  0.15880771258E+04  0.00000000000E+00 0. -1.
         -1   -1    0    0    0  501 -0.00000000000E+00 -0.00000000000E+00 -0.15736572083E+04  0.15736572083E+04  0.00000000000E+00 0.  1.
         23    2    1    2    0    0 -0.47288198140E+02 -0.14431999393E+04  0.15016334340E+03  0.14545781901E+04  0.90478964593E+02 0.  0.
        254    2    1    2    0    0  0.47288198140E+02  0.14431999393E+04 -0.13574342595E+03  0.17071561440E+04  0.90049629868E+03 0.  0.
        -24    2    4    4    0    0  0.45117075084E+03  0.78845795696E+03 -0.19367291629E+03  0.93225272541E+03  0.79780631891E+02 0.  0.
         24    2    4    4    0    0 -0.40388255270E+03  0.65474198233E+03  0.57929490338E+02  0.77490341861E+03  0.72878683594E+02 0.  0.
         11    1    3    3    0    0 -0.52117241616E+02 -0.76205403971E+03  0.11566747364E+03  0.77254225177E+03  0.00000000000E+00 0. -1.
        -11    1    3    3    0    0  0.48290434759E+01 -0.68114589957E+03  0.34495869755E+02  0.68203593835E+03  0.00000000000E+00 0.  1.
          2    1    6    6  502    0 -0.22009390269E+03  0.28859017288E+03  0.20824681772E+02  0.36353718001E+03  0.00000000000E+00 0. -1.
          3    1    5    5  503    0  0.14159945008E+03  0.31409412738E+03 -0.93771797572E+02  0.35706956624E+03  0.00000000000E+00 0. -1.
         -4    1    5    5    0  503  0.30957130077E+03  0.47436382958E+03 -0.99901118718E+02  0.57518315917E+03  0.00000000000E+00 0.  1.
         -1    1    6    6    0  502 -0.18378865002E+03  0.36615180945E+03  0.37104808566E+02  0.41136623860E+03  0.00000000000E+00 0.  1.
<mgrwt>
<rscale>  0 0.31617015E+04</rscale>
<asrwt>0</asrwt>
<pdfrwt beam="1">  1        1 0.24431956E+00 0.31617015E+04</pdfrwt>
<pdfrwt beam="2">  1       -1 0.24210111E+00 0.31617015E+04</pdfrwt>
<totfact> 0.37488244E-01</totfact>
</mgrwt>
</event>
<event>
12    1  0.1960998E-007  0.1523160E+04  0.7818608E-02  0.8869196E-01
         -1   -1    0    0    0  501 -0.00000000000E+00  0.00000000000E+00  0.78372569293E+03  0.78372569293E+03  0.00000000000E+00 0.  1.
          1   -1    0    0  501    0  0.00000000000E+00 -0.00000000000E+00 -0.74006000376E+03  0.74006000376E+03  0.00000000000E+00 0. -1.
         23    2    1    2    0    0 -0.35572286465E+03 -0.22961574950E+03 -0.23359998819E+03  0.49240840582E+03  0.92924349832E+02 0.  0.
        254    2    1    2    0    0  0.35572286465E+03  0.22961574950E+03  0.27726567736E+03  0.10313772909E+04  0.89866607336E+03 0.  0.
        -24    2    4    4    0    0 -0.10368859819E+02 -0.66889002091E+02 -0.27925970881E+03  0.29795147753E+03  0.78787347610E+02 0.  0.
         24    2    4    4    0    0  0.36609172447E+03  0.29650475159E+03  0.55652538617E+03  0.73342581334E+03  0.79086659945E+02 0.  0.
         11    1    3    3    0    0 -0.18878916959E+03 -0.14417785001E+03 -0.82114396640E+02  0.25133916751E+03  0.00000000000E+00 0.  1.
        -11    1    3    3    0    0 -0.16693369506E+03 -0.85437899489E+02 -0.15148559155E+03  0.24106923832E+03  0.00000000000E+00 0. -1.
          2    1    6    6  502    0  0.15273268326E+03  0.10072781779E+03  0.26927222157E+03  0.32554707052E+03  0.00000000000E+00 0. -1.
          1    1    5    5  503    0  0.91997884979E+01 -0.18384901262E+01 -0.16322919302E+03  0.16349857984E+03  0.00000000000E+00 0. -1.
         -2    1    5    5    0  503 -0.19568648317E+02 -0.65050511965E+02 -0.11603051578E+03  0.13445289769E+03  0.00000000000E+00 0.  1.
         -1    1    6    6    0  502  0.21335904121E+03  0.19577693380E+03  0.28725316459E+03  0.40787874282E+03  0.00000000000E+00 0.  1.
<mgrwt>
<rscale>  0 0.15231599E+04</rscale>
<asrwt>0</asrwt>
<pdfrwt beam="1">  1        1 0.11385538E+00 0.15231599E+04</pdfrwt>
<pdfrwt beam="2">  1       -1 0.12057318E+00 0.15231599E+04</pdfrwt>
<totfact> 0.14778661E+01</totfact>
</mgrwt>
</event>
<event>
12    1  0.1960998E-007  0.2648786E+04  0.7818608E-02  0.8351816E-01
         -1   -1    0    0    0  501 -0.00000000000E+00  0.00000000000E+00  0.16131027984E+04  0.16131027984E+04  0.00000000000E+00 0.  1.
          1   -1    0    0  501    0  0.00000000000E+00 -0.00000000000E+00 -0.10873561375E+04  0.10873561375E+04  0.00000000000E+00 0. -1.
         23    2    1    2    0    0 -0.97814496843E+03  0.20136067293E+03 -0.38741276411E+03  0.10748821253E+04  0.89270563615E+02 0.  0.
        254    2    1    2    0    0  0.97814496843E+03 -0.20136067293E+03  0.91315942499E+03  0.16255768106E+04  0.90073643861E+03 0.  0.
        -24    2    4    4    0    0 -0.13994099575E+03 -0.92654427984E+02  0.16827005309E+02  0.18643165870E+03  0.79405855856E+02 0.  0.
         24    2    4    4    0    0  0.11180859642E+04 -0.10870624495E+03  0.89633241968E+03  0.14391451519E+04  0.76116297062E+02 0.  0.
         11    1    3    3    0    0 -0.67570157378E+03  0.11821272675E+03 -0.22678572688E+03  0.72248088659E+03  0.00000000000E+00 0.  1.
        -11    1    3    3    0    0 -0.30244339466E+03  0.83147946179E+02 -0.16062703723E+03  0.35240123867E+03  0.00000000000E+00 0. -1.
          4    1    6    6  502    0  0.25531827023E+03 -0.17271172745E+01  0.17577758925E+03  0.30998090736E+03  0.00000000000E+00 0. -1.
          3    1    5    5  503    0 -0.12820692633E+01 -0.27215692689E+02 -0.13070868554E+02  0.30218954894E+02  0.00000000000E+00 0. -1.
         -4    1    5    5    0  503 -0.13865892648E+03 -0.65438735295E+02  0.29897873863E+02  0.15621270381E+03  0.00000000000E+00 0.  1.
         -3    1    6    6    0  502  0.86276769395E+03 -0.10697912767E+03  0.72055483044E+03  0.11291642445E+04  0.00000000000E+00 0.  1.
<mgrwt>
<rscale>  0 0.26487863E+04</rscale>
<asrwt>0</asrwt>
<pdfrwt beam="1">  1        1 0.16728556E+00 0.26487863E+04</pdfrwt>
<pdfrwt beam="2">  1       -1 0.24816966E+00 0.26487863E+04</pdfrwt>
<totfact> 0.81460387E-01</totfact>
</mgrwt>
</event>
<event>
12    1  0.1960998E-007  0.3179571E+04  0.7818608E-02  0.8194233E-01
          2   -1    0    0  501    0  0.00000000000E+00  0.00000000000E+00  0.22031248554E+04  0.22031248554E+04  0.00000000000E+00 0.  1.
         -2   -1    0    0    0  501 -0.00000000000E+00 -0.00000000000E+00 -0.11471970286E+04  0.11471970286E+04  0.00000000000E+00 0. -1.
         23    2    1    2    0    0  0.94519884626E+03 -0.26738038653E+03 -0.65211995200E+03  0.11828260606E+04  0.94466542788E+02 0.  0.
        254    2    1    2    0    0 -0.94519884626E+03  0.26738038653E+03  0.17080477788E+04  0.21674958234E+04  0.90317096922E+03 0.  0.
        -24    2    4    4    0    0  0.29046185176E+02  0.32247334771E+03  0.61851047605E+03  0.70284974619E+03  0.81300774145E+02 0.  0.
         24    2    4    4    0    0 -0.97424503143E+03 -0.55092961181E+02  0.10895373028E+04  0.14646460772E+04  0.76863396399E+02 0.  0.
         11    1    3    3    0    0  0.63465213559E+03 -0.18514629986E+03 -0.49060049837E+03  0.82325654237E+03  0.00000000000E+00 0. -1.
        -11    1    3    3    0    0  0.31054671067E+03 -0.82234086667E+02 -0.16151945363E+03  0.35956951820E+03  0.00000000000E+00 0.  1.
          2    1    6    6  502    0 -0.19882265489E+03 -0.45551725500E+01  0.26922978153E+03  0.33471760181E+03  0.00000000000E+00 0. -1.
          3    1    5    5  503    0  0.25230318787E+02  0.31465486090E+02  0.50573739476E+02  0.64686543621E+02  0.00000000000E+00 0. -1.
         -4    1    5    5    0  503  0.38158663887E+01  0.29100786162E+03  0.56793673658E+03  0.63816320257E+03  0.00000000000E+00 0.  1.
         -3    1    6    6    0  502 -0.77542237654E+03 -0.50537788631E+02  0.82030752124E+03  0.11299284754E+04  0.00000000000E+00 0.  1.
<mgrwt>
<rscale>  0 0.31795712E+04</rscale>
<asrwt>0</asrwt>
<pdfrwt beam="1">  1        2 0.33894228E+00 0.31795712E+04</pdfrwt>
<pdfrwt beam="2">  1       -2 0.17649185E+00 0.31795712E+04</pdfrwt>
<totfact> 0.83203961E-01</totfact>
</mgrwt>
</event>
<event>
12    1  0.1960998E-007  0.2856580E+04  0.7818608E-02  0.8285915E-01
         -2   -1    0    0    0  501 -0.00000000000E+00  0.00000000000E+00  0.11122858360E+04  0.11122858360E+04  0.00000000000E+00 0.  1.
          2   -1    0    0  501    0  0.00000000000E+00 -0.00000000000E+00 -0.18340721325E+04  0.18340721325E+04  0.00000000000E+00 0. -1.
         23    2    1    2    0    0 -0.11759902195E+04  0.47915069722E+03 -0.57448648731E+03  0.13965452134E+04  0.88121630457E+02 0.  0.
        254    2    1    2    0    0  0.11759902195E+04 -0.47915069722E+03 -0.14729980922E+03  0.15498127551E+04  0.87617575581E+03 0.  0.
        -24    2    4    4    0    0  0.12700522411E+04 -0.42374880012E+03 -0.26810600989E+03  0.13676817259E+04  0.77953384308E+02 0.  0.
         24    2    4    4    0    0 -0.94062021582E+02 -0.55401897100E+02  0.12080620067E+03  0.18213102920E+03  0.81612128817E+02 0.  0.
         11    1    3    3    0    0 -0.88948140219E+03  0.40242793993E+03 -0.44442810292E+03  0.10726797054E+04  0.00000000000E+00 0.  1.
        -11    1    3    3    0    0 -0.28650881735E+03  0.76722757287E+02 -0.13005838438E+03  0.32386550797E+03  0.00000000000E+00 0. -1.
          4    1    6    6  502    0  0.12280232270E+01 -0.30088729864E+01 -0.10876578425E+02  0.11351709824E+02  0.00000000000E+00 0. -1.
          1    1    5    5  503    0  0.29880127736E+03 -0.13280473882E+03 -0.53648221235E+02  0.33135695805E+03  0.00000000000E+00 0. -1.
         -2    1    5    5    0  503  0.97125096376E+03 -0.29094406130E+03 -0.21445778865E+03  0.10363247679E+04  0.00000000000E+00 0.  1.
         -3    1    6    6    0  502 -0.95290044809E+02 -0.52393024114E+02  0.13168277910E+03  0.17077931937E+03  0.00000000000E+00 0.  1.
<mgrwt>
<rscale>  0 0.28565801E+04</rscale>
<asrwt>0</asrwt>
<pdfrwt beam="1">  1        2 0.28216494E+00 0.28565801E+04</pdfrwt>
<pdfrwt beam="2">  1       -2 0.17112090E+00 0.28565801E+04</pdfrwt>
<totfact> 0.14974965E+00</totfact>
</mgrwt>
</event>
<event>
12    1  0.1960998E-007  0.1404818E+04  0.7818608E-02  0.8950338E-01
         -2   -1    0    0    0  501 -0.00000000000E+00  0.00000000000E+00  0.79601820632E+03  0.79601820632E+03  0.00000000000E+00 0.  1.
          2   -1    0    0  501    0  0.00000000000E+00 -0.00000000000E+00 -0.61980806930E+03  0.61980806930E+03  0.00000000000E+00 0. -1.
         23    2    1    2    0    0  0.15975248576E+03  0.21946758868E+03  0.35769403937E+03  0.45847708829E+03  0.92570705389E+02 0.  0.
        254    2    1    2    0    0 -0.15975248576E+03 -0.21946758868E+03 -0.18148390235E+03  0.95734918734E+03  0.89994120946E+03 0.  0.
        -24    2    4    4    0    0  0.16853126974E+03 -0.47895378110E+03 -0.10661133159E+03  0.52506851257E+03  0.80817408762E+02 0.  0.
         24    2    4    4    0    0 -0.32828375550E+03  0.25948619242E+03 -0.74872570761E+02  0.43228067477E+03  0.78468922184E+02 0.  0.
         11    1    3    3    0    0  0.69860020256E+02  0.79456103893E+02  0.21361548659E+03  0.23838051722E+03  0.00000000000E+00 0.  1.
        -11    1    3    3    0    0  0.89892465503E+02  0.14001148479E+03  0.14407855278E+03  0.22009657107E+03  0.00000000000E+00 0. -1.
          2    1    6    6  502    0 -0.30958300914E+03  0.25882852223E+03 -0.82841098622E+02  0.41194233952E+03  0.00000000000E+00 0. -1.
          3    1    5    5  503    0  0.15163441460E+03 -0.45781113048E+03 -0.83429844849E+02  0.48943290235E+03  0.00000000000E+00 0. -1.
         -4    1    5    5    0  503  0.16896855134E+02 -0.21142650614E+02 -0.23181486740E+02  0.35635610222E+02  0.00000000000E+00 0.  1.
         -1    1    6    6    0  502 -0.18700746358E+02  0.65767018357E+00  0.79685278609E+01  0.20338335249E+02  0.00000000000E+00 0.  1.
<mgrwt>
<rscale>  0 0.14048181E+04</rscale>
<asrwt>0</asrwt>
<pdfrwt beam="1">  1        2 0.95355088E-01 0.14048181E+04</pdfrwt>
<pdfrwt beam="2">  1       -2 0.12246434E+00 0.14048181E+04</pdfrwt>
<totfact> 0.23407121E+01</totfact>
</mgrwt>
</event>
<event>
12    1  0.1960998E-007  0.1194397E+04  0.7818608E-02  0.9117775E-01
         -2   -1    0    0    0  501 -0.00000000000E+00  0.00000000000E+00  0.41560065640E+03  0.41560065640E+03  0.00000000000E+00 0.  1.
          2   -1    0    0  501    0  0.00000000000E+00 -0.00000000000E+00 -0.85814607185E+03  0.85814607185E+03  0.00000000000E+00 0. -1.
         23    2    1    2    0    0 -0.12292890776E+03  0.21426908285E+03 -0.60376127352E+02  0.27043738846E+03  0.92023627911E+02 0.  0.
        254    2    1    2    0    0  0.12292890776E+03 -0.21426908285E+03 -0.38216928810E+03  0.10033093398E+04  0.89417756085E+03 0.  0.
        -24    2    4    4    0    0  0.13107981626E+03  0.33693866732E+03 -0.16722242729E+03  0.40612103713E+03  0.79128836973E+02 0.  0.
         24    2    4    4    0    0 -0.81509085001E+01 -0.55120775017E+03 -0.21494686080E+03  0.59718830266E+03  0.80841169667E+02 0.  0.
         11    1    3    3    0    0 -0.19439777994E+02  0.10688324957E+03 -0.53617572365E+02  0.12114775307E+03  0.00000000000E+00 0. -1.
        -11    1    3    3    0    0 -0.10348912977E+03  0.10738583327E+03 -0.67585549867E+01  0.14928963539E+03  0.00000000000E+00 0.  1.
          4    1    6    6  502    0  0.63529257928E+01 -0.53106448021E+03 -0.21322673677E+03  0.57230715798E+03  0.00000000000E+00 0. -1.
          3    1    5    5  503    0  0.19441024524E+02  0.15747819169E+03 -0.75652766859E+02  0.17578587949E+03  0.00000000000E+00 0. -1.
         -4    1    5    5    0  503  0.11163879174E+03  0.17946047563E+03 -0.91569660435E+02  0.23033515764E+03  0.00000000000E+00 0.  1.
         -3    1    6    6    0  502 -0.14503834293E+02 -0.20143269963E+02 -0.17201240317E+01  0.24881144682E+02  0.00000000000E+00 0.  1.
<mgrwt>
<rscale>  0 0.11943970E+04</rscale>
<asrwt>0</asrwt>
<pdfrwt beam="1">  1        2 0.13202247E+00 0.11943970E+04</pdfrwt>
<pdfrwt beam="2">  1       -2 0.63938562E-01 0.11943970E+04</pdfrwt>
<totfact> 0.69962035E+01</totfact>
</mgrwt>
</event>
<event>
12    1  0.1960998E-007  0.2169726E+04  0.7818608E-02  0.8531136E-01
          2   -1    0    0  501    0  0.00000000000E+00  0.00000000000E+00  0.71857030381E+03  0.71857030381E+03  0.00000000000E+00 0.  1.
         -2   -1    0    0    0  501 -0.00000000000E+00 -0.00000000000E+00 -0.16378738533E+04  0.16378738533E+04  0.00000000000E+00 0. -1.
         23    2    1    2    0    0 -0.28474540905E+03  0.82908983885E+03 -0.18432057267E+03  0.90060458043E+03  0.92976491235E+02 0.  0.
        254    2    1    2    0    0  0.28474540905E+03 -0.82908983885E+03 -0.73498297684E+03  0.14558395767E+04  0.90044377282E+03 0.  0.
        -24    2    4    4    0    0  0.82877106430E+02 -0.75269704767E+02 -0.65283129185E+03  0.66725740580E+03  0.80682134010E+02 0.  0.
         24    2    4    4    0    0  0.20186830262E+03 -0.75382013408E+03 -0.82151684983E+02  0.78858217091E+03  0.78213392560E+02 0.  0.
         11    1    3    3    0    0 -0.14257621043E+03  0.29073897907E+03 -0.48015840438E+02  0.32735706906E+03  0.00000000000E+00 0.  1.
        -11    1    3    3    0    0 -0.14216919862E+03  0.53835085978E+03 -0.13630473223E+03  0.57324751137E+03  0.00000000000E+00 0. -1.
          2    1    6    6  502    0  0.10545020325E+02 -0.44740138249E+02 -0.23977308923E+02  0.51843888428E+02  0.00000000000E+00 0. -1.
          3    1    5    5  503    0  0.64475664368E+02 -0.42871779319E+01 -0.31496960665E+03  0.32152969428E+03  0.00000000000E+00 0. -1.
         -4    1    5    5    0  503  0.18401442061E+02 -0.70982526835E+02 -0.33786168521E+03  0.34572771152E+03  0.00000000000E+00 0.  1.
         -1    1    6    6    0  502  0.19132328229E+03 -0.70907999583E+03 -0.58174376061E+02  0.73673828248E+03  0.00000000000E+00 0.  1.
<mgrwt>
<rscale>  0 0.21697258E+04</rscale>
<asrwt>0</asrwt>
<pdfrwt beam="1">  1        2 0.11054928E+00 0.21697258E+04</pdfrwt>
<pdfrwt beam="2">  1       -2 0.25198059E+00 0.21697258E+04</pdfrwt>
<totfact> 0.22685152E+00</totfact>
</mgrwt>
</event>
<event>
12    1  0.1960998E-007  0.3759435E+04  0.7818608E-02  0.8054917E-01
         -2   -1    0    0    0  501 -0.00000000000E+00  0.00000000000E+00  0.12972963946E+04  0.12972963946E+04  0.00000000000E+00 0.  1.
          2   -1    0    0  501    0  0.00000000000E+00 -0.00000000000E+00 -0.27236160145E+04  0.27236160145E+04  0.00000000000E+00 0. -1.
         23    2    1    2    0    0  0.15108754023E+04 -0.33905130320E+03 -0.15921737189E+04  0.22228433912E+04  0.91188392617E+02 0.  0.
        254    2    1    2    0    0 -0.15108754023E+04  0.33905130320E+03  0.16585409904E+03  0.17980690180E+04  0.89880161541E+03 0.  0.
        -24    2    4    4    0    0 -0.91570355394E+02 -0.10228728259E+03  0.26248143735E+03  0.30640110668E+03  0.78341017707E+02 0.  0.
         24    2    4    4    0    0 -0.14193050469E+04  0.44133858579E+03 -0.96627338307E+02  0.14916679113E+04  0.80806879072E+02 0.  0.
         11    1    3    3    0    0  0.10981092957E+04 -0.27225911616E+03 -0.11163552063E+04  0.15894080653E+04  0.00000000000E+00 0.  1.
        -11    1    3    3    0    0  0.41276610659E+03 -0.66792187038E+02 -0.47581851268E+03  0.63343532583E+03  0.00000000000E+00 0. -1.
          2    1    6    6  502    0 -0.10100155625E+04  0.29152208753E+03 -0.38379105922E+02  0.10519455879E+04  0.00000000000E+00 0. -1.
          1    1    5    5  503    0  0.89036411691E+01 -0.55691242822E+01  0.16554702400E+01  0.10631582810E+02  0.00000000000E+00 0. -1.
         -2    1    5    5    0  503 -0.10047399656E+03 -0.96718158309E+02  0.26082596711E+03  0.29576952387E+03  0.00000000000E+00 0.  1.
         -1    1    6    6    0  502 -0.40928948433E+03  0.14981649826E+03 -0.58248232385E+02  0.43972232342E+03  0.00000000000E+00 0.  1.
<mgrwt>
<rscale>  0 0.37594347E+04</rscale>
<asrwt>0</asrwt>
<pdfrwt beam="1">  1        2 0.41901784E+00 0.37594347E+04</pdfrwt>
<pdfrwt beam="2">  1       -2 0.19958406E+00 0.37594347E+04</pdfrwt>
<totfact> 0.27671666E-01</totfact>
</mgrwt>
</event>
<event>
12    1  0.1960998E-007  0.3210278E+04  0.7818608E-02  0.8186108E-01
         -1   -1    0    0    0  501 -0.00000000000E+00  0.00000000000E+00  0.31889594218E+04  0.31889594218E+04  0.00000000000E+00 0.  1.
          1   -1    0    0  501    0  0.00000000000E+00 -0.00000000000E+00 -0.80793483463E+03  0.80793483463E+03  0.00000000000E+00 0. -1.
         23    2    1    2    0    0 -0.88903248427E+03 -0.11782705547E+04  0.11625858510E+04  0.18811156301E+04  0.91048858668E+02 0.  0.
        254    2    1    2    0    0  0.88903248427E+03  0.11782705547E+04  0.12184387362E+04  0.21157786263E+04  0.90179043226E+03 0.  0.
        -24    2    4    4    0    0  0.70049247526E+03  0.38107609366E+03  0.23863827055E+03  0.83624031970E+03  0.80255535949E+02 0.  0.
         24    2    4    4    0    0  0.18854000900E+03  0.79719446104E+03  0.97980046561E+03  0.12795383066E+04  0.78377178103E+02 0.  0.
         13    1    3    3    0    0 -0.67790878818E+03 -0.87863726024E+03  0.92062825612E+03  0.14419154435E+04  0.00000000000E+00 0.  1.
        -13    1    3    3    0    0 -0.21112369608E+03 -0.29963329447E+03  0.24195759488E+03  0.43920018661E+03  0.00000000000E+00 0. -1.
          2    1    6    6  502    0  0.15309799670E+03  0.48504081166E+03  0.61707307605E+03  0.79967666388E+03  0.00000000000E+00 0. -1.
          1    1    5    5  503    0  0.50127033474E+03  0.28228017337E+03  0.13506155835E+03  0.59092780381E+03  0.00000000000E+00 0. -1.
         -2    1    5    5    0  503  0.19922214052E+03  0.98795920294E+02  0.10357671220E+03  0.24531251589E+03  0.00000000000E+00 0.  1.
         -1    1    6    6    0  502  0.35442012306E+02  0.31215364938E+03  0.36272738956E+03  0.47986164276E+03  0.00000000000E+00 0.  1.
<mgrwt>
<rscale>  0 0.32102781E+04</rscale>
<asrwt>0</asrwt>
<pdfrwt beam="1">  1        1 0.12429767E+00 0.32102781E+04</pdfrwt>
<pdfrwt beam="2">  1       -1 0.49060914E+00 0.32102781E+04</pdfrwt>
<totfact> 0.31163451E-02</totfact>
</mgrwt>
</event>
<event>
12    1  0.1960998E-007  0.1145331E+04  0.7818608E-02  0.9162101E-01
          2   -1    0    0  501    0  0.00000000000E+00  0.00000000000E+00  0.60122601755E+03  0.60122601755E+03  0.00000000000E+00 0.  1.
         -2   -1    0    0    0  501 -0.00000000000E+00 -0.00000000000E+00 -0.54546209548E+03  0.54546209548E+03  0.00000000000E+00 0. -1.
         23    2    1    2    0    0 -0.19749737670E+03  0.37424898967E+02 -0.18226282933E+02  0.22026835402E+03  0.88204951841E+02 0.  0.
        254    2    1    2    0    0  0.19749737670E+03 -0.37424898967E+02  0.73990205009E+02  0.92641975901E+03  0.90131747047E+03 0.  0.
        -24    2    4    4    0    0 -0.28831377614E+03  0.47963019214E+02  0.25341341363E+03  0.39540989906E+03  0.81886173081E+02 0.  0.
         24    2    4    4    0    0  0.48581115284E+03 -0.85387918181E+02 -0.17942320862E+03  0.53100985995E+03  0.80468694413E+02 0.  0.
         13    1    3    3    0    0 -0.13779573204E+03  0.65314112398E+02 -0.24474200587E+01  0.15251094030E+03  0.00000000000E+00 0.  1.
        -13    1    3    3    0    0 -0.59701644660E+02 -0.27889213431E+02 -0.15778862875E+02  0.67757413724E+02  0.00000000000E+00 0. -1.
          2    1    6    6  502    0  0.37249921010E+03 -0.82340494047E+02 -0.16877538186E+03  0.41715794132E+03  0.00000000000E+00 0. -1.
          3    1    5    5  503    0 -0.22832185220E+03  0.44823762641E+02  0.23915037495E+03  0.33366591035E+03  0.00000000000E+00 0. -1.
         -4    1    5    5    0  503 -0.59991923937E+02  0.31392565730E+01  0.14263038684E+02  0.61743988712E+02  0.00000000000E+00 0.  1.
         -1    1    6    6    0  502  0.11331194274E+03 -0.30474241331E+01 -0.10647826760E+02  0.11385191863E+03  0.00000000000E+00 0.  1.
<mgrwt>
<rscale>  0 0.11453314E+04</rscale>
<asrwt>0</asrwt>
<pdfrwt beam="1">  1        2 0.92496311E-01 0.11453314E+04</pdfrwt>
<pdfrwt beam="2">  1       -2 0.83917245E-01 0.11453314E+04</pdfrwt>
<totfact> 0.60805333E+01</totfact>
</mgrwt>
</event>
<event>
12    1  0.1960998E-007  0.1447280E+04  0.7818608E-02  0.8920289E-01
          1   -1    0    0  501    0  0.00000000000E+00  0.00000000000E+00  0.82918602725E+03  0.82918602725E+03  0.00000000000E+00 0. -1.
         -1   -1    0    0    0  501 -0.00000000000E+00 -0.00000000000E+00 -0.63152836596E+03  0.63152836596E+03  0.00000000000E+00 0.  1.
         23    2    1    2    0    0 -0.36879504947E+03  0.46493725012E+02 -0.16851773010E+03  0.41779705480E+03  0.89357141103E+02 0.  0.
        254    2    1    2    0    0  0.36879504947E+03 -0.46493725012E+02  0.36617539140E+03  0.10429173384E+04  0.90300647978E+03 0.  0.
        -24    2    4    4    0    0  0.28691951383E+03 -0.21756392099E+03  0.61645317918E+03  0.71854178995E+03  0.81430428246E+02 0.  0.
         24    2    4    4    0    0  0.81875535639E+02  0.17107019598E+03 -0.25027778778E+03  0.32437554846E+03  0.81313652571E+02 0.  0.
         11    1    3    3    0    0 -0.12221425658E+03  0.44562155408E+02 -0.24939084011E+02  0.13245402266E+03  0.00000000000E+00 0. -1.
        -11    1    3    3    0    0 -0.24658079288E+03  0.19315696033E+01 -0.14357864609E+03  0.28534303215E+03  0.00000000000E+00 0.  1.
          4    1    6    6  502    0  0.71784035751E+02  0.56570518955E+02 -0.11254399340E+03  0.14498041887E+03  0.00000000000E+00 0. -1.
          3    1    5    5  503    0  0.45855405676E+02 -0.29633338112E+01  0.89468142923E+02  0.10057856718E+03  0.00000000000E+00 0. -1.
         -4    1    5    5    0  503  0.24106410815E+03 -0.21460058718E+03  0.52698503626E+03  0.61796322277E+03  0.00000000000E+00 0.  1.
         -3    1    6    6    0  502  0.10091499888E+02  0.11449967703E+03 -0.13773379438E+03  0.17939512960E+03  0.00000000000E+00 0.  1.
<mgrwt>
<rscale>  0 0.14472795E+04</rscale>
<asrwt>0</asrwt>
<pdfrwt beam="1">  1        1 0.12756708E+00 0.14472795E+04</pdfrwt>
<pdfrwt beam="2">  1       -1 0.97158210E-01 0.14472795E+04</pdfrwt>
<totfact> 0.20634126E+01</totfact>
</mgrwt>
</event>
<event>
12    1  0.2240924E-007  0.3404658E+04  0.7818608E-02  0.8136764E-01
          1   -1    0    0  501    0  0.00000000000E+00  0.00000000000E+00  0.16749099724E+04  0.16749099724E+04  0.00000000000E+00 0. -1.
         -1   -1    0    0    0  501 -0.00000000000E+00 -0.00000000000E+00 -0.17301972895E+04  0.17301972895E+04  0.00000000000E+00 0.  1.
         23    2    1    2    0    0 -0.12129176269E+04  0.56088264341E+03  0.82206495553E+03  0.15707267215E+04  0.75054201951E+02 0.  0.
        254    2    1    2    0    0  0.12129176269E+04 -0.56088264341E+03 -0.87735227263E+03  0.18343805403E+04  0.89969241815E+03 0.  0.
        -24    2    4    4    0    0  0.97627207341E+03 -0.38807222750E+03 -0.17390192805E+03  0.10679746987E+04  0.81368676301E+02 0.  0.
         24    2    4    4    0    0  0.23664555346E+03 -0.17281041591E+03 -0.70345034457E+03  0.76640584161E+03  0.81675999902E+02 0.  0.
         11    1    3    3    0    0 -0.86956389558E+03  0.36439054693E+03  0.57860765282E+03  0.11062136571E+04  0.00000000000E+00 0. -1.
        -11    1    3    3    0    0 -0.34335373129E+03  0.19649209648E+03  0.24345730272E+03  0.46451306442E+03  0.00000000000E+00 0.  1.
          2    1    6    6  502    0  0.23723708443E+03 -0.17539876031E+03 -0.66080230044E+03  0.72367523076E+03  0.00000000000E+00 0. -1.
          1    1    5    5  503    0  0.90979441349E+03 -0.38274881227E+03 -0.16222659496E+03  0.10002699617E+04  0.00000000000E+00 0. -1.
         -2    1    5    5    0  503  0.66477659912E+02 -0.53234152309E+01 -0.11675333099E+02  0.67704737058E+02  0.00000000000E+00 0.  1.
         -1    1    6    6    0  502 -0.59153096965E+00  0.25883443999E+01 -0.42648044137E+02  0.42730610859E+02  0.00000000000E+00 0.  1.
<mgrwt>
<rscale>  0 0.34046584E+04</rscale>
<asrwt>0</asrwt>
<pdfrwt beam="1">  1        1 0.25767846E+00 0.34046584E+04</pdfrwt>
<pdfrwt beam="2">  1       -1 0.26618420E+00 0.34046584E+04</pdfrwt>
<totfact> 0.22302963E-01</totfact>
</mgrwt>
</event>
<event>
12    1  0.1960998E-007  0.2128444E+04  0.7818608E-02  0.8548816E-01
         -2   -1    0    0    0  501 -0.00000000000E+00  0.00000000000E+00  0.36939561547E+03  0.36939561547E+03  0.00000000000E+00 0.  1.
          2   -1    0    0  501    0  0.00000000000E+00 -0.00000000000E+00 -0.30660042060E+04  0.30660042060E+04  0.00000000000E+00 0. -1.
         23    2    1    2    0    0 -0.80445837471E+03  0.75915927808E+02 -0.16341414578E+04  0.18254163198E+04  0.93861236828E+02 0.  0.
        254    2    1    2    0    0  0.80445837471E+03 -0.75915927808E+02 -0.10624671327E+04  0.16099835017E+04  0.90016329782E+03 0.  0.
        -24    2    4    4    0    0  0.44227407122E+02  0.11971923481E+03 -0.74372677984E+03  0.75881583096E+03  0.79894828044E+02 0.  0.
         24    2    4    4    0    0  0.76023096759E+03 -0.19563516262E+03 -0.31874035289E+03  0.85116767069E+03  0.81650169213E+02 0.  0.
         11    1    3    3    0    0 -0.35122769528E+03  0.79843733143E+02 -0.71591048717E+03  0.80141358941E+03  0.00000000000E+00 0. -1.
        -11    1    3    3    0    0 -0.45323067944E+03 -0.39278053359E+01 -0.91823097064E+03  0.10240027304E+04  0.00000000000E+00 0.  1.
          4    1    6    6  502    0  0.26919626632E+02 -0.35803101734E+01  0.36796144818E+01  0.27404825883E+02  0.00000000000E+00 0. -1.
          3    1    5    5  503    0 -0.77004859341E+01 -0.13918405172E+00 -0.64172138617E+01  0.10024843618E+02  0.00000000000E+00 0. -1.
         -4    1    5    5    0  503  0.51927893056E+02  0.11985841886E+03 -0.73730956598E+03  0.74879098735E+03  0.00000000000E+00 0.  1.
         -3    1    6    6    0  502  0.73331134096E+03 -0.19205485245E+03 -0.32241996737E+03  0.82376284481E+03  0.00000000000E+00 0.  1.
<mgrwt>
<rscale>  0 0.21284440E+04</rscale>
<asrwt>0</asrwt>
<pdfrwt beam="1">  1        2 0.47169293E+00 0.21284440E+04</pdfrwt>
<pdfrwt beam="2">  1       -2 0.56830098E-01 0.21284440E+04</pdfrwt>
<totfact> 0.42308606E+00</totfact>
</mgrwt>
</event>
<event>
12    1  0.1960998E-007  0.2619873E+04  0.7818608E-02  0.8361482E-01
         -3   -1    0    0    0  501 -0.00000000000E+00  0.00000000000E+00  0.90241831676E+03  0.90241831676E+03  0.00000000000E+00 0. -1.
          3   -1    0    0  501    0  0.00000000000E+00 -0.00000000000E+00 -0.19014836150E+04  0.19014836150E+04  0.00000000000E+00 0.  1.
         23    2    1    2    0    0 -0.81474530209E+03  0.69864078015E+03  0.10405546387E+02  0.10771048278E+04  0.90209133448E+02 0.  0.
        254    2    1    2    0    0  0.81474530209E+03 -0.69864078015E+03 -0.10094708446E+04  0.17267971039E+04  0.90049320101E+03 0.  0.
        -24    2    4    4    0    0  0.73922518363E+03 -0.85620173902E+03 -0.61905577386E+03  0.12919002685E+04  0.78999763749E+02 0.  0.
         24    2    4    4    0    0  0.75520118455E+02  0.15756095887E+03 -0.39041507078E+03  0.43489683541E+03  0.78629421415E+02 0.  0.
         13    1    3    3    0    0 -0.47115240134E+03  0.45249141921E+03 -0.17899272028E+02  0.65349326981E+03  0.00000000000E+00 0.  1.
        -13    1    3    3    0    0 -0.34359290075E+03  0.24614936094E+03  0.28304818415E+02  0.42361155802E+03  0.00000000000E+00 0. -1.
          2    1    6    6  502    0  0.78637465613E+02  0.14737451681E+03 -0.29598626545E+03  0.33986904616E+03  0.00000000000E+00 0. -1.
          1    1    5    5  503    0  0.49238289909E+03 -0.61210801904E+03 -0.45651096807E+03  0.90858098718E+03  0.00000000000E+00 0. -1.
         -2    1    5    5    0  503  0.24684228454E+03 -0.24409371998E+03 -0.16254480579E+03  0.38331928136E+03  0.00000000000E+00 0.  1.
         -1    1    6    6    0  502 -0.31173471571E+01  0.10186442061E+02 -0.94428805325E+02  0.95027789252E+02  0.00000000000E+00 0.  1.
<mgrwt>
<rscale>  0 0.26198730E+04</rscale>
<asrwt>0</asrwt>
<pdfrwt beam="1">  1        3 0.29253594E+00 0.26198730E+04</pdfrwt>
<pdfrwt beam="2">  1       -3 0.13883359E+00 0.26198730E+04</pdfrwt>
<totfact> 0.38466419E-02</totfact>
</mgrwt>
</event>
<event>
12    1  0.1960998E-007  0.1724878E+04  0.7818608E-02  0.8747301E-01
          2   -1    0    0  501    0  0.00000000000E+00  0.00000000000E+00  0.22231940781E+04  0.22231940781E+04  0.00000000000E+00 0. -1.
         -2   -1    0    0    0  501 -0.00000000000E+00 -0.00000000000E+00 -0.33456432817E+03  0.33456432817E+03  0.00000000000E+00 0.  1.
         23    2    1    2    0    0  0.55282604840E+03 -0.23906861547E+03  0.94975752420E+03  0.11287528218E+04  0.96297119105E+02 0.  0.
        254    2    1    2    0    0 -0.55282604840E+03  0.23906861547E+03  0.93887222568E+03  0.14290055845E+04  0.89319956427E+03 0.  0.
        -24    2    4    4    0    0 -0.48223745031E+03  0.36467819110E+03  0.15746821818E+03  0.62991791539E+03  0.80356697533E+02 0.  0.
         24    2    4    4    0    0 -0.70588598089E+02 -0.12560957563E+03  0.78140400750E+03  0.79908766909E+03  0.84784221886E+02 0.  0.
         11    1    3    3    0    0  0.40432427440E+02  0.19244084583E+01  0.38279541828E+02  0.55711828718E+02  0.00000000000E+00 0.  1.
        -11    1    3    3    0    0  0.51239362096E+03 -0.24099302393E+03  0.91147798238E+03  0.10730409930E+04  0.00000000000E+00 0. -1.
          4    1    6    6  502    0 -0.72374573029E+02 -0.12766857581E+03  0.78250513652E+03  0.79614799677E+03  0.00000000000E+00 0. -1.
          1    1    5    5  503    0 -0.13641340779E+03  0.97098806868E+02  0.81078858524E+02  0.18603918248E+03  0.00000000000E+00 0. -1.
         -2    1    5    5    0  503 -0.34582404253E+03  0.26757938423E+03  0.76389359659E+02  0.44387873291E+03  0.00000000000E+00 0.  1.
         -3    1    6    6    0  502  0.17859749400E+01  0.20590001771E+01 -0.11011290252E+01  0.29396723195E+01  0.00000000000E+00 0.  1.
<mgrwt>
<rscale>  0 0.17248785E+04</rscale>
<asrwt>0</asrwt>
<pdfrwt beam="1">  1        2 0.34202985E+00 0.17248785E+04</pdfrwt>
<pdfrwt beam="2">  1       -2 0.51471437E-01 0.17248785E+04</pdfrwt>
<totfact> 0.16977871E+01</totfact>
</mgrwt>
</event>
<event>
12    1  0.1960998E-007  0.3278217E+04  0.7818608E-02  0.8168460E-01
          2   -1    0    0  501    0  0.00000000000E+00  0.00000000000E+00  0.17301821741E+04  0.17301821741E+04  0.00000000000E+00 0. -1.
         -2   -1    0    0    0  501 -0.00000000000E+00 -0.00000000000E+00 -0.15528286135E+04  0.15528286135E+04  0.00000000000E+00 0.  1.
         23    2    1    2    0    0  0.44664730372E+03 -0.13472377855E+04 -0.44599517553E+03  0.14905641820E+04  0.91249216522E+02 0.  0.
        254    2    1    2    0    0 -0.44664730372E+03  0.13472377855E+04  0.62334873610E+03  0.17924466056E+04  0.89986539136E+03 0.  0.
        -24    2    4    4    0    0  0.43320094398E+02  0.17757773596E+03  0.47218879324E+03  0.51288750145E+03  0.81736465493E+02 0.  0.
         24    2    4    4    0    0 -0.48996739812E+03  0.11696600495E+04  0.15115994286E+03  0.12795591042E+04  0.79053716018E+02 0.  0.
         11    1    3    3    0    0  0.31420074256E+03 -0.90630154544E+03 -0.34370228796E+03  0.10189385951E+04  0.00000000000E+00 0.  1.
        -11    1    3    3    0    0  0.13244656116E+03 -0.44093624005E+03 -0.10229288757E+03  0.47162558688E+03  0.00000000000E+00 0. -1.
          4    1    6    6  502    0 -0.46744199115E+02  0.87487795092E+02  0.31294195949E+02  0.10401183174E+03  0.00000000000E+00 0. -1.
          1    1    5    5  503    0 -0.19958892412E+02  0.62452441546E+02  0.11602590108E+03  0.13326918085E+03  0.00000000000E+00 0. -1.
         -2    1    5    5    0  503  0.63278986811E+02  0.11512529442E+03  0.35616289216E+03  0.37961832060E+03  0.00000000000E+00 0.  1.
         -3    1    6    6    0  502 -0.44322319900E+03  0.10821722544E+04  0.11986574691E+03  0.11755472724E+04  0.00000000000E+00 0.  1.
<mgrwt>
<rscale>  0 0.32782168E+04</rscale>
<asrwt>0</asrwt>
<pdfrwt beam="1">  1        2 0.26618187E+00 0.32782168E+04</pdfrwt>
<pdfrwt beam="2">  1       -2 0.23889671E+00 0.32782168E+04</pdfrwt>
<totfact> 0.59407786E-01</totfact>
</mgrwt>
</event>
<event>
12    1  0.1960998E-007  0.1161682E+04  0.7818608E-02  0.9147073E-01
          1   -1    0    0  501    0  0.00000000000E+00  0.00000000000E+00  0.26588181120E+04  0.26588181120E+04  0.00000000000E+00 0. -1.
         -1   -1    0    0    0  501 -0.00000000000E+00 -0.00000000000E+00 -0.12688961575E+03  0.12688961575E+03  0.00000000000E+00 0.  1.
         23    2    1    2    0    0 -0.15564779018E+03  0.10270878675E+03  0.24759254238E+03  0.32328437836E+03  0.91844394415E+02 0.  0.
        254    2    1    2    0    0  0.15564779018E+03 -0.10270878675E+03  0.22843359539E+04  0.24624233494E+04  0.90031254127E+03 0.  0.
        -24    2    4    4    0    0 -0.26004503023E+03 -0.25203702799E+03  0.16123010891E+04  0.16544200402E+04  0.80279425802E+02 0.  0.
         24    2    4    4    0    0  0.41569282041E+03  0.14932824124E+03  0.67203486475E+03  0.80800330918E+03  0.78352049330E+02 0.  0.
         11    1    3    3    0    0 -0.10784675764E+03  0.17283531439E+02  0.11673930296E+03  0.15986778427E+03  0.00000000000E+00 0.  1.
        -11    1    3    3    0    0 -0.47801032545E+02  0.85425255311E+02  0.13085323942E+03  0.16341659409E+03  0.00000000000E+00 0. -1.
          2    1    6    6  502    0  0.23005425949E+03  0.41758789201E+02  0.36335823559E+03  0.43208560050E+03  0.00000000000E+00 0. -1.
          1    1    5    5  503    0 -0.22321614275E+03 -0.17130313978E+03  0.12709406572E+04  0.13017143950E+04  0.00000000000E+00 0. -1.
         -2    1    5    5    0  503 -0.36828887481E+02 -0.80733888216E+02  0.34136043191E+03  0.35270564517E+03  0.00000000000E+00 0.  1.
         -1    1    6    6    0  502  0.18563856092E+03  0.10756945204E+03  0.30867662916E+03  0.37591770869E+03  0.00000000000E+00 0.  1.
<mgrwt>
<rscale>  0 0.11616822E+04</rscale>
<asrwt>0</asrwt>
<pdfrwt beam="1">  1        1 0.40904890E+00 0.11616822E+04</pdfrwt>
<pdfrwt beam="2">  1       -1 0.19521481E-01 0.11616822E+04</pdfrwt>
<totfact> 0.22386773E+01</totfact>
</mgrwt>
</event>
<event>
12    1  0.1960998E-007  0.2522685E+04  0.7818608E-02  0.8394948E-01
         -2   -1    0    0    0  501 -0.00000000000E+00  0.00000000000E+00  0.12454052221E+04  0.12454052221E+04  0.00000000000E+00 0.  1.
          2   -1    0    0  501    0  0.00000000000E+00 -0.00000000000E+00 -0.12774838380E+04  0.12774838380E+04  0.00000000000E+00 0. -1.
         23    2    1    2    0    0 -0.70429079006E+03  0.82282970086E+03  0.17048220339E+03  0.11001480324E+04  0.90483577864E+02 0.  0.
        254    2    1    2    0    0  0.70429079006E+03 -0.82282970086E+03 -0.20256081933E+03  0.14227410278E+04  0.90004828367E+03 0.  0.
        -24    2    4    4    0    0  0.82664224980E+03 -0.33909746702E+03 -0.19247966831E+03  0.91747121505E+03  0.79878072277E+02 0.  0.
         24    2    4    4    0    0 -0.12235145974E+03 -0.48373223385E+03 -0.10081151023E+02  0.50526981271E+03  0.78925282811E+02 0.  0.
         13    1    3    3    0    0 -0.51277964136E+03  0.56397607513E+03  0.15459000248E+03  0.77775963047E+03  0.00000000000E+00 0.  1.
        -13    1    3    3    0    0 -0.19151114870E+03  0.25885362573E+03  0.15892200903E+02  0.32238840190E+03  0.00000000000E+00 0. -1.
          4    1    6    6  502    0 -0.11438654570E+03 -0.45791416065E+03 -0.28056412620E+02  0.47281795931E+03  0.00000000000E+00 0. -1.
          1    1    5    5  503    0  0.58326151640E+03 -0.26818695236E+03 -0.16244019392E+03  0.66219714174E+03  0.00000000000E+00 0. -1.
         -2    1    5    5    0  503  0.24338073341E+03 -0.70910514660E+02 -0.30039474390E+02  0.25527407331E+03  0.00000000000E+00 0.  1.
         -3    1    6    6    0  502 -0.79649140436E+01 -0.25818073194E+02  0.17975261598E+02  0.32451853394E+02  0.00000000000E+00 0.  1.
<mgrwt>
<rscale>  0 0.25226851E+04</rscale>
<asrwt>0</asrwt>
<pdfrwt beam="1">  1        2 0.19653597E+00 0.25226851E+04</pdfrwt>
<pdfrwt beam="2">  1       -2 0.19160080E+00 0.25226851E+04</pdfrwt>
<totfact> 0.22940639E+00</totfact>
</mgrwt>
</event>
<event>
12    1  0.1960998E-007  0.1734166E+04  0.7818608E-02  0.8742114E-01
          2   -1    0    0  501    0  0.00000000000E+00  0.00000000000E+00  0.20981129644E+04  0.20981129644E+04  0.00000000000E+00 0. -1.
         -2   -1    0    0    0  501 -0.00000000000E+00 -0.00000000000E+00 -0.35833776595E+03  0.35833776595E+03  0.00000000000E+00 0.  1.
         23    2    1    2    0    0 -0.54825070662E+03  0.29051472162E+03  0.79694374286E+03  0.10144319096E+04  0.94737158390E+02 0.  0.
        254    2    1    2    0    0  0.54825070662E+03 -0.29051472162E+03  0.94283145562E+03  0.14420188208E+04  0.89750180218E+03 0.  0.
        -24    2    4    4    0    0  0.41251167961E+03 -0.88177190618E+02  0.10722003707E+04  0.11548736967E+04  0.78603547122E+02 0.  0.
         24    2    4    4    0    0  0.13573902701E+03 -0.20233753100E+03 -0.12936891504E+03  0.28714512411E+03  0.79689686979E+02 0.  0.
         11    1    3    3    0    0 -0.17975403452E+03  0.10169068046E+03  0.33986523966E+03  0.39769446632E+03  0.00000000000E+00 0. -1.
        -11    1    3    3    0    0 -0.36849667210E+03  0.18882404116E+03  0.45707850321E+03  0.61673744330E+03  0.00000000000E+00 0.  1.
          4    1    6    6  502    0  0.10905334462E+03 -0.18479855055E+03 -0.13664746345E+03  0.25439273874E+03  0.00000000000E+00 0. -1.
          3    1    5    5  503    0  0.25371154725E+03 -0.22442252341E+02  0.57765093891E+03  0.63131118406E+03  0.00000000000E+00 0. -1.
         -4    1    5    5    0  503  0.15880013236E+03 -0.65734938277E+02  0.49454943175E+03  0.52356251259E+03  0.00000000000E+00 0.  1.
         -3    1    6    6    0  502  0.26685682390E+02 -0.17538980455E+02  0.72785484052E+01  0.32752385362E+02  0.00000000000E+00 0.  1.
<mgrwt>
<rscale>  0 0.17341662E+04</rscale>
<asrwt>0</asrwt>
<pdfrwt beam="1">  1        2 0.32278660E+00 0.17341662E+04</pdfrwt>
<pdfrwt beam="2">  1       -2 0.55128888E-01 0.17341662E+04</pdfrwt>
<totfact> 0.17297790E+01</totfact>
</mgrwt>
</event>
<event>
12    1  0.1960998E-007  0.1229239E+04  0.7818608E-02  0.9087642E-01
          2   -1    0    0  501    0  0.00000000000E+00  0.00000000000E+00  0.36797324277E+03  0.36797324277E+03  0.00000000000E+00 0. -1.
         -2   -1    0    0    0  501 -0.00000000000E+00 -0.00000000000E+00 -0.10265881089E+04  0.10265881089E+04  0.00000000000E+00 0.  1.
         23    2    1    2    0    0 -0.14183140579E+03  0.35986815036E+02 -0.41770869769E+03  0.45222516474E+03  0.92821575976E+02 0.  0.
        254    2    1    2    0    0  0.14183140579E+03 -0.35986815036E+02 -0.24090616842E+03  0.94233618691E+03  0.89919436644E+03 0.  0.
        -24    2    4    4    0    0  0.24162308038E+03 -0.83089481097E+02 -0.54605967599E+03  0.60822874875E+03  0.80470281605E+02 0.  0.
         24    2    4    4    0    0 -0.99791674588E+02  0.47102666061E+02  0.30515350757E+03  0.33410743816E+03  0.79574352546E+02 0.  0.
         11    1    3    3    0    0 -0.98824836133E+02 -0.16122319526E+02 -0.30278266634E+03  0.31891005073E+03  0.00000000000E+00 0.  1.
        -11    1    3    3    0    0 -0.43006569657E+02  0.52109134562E+02 -0.11492603135E+03  0.13331511400E+03  0.00000000000E+00 0. -1.
          2    1    6    6  502    0 -0.64097966570E+02  0.70917934409E+01  0.24581097321E+03  0.25412964684E+03  0.00000000000E+00 0. -1.
          1    1    5    5  503    0  0.13985933123E+03 -0.26166267625E+02 -0.37610988406E+03  0.40212429793E+03  0.00000000000E+00 0. -1.
         -2    1    5    5    0  503  0.10176374914E+03 -0.56923213472E+02 -0.16994979193E+03  0.20610445082E+03  0.00000000000E+00 0.  1.
         -1    1    6    6    0  502 -0.35693708018E+02  0.40010872620E+02  0.59342534362E+02  0.79977791320E+02  0.00000000000E+00 0.  1.
<mgrwt>
<rscale>  0 0.12292387E+04</rscale>
<asrwt>0</asrwt>
<pdfrwt beam="1">  1        2 0.56611267E-01 0.12292387E+04</pdfrwt>
<pdfrwt beam="2">  1       -2 0.15793663E+00 0.12292387E+04</pdfrwt>
<totfact> 0.22424112E+01</totfact>
</mgrwt>
</event>
<event>
12    1  0.1960998E-007  0.1283765E+04  0.7818608E-02  0.9042540E-01
         -1   -1    0    0    0  501 -0.00000000000E+00  0.00000000000E+00  0.39763415699E+03  0.39763415699E+03  0.00000000000E+00 0.  1.
          1   -1    0    0  501    0  0.00000000000E+00 -0.00000000000E+00 -0.10361610677E+04  0.10361610677E+04  0.00000000000E+00 0. -1.
         23    2    1    2    0    0 -0.12193738813E+03  0.14263906793E+03  0.10136213163E+03  0.23306417759E+03  0.93968073423E+02 0.  0.
        254    2    1    2    0    0  0.12193738813E+03 -0.14263906793E+03 -0.73988904239E+03  0.12007310471E+04  0.92687896848E+03 0.  0.
        -24    2    4    4    0    0  0.48251809251E+03 -0.15221651742E+02 -0.18699635291E+03  0.52389729522E+03  0.80282822892E+02 0.  0.
         24    2    4    4    0    0 -0.36058070438E+03 -0.12741741619E+03 -0.55289268947E+03  0.67683375193E+03  0.78485408534E+02 0.  0.
         13    1    3    3    0    0 -0.29585110781E+01  0.58417715429E+02  0.58393405438E+01  0.58783332347E+02  0.00000000000E+00 0. -1.
        -13    1    3    3    0    0 -0.11897887705E+03  0.84221352501E+02  0.95522791085E+02  0.17428084524E+03  0.00000000000E+00 0.  1.
          2    1    6    6  502    0 -0.34923351132E+02 -0.51269270369E+01 -0.20347267083E+02  0.40742325816E+02  0.00000000000E+00 0. -1.
          1    1    5    5  503    0  0.11697365966E+03 -0.37473396003E+02 -0.55468882210E+02  0.13477347423E+03  0.00000000000E+00 0. -1.
         -2    1    5    5    0  503  0.36554443285E+03  0.22251744261E+02 -0.13152747070E+03  0.38912382099E+03  0.00000000000E+00 0.  1.
         -1    1    6    6    0  502 -0.32565735325E+03 -0.12229048915E+03 -0.53254542239E+03  0.63609142611E+03  0.00000000000E+00 0.  1.
<mgrwt>
<rscale>  0 0.12837648E+04</rscale>
<asrwt>0</asrwt>
<pdfrwt beam="1">  1        1 0.15940939E+00 0.12837648E+04</pdfrwt>
<pdfrwt beam="2">  1       -1 0.61174486E-01 0.12837648E+04</pdfrwt>
<totfact> 0.37811476E+01</totfact>
</mgrwt>
</event>
<event>
12    1  0.2560080E-007  0.2540797E+04  0.7818608E-02  0.8388594E-01
          2   -1    0    0  501    0  0.00000000000E+00  0.00000000000E+00  0.20703058265E+04  0.20703058265E+04  0.00000000000E+00 0. -1.
         -2   -1    0    0    0  501 -0.00000000000E+00 -0.00000000000E+00 -0.77955255058E+03  0.77955255058E+03  0.00000000000E+00 0.  1.
         23    2    1    2    0    0  0.77879956605E+03 -0.74834455150E+03  0.28694162478E+03  0.11213447606E+04  0.92359321055E+02 0.  0.
        254    2    1    2    0    0 -0.77879956605E+03  0.74834455150E+03  0.10038116511E+04  0.17285136165E+04  0.90198290429E+03 0.  0.
        -24    2    4    4    0    0 -0.35090722776E+03  0.88078277044E+03  0.65174704769E+03  0.11532506505E+04  0.79364207516E+02 0.  0.
         24    2    4    4    0    0 -0.42789233830E+03 -0.13243821893E+03  0.35206460345E+03  0.57526296604E+03  0.79663417494E+02 0.  0.
         11    1    3    3    0    0  0.37975516795E+03 -0.39524685285E+03  0.10342449453E+03  0.55779090019E+03  0.00000000000E+00 0. -1.
        -11    1    3    3    0    0  0.39904439811E+03 -0.35309769866E+03  0.18351713025E+03  0.56355386038E+03  0.00000000000E+00 0.  1.
          4    1    6    6  502    0 -0.28228051276E+02 -0.25566263108E+02  0.12617735710E+02  0.40120617425E+02  0.00000000000E+00 0. -1.
          3    1    5    5  503    0  0.30561870201E+01  0.75264989315E+01  0.11374367961E+02  0.13977292720E+02  0.00000000000E+00 0. -1.
         -4    1    5    5    0  503 -0.35396341478E+03  0.87325627150E+03  0.64037267972E+03  0.11392733577E+04  0.00000000000E+00 0.  1.
         -3    1    6    6    0  502 -0.39966428702E+03 -0.10687195583E+03  0.33944686774E+03  0.53514234861E+03  0.00000000000E+00 0.  1.
<mgrwt>
<rscale>  0 0.25407969E+04</rscale>
<asrwt>0</asrwt>
<pdfrwt beam="1">  1        2 0.31850859E+00 0.25407969E+04</pdfrwt>
<pdfrwt beam="2">  1       -2 0.11993116E+00 0.25407969E+04</pdfrwt>
<totfact> 0.28854644E+00</totfact>
</mgrwt>
</event>
<event>
12    1  0.1960998E-007  0.2122059E+04  0.7818608E-02  0.8551588E-01
         -2   -1    0    0    0  501 -0.00000000000E+00  0.00000000000E+00  0.83375761492E+03  0.83375761492E+03  0.00000000000E+00 0.  1.
          2   -1    0    0  501    0  0.00000000000E+00 -0.00000000000E+00 -0.13502532701E+04  0.13502532701E+04  0.00000000000E+00 0. -1.
         23    2    1    2    0    0 -0.69693485331E+03 -0.32610275734E+03 -0.62483332674E+03  0.99523327038E+03  0.89506302384E+02 0.  0.
        254    2    1    2    0    0  0.69693485331E+03  0.32610275734E+03  0.10833767156E+03  0.11887776146E+04  0.89966325249E+03 0.  0.
        -24    2    4    4    0    0  0.31859463501E+03 -0.10786296091E+03 -0.31526206827E+03  0.46952664859E+03  0.89040115996E+02 0.  0.
         24    2    4    4    0    0  0.37834021830E+03  0.43396571825E+03  0.42359973983E+03  0.71925096604E+03  0.80110218886E+02 0.  0.
         11    1    3    3    0    0 -0.47463306714E+03 -0.19602246219E+03 -0.46015448358E+03  0.68952411333E+03  0.00000000000E+00 0. -1.
        -11    1    3    3    0    0 -0.22230178617E+03 -0.13008029515E+03 -0.16467884316E+03  0.30570915705E+03  0.00000000000E+00 0.  1.
          2    1    6    6  502    0  0.11214585037E+03  0.18743279092E+03  0.15517923500E+03  0.26793345786E+03  0.00000000000E+00 0. -1.
          3    1    5    5  503    0  0.61442562651E+02 -0.32943047140E+02 -0.23756335465E+02  0.73653216730E+02  0.00000000000E+00 0. -1.
         -4    1    5    5    0  503  0.25715207236E+03 -0.74919913775E+02 -0.29150573280E+03  0.39587343186E+03  0.00000000000E+00 0.  1.
         -1    1    6    6    0  502  0.26619436793E+03  0.24653292733E+03  0.26842050484E+03  0.45131750819E+03  0.00000000000E+00 0.  1.
<mgrwt>
<rscale>  0 0.21220593E+04</rscale>
<asrwt>0</asrwt>
<pdfrwt beam="1">  1        2 0.20773127E+00 0.21220593E+04</pdfrwt>
<pdfrwt beam="2">  1       -2 0.12827040E+00 0.21220593E+04</pdfrwt>
<totfact> 0.63891573E+00</totfact>
</mgrwt>
</event>
<event>
12    1  0.1960998E-007  0.1274711E+04  0.7818608E-02  0.9049863E-01
          2   -1    0    0  501    0  0.00000000000E+00  0.00000000000E+00  0.27688997751E+04  0.27688997751E+04  0.00000000000E+00 0. -1.
         -2   -1    0    0    0  501 -0.00000000000E+00 -0.00000000000E+00 -0.14670889388E+03  0.14670889388E+03  0.00000000000E+00 0.  1.
         23    2    1    2    0    0 -0.24473965037E+03 -0.93796214028E+02  0.33205806562E+03  0.43283298734E+03  0.91578435011E+02 0.  0.
        254    2    1    2    0    0  0.24473965037E+03  0.93796214028E+02  0.22901328156E+04  0.24827756817E+04  0.92237278040E+03 0.  0.
        -24    2    4    4    0    0  0.17578260106E+03  0.22025919967E+03  0.13746444848E+03  0.32382855397E+03  0.80961842213E+02 0.  0.
         24    2    4    4    0    0  0.68957049314E+02 -0.12646298565E+03  0.21526683671E+04  0.21589471277E+04  0.79521317115E+02 0.  0.
         13    1    3    3    0    0 -0.16911225331E+03 -0.10407019907E+03  0.26566846434E+03  0.33167648922E+03  0.00000000000E+00 0.  1.
        -13    1    3    3    0    0 -0.75627397058E+02  0.10273985045E+02  0.66389601275E+02  0.10115649812E+03  0.00000000000E+00 0. -1.
          2    1    6    6  502    0  0.94720610921E+01 -0.60676405544E+02  0.47755587497E+03  0.48148827592E+03  0.00000000000E+00 0. -1.
          3    1    5    5  503    0  0.15475393347E+02 -0.44820119759E+01  0.17201840331E+01  0.16202939971E+02  0.00000000000E+00 0. -1.
         -4    1    5    5    0  503  0.16030720771E+03  0.22474121165E+03  0.13574426444E+03  0.30762561400E+03  0.00000000000E+00 0.  1.
         -1    1    6    6    0  502  0.59484988221E+02 -0.65786580103E+02  0.16751124922E+04  0.16774588518E+04  0.00000000000E+00 0.  1.
<mgrwt>
<rscale>  0 0.12747113E+04</rscale>
<asrwt>0</asrwt>
<pdfrwt beam="1">  1        2 0.42598454E+00 0.12747113E+04</pdfrwt>
<pdfrwt beam="2">  1       -2 0.22570601E-01 0.12747113E+04</pdfrwt>
<totfact> 0.41243445E+01</totfact>
</mgrwt>
</event>
<event>
12    1  0.1960998E-007  0.1594304E+04  0.7818608E-02  0.8824055E-01
         -1   -1    0    0    0  501 -0.00000000000E+00  0.00000000000E+00  0.83227820552E+03  0.83227820552E+03  0.00000000000E+00 0.  1.
          1   -1    0    0  501    0  0.00000000000E+00 -0.00000000000E+00 -0.76350795520E+03  0.76350795520E+03  0.00000000000E+00 0. -1.
         23    2    1    2    0    0  0.48075476211E+03 -0.24418832894E+03  0.51757209014E+02  0.54870841673E+03  0.87458771027E+02 0.  0.
        254    2    1    2    0    0 -0.48075476211E+03  0.24418832894E+03  0.17013041309E+02  0.10470777440E+04  0.89740140244E+03 0.  0.
        -24    2    4    4    0    0 -0.22434814323E+03  0.14001069482E+03 -0.43253784862E+03  0.51318064332E+03  0.79563170834E+02 0.  0.
         24    2    4    4    0    0 -0.25640661888E+03  0.10417763411E+03  0.44955088993E+03  0.53389710067E+03  0.79704314857E+02 0.  0.
         13    1    3    3    0    0  0.10184466994E+03 -0.25187743375E+02  0.35513865561E+02  0.11076097625E+03  0.00000000000E+00 0.  1.
        -13    1    3    3    0    0  0.37891009217E+03 -0.21900058556E+03  0.16243343453E+02  0.43794744049E+03  0.00000000000E+00 0. -1.
          2    1    6    6  502    0 -0.14538757285E+03  0.70905485679E+02  0.32931595720E+03  0.36689798842E+03  0.00000000000E+00 0. -1.
          3    1    5    5  503    0 -0.18718538540E+03  0.76802783246E+02 -0.30333482681E+03  0.36462179471E+03  0.00000000000E+00 0. -1.
         -4    1    5    5    0  503 -0.37162757832E+02  0.63207911578E+02 -0.12920302181E+03  0.14855884861E+03  0.00000000000E+00 0.  1.
         -1    1    6    6    0  502 -0.11101904603E+03  0.33272148434E+02  0.12023493273E+03  0.16699911225E+03  0.00000000000E+00 0.  1.
<mgrwt>
<rscale>  0 0.15943036E+04</rscale>
<asrwt>0</asrwt>
<pdfrwt beam="1">  1        1 0.11746276E+00 0.15943036E+04</pdfrwt>
<pdfrwt beam="2">  1       -1 0.12804280E+00 0.15943036E+04</pdfrwt>
<totfact> 0.12049776E+01</totfact>
</mgrwt>
</event>
<event>
12    1  0.1960998E-007  0.3199919E+04  0.7818608E-02  0.8188839E-01
         -1   -1    0    0    0  501 -0.00000000000E+00  0.00000000000E+00  0.12638906744E+04  0.12638906744E+04  0.00000000000E+00 0.  1.
          1   -1    0    0  501    0  0.00000000000E+00 -0.00000000000E+00 -0.20253885855E+04  0.20253885855E+04  0.00000000000E+00 0. -1.
         23    2    1    2    0    0  0.27907675409E+03  0.12296665804E+04 -0.11238064679E+04  0.16915734628E+04  0.92282551133E+02 0.  0.
        254    2    1    2    0    0 -0.27907675409E+03 -0.12296665804E+04  0.36230855675E+03  0.15977057971E+04  0.91182925493E+03 0.  0.
        -24    2    4    4    0    0  0.23910909332E+03 -0.30563256353E+03 -0.14283548979E+03  0.42123917816E+03  0.80349521918E+02 0.  0.
         24    2    4    4    0    0 -0.51818584742E+03 -0.92403401686E+03  0.50514404654E+03  0.11764666189E+04  0.80918236057E+02 0.  0.
         13    1    3    3    0    0  0.24942993040E+03  0.11791026567E+04 -0.10612682136E+04  0.16058606996E+04  0.00000000000E+00 0. -1.
        -13    1    3    3    0    0  0.29646823696E+02  0.50563923657E+02 -0.62538254284E+02  0.85712763226E+02  0.00000000000E+00 0.  1.
          2    1    6    6  502    0 -0.42868509693E+03 -0.70792075412E+03  0.37256946180E+03  0.90759611629E+03  0.00000000000E+00 0. -1.
          3    1    5    5  503    0  0.18565450415E+03 -0.22792994930E+03 -0.70307728469E+02  0.30226285478E+03  0.00000000000E+00 0. -1.
         -4    1    5    5    0  503  0.53454589173E+02 -0.77702614232E+02 -0.72527761320E+02  0.11897632338E+03  0.00000000000E+00 0.  1.
         -1    1    6    6    0  502 -0.89500750482E+02 -0.21611326274E+03  0.13257458473E+03  0.26887050264E+03  0.00000000000E+00 0.  1.
<mgrwt>
<rscale>  0 0.31999186E+04</rscale>
<asrwt>0</asrwt>
<pdfrwt beam="1">  1        1 0.31159824E+00 0.31999186E+04</pdfrwt>
<pdfrwt beam="2">  1       -1 0.19444472E+00 0.31999186E+04</pdfrwt>
<totfact> 0.39413621E-01</totfact>
</mgrwt>
</event>
<event>
12    1  0.1960998E-007  0.3912006E+04  0.7818608E-02  0.8022537E-01
         -1   -1    0    0    0  501 -0.00000000000E+00  0.00000000000E+00  0.39905659637E+04  0.39905659637E+04  0.00000000000E+00 0.  1.
          1   -1    0    0  501    0  0.00000000000E+00 -0.00000000000E+00 -0.95874822025E+03  0.95874822025E+03  0.00000000000E+00 0. -1.
         23    2    1    2    0    0  0.63674508945E+03 -0.15390600341E+04  0.24599257736E+04  0.29721541008E+04  0.91187113829E+02 0.  0.
        254    2    1    2    0    0 -0.63674508945E+03  0.15390600341E+04  0.57189196987E+03  0.19771600832E+04  0.89886120831E+03 0.  0.
        -24    2    4    4    0    0  0.14244935509E+03  0.51951209632E+03 -0.53868627020E+02  0.54738189539E+03  0.80873193511E+02 0.  0.
         24    2    4    4    0    0 -0.77919444455E+03  0.10195479378E+04  0.62576059689E+03  0.14297781878E+04  0.77893272012E+02 0.  0.
         11    1    3    3    0    0  0.15401663761E+03 -0.32997225124E+03  0.47867040983E+03  0.60143841953E+03  0.00000000000E+00 0. -1.
        -11    1    3    3    0    0  0.48272845184E+03 -0.12090877829E+04  0.19812553637E+04  0.23707156812E+04  0.00000000000E+00 0.  1.
          2    1    6    6  502    0 -0.39659216847E+03  0.55306063048E+03  0.29507468353E+03  0.74177522063E+03  0.00000000000E+00 0. -1.
          1    1    5    5  503    0  0.91973024086E+02  0.20500134626E+03 -0.23029708036E+01  0.22469956120E+03  0.00000000000E+00 0. -1.
         -2    1    5    5    0  503  0.50476331008E+02  0.31451075006E+03 -0.51565656217E+02  0.32268233419E+03  0.00000000000E+00 0.  1.
         -1    1    6    6    0  502 -0.38260227608E+03  0.46648730729E+03  0.33068591336E+03  0.68800296716E+03  0.00000000000E+00 0.  1.
<mgrwt>
<rscale>  0 0.39120061E+04</rscale>
<asrwt>0</asrwt>
<pdfrwt beam="1">  1        1 0.14749973E+00 0.39120061E+04</pdfrwt>
<pdfrwt beam="2">  1       -1 0.61393322E+00 0.39120061E+04</pdfrwt>
<totfact> 0.50073096E-03</totfact>
</mgrwt>
</event>
<event>
12    1  0.1960998E-007  0.2545934E+04  0.7818608E-02  0.8386802E-01
          3   -1    0    0  501    0  0.00000000000E+00  0.00000000000E+00  0.93027261720E+03  0.93027261720E+03  0.00000000000E+00 0. -1.
         -3   -1    0    0    0  501 -0.00000000000E+00 -0.00000000000E+00 -0.17419028483E+04  0.17419028483E+04  0.00000000000E+00 0.  1.
         23    2    1    2    0    0 -0.10564546803E+04  0.17153262684E+03 -0.67425538445E+03  0.12681816651E+04  0.90246764619E+02 0.  0.
        254    2    1    2    0    0  0.10564546803E+04 -0.17153262684E+03 -0.13737484662E+03  0.14039938004E+04  0.89822425346E+03 0.  0.
        -24    2    4    4    0    0  0.14186590419E+03  0.27227763044E+03 -0.21197137742E+03  0.38158475889E+03  0.80087580576E+02 0.  0.
         24    2    4    4    0    0  0.91458877611E+03 -0.44381025728E+03  0.74596530803E+02  0.10224090415E+04  0.79469691757E+02 0.  0.
         11    1    3    3    0    0 -0.36150194546E+03  0.16113578631E+02 -0.23566964892E+03  0.43183733906E+03  0.00000000000E+00 0.  1.
        -11    1    3    3    0    0 -0.69495273484E+03  0.15541904821E+03 -0.43858573553E+03  0.83634432599E+03  0.00000000000E+00 0. -1.
          2    1    6    6  502    0  0.68788399805E+03 -0.30047954877E+03  0.36849272522E+02  0.75155187638E+03  0.00000000000E+00 0. -1.
          3    1    5    5  503    0  0.94357734805E+02  0.22328387085E+03 -0.13047190643E+03  0.27528528378E+03  0.00000000000E+00 0. -1.
         -4    1    5    5    0  503  0.47508169387E+02  0.48993759596E+02 -0.81499470990E+02  0.10629947511E+03  0.00000000000E+00 0.  1.
         -1    1    6    6    0  502  0.22670477806E+03 -0.14333070852E+03  0.37747258282E+02  0.27085716514E+03  0.00000000000E+00 0.  1.
<mgrwt>
<rscale>  0 0.25459336E+04</rscale>
<asrwt>0</asrwt>
<pdfrwt beam="1">  1        3 0.14311887E+00 0.25459336E+04</pdfrwt>
<pdfrwt beam="2">  1       -3 0.26798505E+00 0.25459336E+04</pdfrwt>
<totfact> 0.48662775E-02</totfact>
</mgrwt>
</event>
<event>
12    1  0.1960998E-007  0.2468387E+04  0.7818608E-02  0.8414335E-01
          1   -1    0    0  501    0  0.00000000000E+00  0.00000000000E+00  0.21418583291E+04  0.21418583291E+04  0.00000000000E+00 0. -1.
         -1   -1    0    0    0  501 -0.00000000000E+00 -0.00000000000E+00 -0.71117409504E+03  0.71117409504E+03  0.00000000000E+00 0.  1.
         23    2    1    2    0    0  0.38341352416E+03  0.99465852224E+03  0.55123884354E+03  0.12034750788E+04  0.90202528870E+02 0.  0.
        254    2    1    2    0    0 -0.38341352416E+03 -0.99465852224E+03  0.87944539055E+03  0.16495573454E+04  0.90070180104E+03 0.  0.
        -24    2    4    4    0    0 -0.22292903955E+02 -0.19472117250E+03 -0.17624767697E+03  0.27424823538E+03  0.75733363757E+02 0.  0.
         24    2    4    4    0    0 -0.36112062021E+03 -0.79993734974E+03  0.10556930675E+04  0.13753091100E+04  0.81727776247E+02 0.  0.
         13    1    3    3    0    0  0.53788860302E+02  0.18224036387E+03  0.13403406150E+03  0.23252939891E+03  0.00000000000E+00 0. -1.
        -13    1    3    3    0    0  0.32962466386E+03  0.81241815837E+03  0.41720478203E+03  0.97094567986E+03  0.00000000000E+00 0.  1.
          4    1    6    6  502    0 -0.10681786357E+03 -0.24737028322E+03  0.26735651812E+03  0.37958084881E+03  0.00000000000E+00 0. -1.
          3    1    5    5  503    0 -0.32734199455E+02 -0.44065964739E+02 -0.24341926192E+02  0.60048867042E+02  0.00000000000E+00 0. -1.
         -4    1    5    5    0  503  0.10441295501E+02 -0.15065520776E+03 -0.15190575078E+03  0.21419936834E+03  0.00000000000E+00 0.  1.
         -3    1    6    6    0  502 -0.25430275663E+03 -0.55256706652E+03  0.78833654941E+03  0.99572826121E+03  0.00000000000E+00 0.  1.
<mgrwt>
<rscale>  0 0.24683875E+04</rscale>
<asrwt>0</asrwt>
<pdfrwt beam="1">  1        1 0.32951666E+00 0.24683875E+04</pdfrwt>
<pdfrwt beam="2">  1       -1 0.10941140E+00 0.24683875E+04</pdfrwt>
<totfact> 0.16429525E+00</totfact>
</mgrwt>
</event>
<event>
12    1  0.2132512E-007  0.2678002E+04  0.7818608E-02  0.8342178E-01
         -2   -1    0    0    0  501 -0.00000000000E+00  0.00000000000E+00  0.15758275132E+04  0.15758275132E+04  0.00000000000E+00 0.  1.
          2   -1    0    0  501    0  0.00000000000E+00 -0.00000000000E+00 -0.11377667306E+04  0.11377667306E+04  0.00000000000E+00 0. -1.
         23    2    1    2    0    0  0.55005038660E+03  0.10117269181E+04 -0.92171614956E+02  0.11588248402E+04  0.90733780604E+02 0.  0.
        254    2    1    2    0    0 -0.55005038660E+03 -0.10117269181E+04  0.53023239754E+03  0.15547694036E+04  0.90000817686E+03 0.  0.
        -24    2    4    4    0    0 -0.12094123194E+03 -0.96700566915E+03  0.18174884471E+03  0.99442328149E+03  0.78219399440E+02 0.  0.
         24    2    4    4    0    0 -0.42910915466E+03 -0.44721248996E+02  0.34848355283E+03  0.56034612216E+03  0.80077046043E+02 0.  0.
         13    1    3    3    0    0  0.26073975828E+03  0.43286912932E+03 -0.79670319376E+02  0.51157430003E+03  0.00000000000E+00 0. -1.
        -13    1    3    3    0    0  0.28931062833E+03  0.57885778883E+03 -0.12501295580E+02  0.64725054016E+03  0.00000000000E+00 0.  1.
          4    1    6    6  502    0  0.11107965297E+00 -0.88177939830E+00  0.15024926578E+02  0.15051189065E+02  0.00000000000E+00 0. -1.
          1    1    5    5  503    0  0.22313333179E+01 -0.13275998177E+03  0.53790382134E+01  0.13288764299E+03  0.00000000000E+00 0. -1.
         -2    1    5    5    0  503 -0.12317256526E+03 -0.83424568738E+03  0.17636980650E+03  0.86153563849E+03  0.00000000000E+00 0.  1.
         -3    1    6    6    0  502 -0.42922023432E+03 -0.43839469598E+02  0.33345862625E+03  0.54529493310E+03  0.00000000000E+00 0.  1.
<mgrwt>
<rscale>  0 0.26780023E+04</rscale>
<asrwt>0</asrwt>
<pdfrwt beam="1">  1        2 0.17504104E+00 0.26780023E+04</pdfrwt>
<pdfrwt beam="2">  1       -2 0.24243500E+00 0.26780023E+04</pdfrwt>
<totfact> 0.12986944E+00</totfact>
</mgrwt>
</event>
<event>
12    1  0.1960998E-007  0.3009464E+04  0.7818608E-02  0.8241034E-01
         -2   -1    0    0    0  501 -0.00000000000E+00  0.00000000000E+00  0.84186861048E+03  0.84186861048E+03  0.00000000000E+00 0.  1.
          2   -1    0    0  501    0  0.00000000000E+00 -0.00000000000E+00 -0.26895142728E+04  0.26895142728E+04  0.00000000000E+00 0. -1.
         23    2    1    2    0    0  0.15188237899E+02 -0.12681636263E+04 -0.14461278108E+04  0.19256149134E+04  0.90760584959E+02 0.  0.
        254    2    1    2    0    0 -0.15188237899E+02  0.12681636263E+04 -0.40151785156E+03  0.16057679700E+04  0.89933560068E+03 0.  0.
        -24    2    4    4    0    0 -0.19785299576E+02  0.61459401548E+03 -0.65334748534E+03  0.90105504231E+03  0.83186481638E+02 0.  0.
         24    2    4    4    0    0  0.45970616766E+01  0.65356961079E+03  0.25182963378E+03  0.70471292765E+03  0.77638758520E+02 0.  0.
         11    1    3    3    0    0  0.41876153908E+01 -0.11521861274E+04 -0.13478206923E+04  0.17731810474E+04  0.00000000000E+00 0. -1.
        -11    1    3    3    0    0  0.11000622508E+02 -0.11597749883E+03 -0.98307118504E+02  0.15243386592E+03  0.00000000000E+00 0.  1.
          2    1    6    6  502    0  0.54658475763E+01  0.11455355115E+03  0.13914974202E+02  0.11552496734E+03  0.00000000000E+00 0. -1.
          1    1    5    5  503    0  0.28768107660E+02  0.31681874738E+03 -0.35644332278E+03  0.47775889846E+03  0.00000000000E+00 0. -1.
         -2    1    5    5    0  503 -0.48553407235E+02  0.29777526810E+03 -0.29690416256E+03  0.42329614384E+03  0.00000000000E+00 0.  1.
         -1    1    6    6    0  502 -0.86878589965E+00  0.53901605964E+03  0.23791465958E+03  0.58918796031E+03  0.00000000000E+00 0.  1.
<mgrwt>
<rscale>  0 0.30094635E+04</rscale>
<asrwt>0</asrwt>
<pdfrwt beam="1">  1        2 0.41377143E+00 0.30094635E+04</pdfrwt>
<pdfrwt beam="2">  1       -2 0.12951825E+00 0.30094635E+04</pdfrwt>
<totfact> 0.10098525E+00</totfact>
</mgrwt>
</event>
<event>
12    1  0.1960998E-007  0.2546531E+04  0.7818608E-02  0.8386594E-01
         -1   -1    0    0    0  501 -0.00000000000E+00  0.00000000000E+00  0.10884751508E+04  0.10884751508E+04  0.00000000000E+00 0.  1.
          1   -1    0    0  501    0  0.00000000000E+00 -0.00000000000E+00 -0.14894278335E+04  0.14894278335E+04  0.00000000000E+00 0. -1.
         23    2    1    2    0    0 -0.15522749665E+03  0.97655705762E+03  0.33952529676E+03  0.10493760697E+04  0.90296434589E+02 0.  0.
        254    2    1    2    0    0  0.15522749665E+03 -0.97655705762E+03 -0.74047797947E+03  0.15285269145E+04  0.90018199700E+03 0.  0.
        -24    2    4    4    0    0  0.33702434037E+03 -0.45428477147E+03  0.35909518564E+02  0.57214776269E+03  0.78124959104E+02 0.  0.
         24    2    4    4    0    0 -0.18179684372E+03 -0.52227228615E+03 -0.77638749803E+03  0.95637915180E+03  0.77878762391E+02 0.  0.
         11    1    3    3    0    0 -0.42379399066E+02  0.28313678207E+03  0.14212187745E+03  0.31962646773E+03  0.00000000000E+00 0.  1.
        -11    1    3    3    0    0 -0.11284809759E+03  0.69342027555E+03  0.19740341931E+03  0.72974960201E+03  0.00000000000E+00 0. -1.
          4    1    6    6  502    0 -0.16571080448E+03 -0.37102477968E+03 -0.56170804448E+03  0.69327872107E+03  0.00000000000E+00 0. -1.
          3    1    5    5  503    0  0.30126874430E+03 -0.43808558056E+03  0.35970552328E+02  0.53289371626E+03  0.00000000000E+00 0. -1.
         -4    1    5    5    0  503  0.35755596066E+02 -0.16199190905E+02 -0.61033763467E-01  0.39254046431E+02  0.00000000000E+00 0.  1.
         -3    1    6    6    0  502 -0.16086039236E+02 -0.15124750647E+03 -0.21467945355E+03  0.26310043073E+03  0.00000000000E+00 0.  1.
<mgrwt>
<rscale>  0 0.25465311E+04</rscale>
<asrwt>0</asrwt>
<pdfrwt beam="1">  1        1 0.22914274E+00 0.25465311E+04</pdfrwt>
<pdfrwt beam="2">  1       -1 0.16745772E+00 0.25465311E+04</pdfrwt>
<totfact> 0.15126505E+00</totfact>
</mgrwt>
</event>
<event>
12    1  0.1960998E-007  0.1957775E+04  0.7818608E-02  0.8626621E-01
          1   -1    0    0  501    0  0.00000000000E+00  0.00000000000E+00  0.59476162678E+03  0.59476162678E+03  0.00000000000E+00 0. -1.
         -1   -1    0    0    0  501 -0.00000000000E+00 -0.00000000000E+00 -0.16111010655E+04  0.16111010655E+04  0.00000000000E+00 0.  1.
         23    2    1    2    0    0 -0.49863252023E+03  0.35244168857E+03 -0.92800618000E+03  0.11148195728E+04  0.93689250944E+02 0.  0.
        254    2    1    2    0    0  0.49863252023E+03 -0.35244168857E+03 -0.88333258764E+02  0.10910431195E+04  0.89984598123E+03 0.  0.
        -24    2    4    4    0    0  0.64178120677E+03 -0.14267197999E+03 -0.32300913232E+03  0.73642799185E+03  0.75847718373E+02 0.  0.
         24    2    4    4    0    0 -0.14314868654E+03 -0.20976970859E+03  0.23467587356E+03  0.35461512765E+03  0.78639977298E+02 0.  0.
         13    1    3    3    0    0 -0.39402331941E+03  0.29829649322E+03 -0.80433990253E+03  0.94403276050E+03  0.00000000000E+00 0.  1.
        -13    1    3    3    0    0 -0.10460920082E+03  0.54145195350E+02 -0.12366627747E+03  0.17078681231E+03  0.00000000000E+00 0. -1.
          2    1    6    6  502    0 -0.53070041975E+02 -0.13677788836E+03  0.10349966561E+03  0.17954609681E+03  0.00000000000E+00 0. -1.
          3    1    5    5  503    0  0.30062006214E+03 -0.28132187137E+02 -0.14765997243E+03  0.33610609809E+03  0.00000000000E+00 0. -1.
         -4    1    5    5    0  503  0.34116114464E+03 -0.11453979285E+03 -0.17534915989E+03  0.40032189377E+03  0.00000000000E+00 0.  1.
         -1    1    6    6    0  502 -0.90078644567E+02 -0.72991820225E+02  0.13117620794E+03  0.17506903083E+03  0.00000000000E+00 0.  1.
<mgrwt>
<rscale>  0 0.19577754E+04</rscale>
<asrwt>0</asrwt>
<pdfrwt beam="1">  1        1 0.91501790E-01 0.19577754E+04</pdfrwt>
<pdfrwt beam="2">  1       -1 0.24786170E+00 0.19577754E+04</pdfrwt>
<totfact> 0.23251080E+00</totfact>
</mgrwt>
</event>
<event>
12    1  0.1960998E-007  0.3470376E+04  0.7818608E-02  0.8120846E-01
         -2   -1    0    0    0  501 -0.00000000000E+00  0.00000000000E+00  0.34389937971E+04  0.34389937971E+04  0.00000000000E+00 0.  1.
          2   -1    0    0  501    0  0.00000000000E+00 -0.00000000000E+00 -0.87551122713E+03  0.87551122713E+03  0.00000000000E+00 0. -1.
         23    2    1    2    0    0 -0.10626533576E+04  0.93949308765E+03  0.23105683570E+03  0.14403864880E+04  0.97193380793E+02 0.  0.
        254    2    1    2    0    0  0.10626533576E+04 -0.93949308765E+03  0.23324257343E+04  0.28741185362E+04  0.89914856078E+03 0.  0.
        -24    2    4    4    0    0  0.16854933136E+02  0.56904317908E+02 -0.30901612341E+02  0.10321968873E+03  0.78595192778E+02 0.  0.
         24    2    4    4    0    0  0.10457984245E+04 -0.99639740556E+03  0.23633273466E+04  0.27708988475E+04  0.77859755693E+02 0.  0.
         11    1    3    3    0    0 -0.20178366888E+03  0.23172734317E+03  0.49251325694E+02  0.31119110476E+03  0.00000000000E+00 0. -1.
        -11    1    3    3    0    0 -0.86086968871E+03  0.70776574449E+03  0.18180551000E+03  0.11291953832E+04  0.00000000000E+00 0.  1.
          4    1    6    6  502    0  0.27347253228E+02 -0.11850422008E+02  0.56074694905E+02  0.63503355578E+02  0.00000000000E+00 0. -1.
          3    1    5    5  503    0  0.26682632293E+02 -0.80540637818E+01  0.50545399280E+01  0.28326298441E+02  0.00000000000E+00 0. -1.
         -4    1    5    5    0  503 -0.98276991563E+01  0.64958381690E+02 -0.35956152269E+02  0.74893390285E+02  0.00000000000E+00 0.  1.
         -3    1    6    6    0  502  0.10184511712E+04 -0.98454698355E+03  0.23072526517E+04  0.27073954919E+04  0.00000000000E+00 0.  1.
<mgrwt>
<rscale>  0 0.34703762E+04</rscale>
<asrwt>0</asrwt>
<pdfrwt beam="1">  1        2 0.13469404E+00 0.34703762E+04</pdfrwt>
<pdfrwt beam="2">  1       -2 0.52907596E+00 0.34703762E+04</pdfrwt>
<totfact> 0.27733222E-02</totfact>
</mgrwt>
</event>
<event>
12    1  0.1960998E-007  0.1778686E+04  0.7818608E-02  0.8717717E-01
         -2   -1    0    0    0  501 -0.00000000000E+00  0.00000000000E+00  0.88120354285E+03  0.88120354285E+03  0.00000000000E+00 0.  1.
          2   -1    0    0  501    0  0.00000000000E+00 -0.00000000000E+00 -0.89755717591E+03  0.89755717591E+03  0.00000000000E+00 0. -1.
         23    2    1    2    0    0 -0.20559115998E+03  0.32564696980E+03 -0.54585598102E+03  0.67412953042E+03  0.90433388541E+02 0.  0.
        254    2    1    2    0    0  0.20559115998E+03 -0.32564696980E+03  0.52950234796E+03  0.11046311883E+04  0.88967614993E+03 0.  0.
        -24    2    4    4    0    0  0.48602978578E+03  0.34592532876E+02  0.18585451758E+03  0.52742836464E+03  0.78849109813E+02 0.  0.
         24    2    4    4    0    0 -0.28043862581E+03 -0.36023950267E+03  0.34364783038E+03  0.57720282370E+03  0.81553333667E+02 0.  0.
         13    1    3    3    0    0 -0.21347514154E+03  0.29739910507E+03 -0.51047419189E+03  0.62817335532E+03  0.00000000000E+00 0. -1.
        -13    1    3    3    0    0  0.78839815655E+01  0.28247864727E+02 -0.35381789137E+02  0.45956175096E+02  0.00000000000E+00 0.  1.
          2    1    6    6  502    0 -0.18253122478E+02 -0.53814217141E+02  0.68479118445E+02  0.88986156843E+02  0.00000000000E+00 0. -1.
          3    1    5    5  503    0  0.13645189141E+03  0.44789950115E+02  0.46423829806E+02  0.15093187296E+03  0.00000000000E+00 0. -1.
         -2    1    5    5    0  503  0.34957789437E+03 -0.10197417239E+02  0.13943068777E+03  0.37649649167E+03  0.00000000000E+00 0.  1.
         -1    1    6    6    0  502 -0.26218550333E+03 -0.30642528553E+03  0.27516871194E+03  0.48821666686E+03  0.00000000000E+00 0.  1.
<mgrwt>
<rscale>  0 0.17786855E+04</rscale>
<asrwt>0</asrwt>
<pdfrwt beam="1">  1        2 0.13808572E+00 0.17786855E+04</pdfrwt>
<pdfrwt beam="2">  1       -2 0.13556978E+00 0.17786855E+04</pdfrwt>
<totfact> 0.10861872E+01</totfact>
</mgrwt>
</event>
<event>
12    1  0.1960998E-007  0.3951975E+04  0.7818608E-02  0.8014305E-01
          2   -1    0    0  501    0  0.00000000000E+00  0.00000000000E+00  0.22599990743E+04  0.22599990743E+04  0.00000000000E+00 0.  1.
         -2   -1    0    0    0  501 -0.00000000000E+00 -0.00000000000E+00 -0.17276672577E+04  0.17276672577E+04  0.00000000000E+00 0. -1.
         23    2    1    2    0    0  0.18647982460E+04  0.25041062085E+02  0.39961810219E+03  0.19093936397E+04  0.89386189025E+02 0.  0.
        254    2    1    2    0    0 -0.18647982460E+04 -0.25041062085E+02  0.13271371442E+03  0.20782726922E+04  0.90747170760E+03 0.  0.
        -24    2    4    4    0    0 -0.50172257179E+03  0.24097784249E+03  0.36154038695E+03  0.66820353795E+03  0.77386414269E+02 0.  0.
         24    2    4    4    0    0 -0.13630756742E+04 -0.26601890457E+03 -0.22882667253E+03  0.14100691543E+04  0.84805792894E+02 0.  0.
         11    1    3    3    0    0  0.15816630947E+04  0.46001892499E+02  0.31781086994E+03  0.16139324856E+04  0.00000000000E+00 0.  1.
        -11    1    3    3    0    0  0.28313515134E+03 -0.20960830414E+02  0.81807232255E+02  0.29546115411E+03  0.00000000000E+00 0. -1.
          4    1    6    6  502    0 -0.50914568636E+02 -0.68103982051E+01  0.72471165885E+01  0.51876733917E+02  0.00000000000E+00 0. -1.
          3    1    5    5  503    0 -0.15425203349E+03  0.99284049704E+02  0.15317454314E+03  0.23898421083E+03  0.00000000000E+00 0. -1.
         -4    1    5    5    0  503 -0.34747053830E+03  0.14169379279E+03  0.20836584381E+03  0.42921932711E+03  0.00000000000E+00 0.  1.
         -3    1    6    6    0  502 -0.13121611056E+04 -0.25920850637E+03 -0.23607378912E+03  0.13581924203E+04  0.00000000000E+00 0.  1.
<mgrwt>
<rscale>  0 0.39519749E+04</rscale>
<asrwt>0</asrwt>
<pdfrwt beam="1">  1        2 0.34769216E+00 0.39519749E+04</pdfrwt>
<pdfrwt beam="2">  1       -2 0.26579496E+00 0.39519749E+04</pdfrwt>
<totfact> 0.19452849E-01</totfact>
</mgrwt>
</event>
<event>
12    1  0.1960998E-007  0.1021498E+04  0.7818608E-02  0.9285275E-01
          2   -1    0    0  501    0  0.00000000000E+00  0.00000000000E+00  0.20118353982E+04  0.20118353982E+04  0.00000000000E+00 0. -1.
         -2   -1    0    0    0  501 -0.00000000000E+00 -0.00000000000E+00 -0.12966507354E+03  0.12966507354E+03  0.00000000000E+00 0.  1.
         23    2    1    2    0    0 -0.36563793216E+02 -0.50359431998E+02  0.30623463697E+03  0.32585391173E+03  0.92347904896E+02 0.  0.
        254    2    1    2    0    0  0.36563793216E+02  0.50359431998E+02  0.15759356877E+04  0.18156465600E+04  0.89951439998E+03 0.  0.
        -24    2    4    4    0    0  0.95166180360E+02 -0.19711945619E+03  0.15258921579E+04  0.15435304440E+04  0.78909265912E+02 0.  0.
         24    2    4    4    0    0 -0.58602387144E+02  0.24747888819E+03  0.50043529785E+02  0.27211611596E+03  0.82841932701E+02 0.  0.
         11    1    3    3    0    0 -0.65929203189E+01 -0.48575287737E+02  0.28474009350E+03  0.28892896362E+03  0.00000000000E+00 0. -1.
        -11    1    3    3    0    0 -0.29970872897E+02 -0.17841442611E+01  0.21494543479E+02  0.36924948102E+02  0.00000000000E+00 0.  1.
          2    1    6    6  502    0 -0.27957555699E+02  0.19669638171E+03  0.68254566297E+02  0.21007088642E+03  0.00000000000E+00 0. -1.
          1    1    5    5  503    0  0.75981418878E+02 -0.18289998283E+03  0.11539802023E+04  0.11708526325E+04  0.00000000000E+00 0. -1.
         -2    1    5    5    0  503  0.19184761482E+02 -0.14219473363E+02  0.37191195564E+03  0.37267781158E+03  0.00000000000E+00 0.  1.
         -1    1    6    6    0  502 -0.30644831445E+02  0.50782506480E+02 -0.18211036512E+02  0.62045229547E+02  0.00000000000E+00 0.  1.
<mgrwt>
<rscale>  0 0.10214985E+04</rscale>
<asrwt>0</asrwt>
<pdfrwt beam="1">  1        2 0.30951311E+00 0.10214985E+04</pdfrwt>
<pdfrwt beam="2">  1       -2 0.19948474E-01 0.10214985E+04</pdfrwt>
<totfact> 0.14139727E+02</totfact>
</mgrwt>
</event>
<event>
12    1  0.1960998E-007  0.2140439E+04  0.7818608E-02  0.8543636E-01
         -2   -1    0    0    0  501 -0.00000000000E+00  0.00000000000E+00  0.49145306332E+03  0.49145306332E+03  0.00000000000E+00 0.  1.
          2   -1    0    0  501    0  0.00000000000E+00 -0.00000000000E+00 -0.23305784593E+04  0.23305784593E+04  0.00000000000E+00 0. -1.
         23    2    1    2    0    0  0.49541788026E+03  0.46701593641E+03 -0.27316778398E+02  0.68733594699E+03  0.90231572646E+02 0.  0.
        254    2    1    2    0    0 -0.49541788026E+03 -0.46701593641E+03 -0.18118086176E+04  0.21346955756E+04  0.90040655979E+03 0.  0.
        -24    2    4    4    0    0  0.81821120243E+01 -0.32364500988E+03 -0.14622903432E+04  0.14998721364E+04  0.80686668013E+02 0.  0.
         24    2    4    4    0    0 -0.50359999228E+03 -0.14337092654E+03 -0.34951827439E+03  0.63482343922E+03  0.81667619318E+02 0.  0.
         11    1    3    3    0    0  0.20629995194E+02  0.28382873189E+02 -0.21041305126E+02  0.40913576153E+02  0.00000000000E+00 0. -1.
        -11    1    3    3    0    0  0.47478788506E+03  0.43863306322E+03 -0.62754732713E+01  0.64642237084E+03  0.00000000000E+00 0.  1.
          2    1    6    6  502    0 -0.54224547036E+02 -0.19446368909E+02 -0.72404410748E+02  0.92524923457E+02  0.00000000000E+00 0. -1.
          1    1    5    5  503    0 -0.20899731747E+02 -0.68391947027E+02 -0.44126123548E+03  0.44701871900E+03  0.00000000000E+00 0. -1.
         -2    1    5    5    0  503  0.29081843771E+02 -0.25525306285E+03 -0.10210291077E+04  0.10528534174E+04  0.00000000000E+00 0.  1.
         -1    1    6    6    0  502 -0.44937544524E+03 -0.12392455763E+03 -0.27711386364E+03  0.54229851576E+03  0.00000000000E+00 0.  1.
<mgrwt>
<rscale>  0 0.21404391E+04</rscale>
<asrwt>0</asrwt>
<pdfrwt beam="1">  1        2 0.35855053E+00 0.21404391E+04</pdfrwt>
<pdfrwt beam="2">  1       -2 0.75608164E-01 0.21404391E+04</pdfrwt>
<totfact> 0.62748714E+00</totfact>
</mgrwt>
</event>
<event>
12    1  0.1960998E-007  0.1981822E+04  0.7818608E-02  0.8615167E-01
          2   -1    0    0  501    0  0.00000000000E+00  0.00000000000E+00  0.26230635350E+04  0.26230635350E+04  0.00000000000E+00 0. -1.
         -2   -1    0    0    0  501 -0.00000000000E+00 -0.00000000000E+00 -0.37433489248E+03  0.37433489248E+03  0.00000000000E+00 0.  1.
         23    2    1    2    0    0 -0.10646039633E+03  0.77184739417E+03  0.81852970469E+03  0.11364866563E+04  0.12053558268E+03 0.  0.
        254    2    1    2    0    0  0.10646039633E+03 -0.77184739417E+03  0.14301989378E+04  0.18609117712E+04  0.90024519014E+03 0.  0.
        -24    2    4    4    0    0  0.23464003716E+03 -0.74375142078E+01  0.17306462062E+02  0.24747879461E+03  0.76387017860E+02 0.  0.
         24    2    4    4    0    0 -0.12817964083E+03 -0.76440987996E+03  0.14128924758E+04  0.16134329766E+04  0.78411330866E+02 0.  0.
         11    1    3    3    0    0  0.90026029579E+01  0.34354895771E+03  0.32681345393E+03  0.47425095347E+03  0.00000000000E+00 0.  1.
        -11    1    3    3    0    0 -0.11546299929E+03  0.42829843646E+03  0.49171625076E+03  0.66223570286E+03  0.00000000000E+00 0. -1.
          4    1    6    6  502    0 -0.12027772538E+03 -0.50973214901E+03  0.92282978282E+03  0.10610883107E+04  0.00000000000E+00 0. -1.
          3    1    5    5  503    0  0.22151046404E+03  0.12513831408E+02  0.22611102430E+02  0.22301287767E+03  0.00000000000E+00 0. -1.
         -4    1    5    5    0  503  0.13129573122E+02 -0.19951345616E+02 -0.53046403682E+01  0.24465916939E+02  0.00000000000E+00 0.  1.
         -3    1    6    6    0  502 -0.79019154427E+01 -0.25467773095E+03  0.49006269296E+03  0.55234466590E+03  0.00000000000E+00 0.  1.
<mgrwt>
<rscale>  0 0.19818216E+04</rscale>
<asrwt>0</asrwt>
<pdfrwt beam="1">  1        2 0.40354822E+00 0.19818216E+04</pdfrwt>
<pdfrwt beam="2">  1       -2 0.57589985E-01 0.19818216E+04</pdfrwt>
<totfact> 0.77568176E+00</totfact>
</mgrwt>
</event>
<event>
12    1  0.1960998E-007  0.1870263E+04  0.7818608E-02  0.8669802E-01
         -2   -1    0    0    0  501 -0.00000000000E+00  0.00000000000E+00  0.17472234320E+04  0.17472234320E+04  0.00000000000E+00 0.  1.
          2   -1    0    0  501    0  0.00000000000E+00 -0.00000000000E+00 -0.50049178109E+03  0.50049178109E+03  0.00000000000E+00 0. -1.
         23    2    1    2    0    0  0.48646889574E+03  0.86470026078E+02 -0.14094224348E+03  0.52192936186E+03  0.91741434725E+02 0.  0.
        254    2    1    2    0    0 -0.48646889574E+03 -0.86470026078E+02  0.13876738944E+04  0.17257858513E+04  0.89920460141E+03 0.  0.
        -24    2    4    4    0    0  0.15455179008E+03  0.20131999597E+03  0.16626317141E+03  0.31424980254E+03  0.81813810769E+02 0.  0.
         24    2    4    4    0    0 -0.64102068581E+03 -0.28779002205E+03  0.12214107230E+04  0.14115360487E+04  0.82820565714E+02 0.  0.
         13    1    3    3    0    0  0.29480482136E+03  0.98364463743E+01 -0.65464700216E+02  0.30214609935E+03  0.00000000000E+00 0. -1.
        -13    1    3    3    0    0  0.19166407438E+03  0.76633579704E+02 -0.75477543268E+02  0.21978326252E+03  0.00000000000E+00 0.  1.
          2    1    6    6  502    0 -0.13616783689E+03 -0.97387095060E+02  0.26606406926E+03  0.31435014719E+03  0.00000000000E+00 0. -1.
          3    1    5    5  503    0  0.30958309170E+02  0.93184344823E+02  0.35805176446E+02  0.10451674357E+03  0.00000000000E+00 0. -1.
         -4    1    5    5    0  503  0.12359348091E+03  0.10813565115E+03  0.13045799497E+03  0.20973305896E+03  0.00000000000E+00 0.  1.
         -1    1    6    6    0  502 -0.50485284892E+03 -0.19040292699E+03  0.95534665375E+03  0.10971859015E+04  0.00000000000E+00 0.  1.
<mgrwt>
<rscale>  0 0.18702630E+04</rscale>
<asrwt>0</asrwt>
<pdfrwt beam="1">  1        2 0.76998737E-01 0.18702630E+04</pdfrwt>
<pdfrwt beam="2">  1       -2 0.26880360E+00 0.18702630E+04</pdfrwt>
<totfact> 0.28472607E+00</totfact>
</mgrwt>
</event>
<event>
12    1  0.1960998E-007  0.1355150E+04  0.7818608E-02  0.8986939E-01
          2   -1    0    0  501    0  0.00000000000E+00  0.00000000000E+00  0.25779582360E+04  0.25779582360E+04  0.00000000000E+00 0. -1.
         -2   -1    0    0    0  501 -0.00000000000E+00 -0.00000000000E+00 -0.17808978593E+03  0.17808978593E+03  0.00000000000E+00 0.  1.
         23    2    1    2    0    0 -0.39893649327E+02  0.12321933242E+03 -0.28491746028E+02  0.16262147894E+03  0.94124697514E+02 0.  0.
        254    2    1    2    0    0  0.39893649327E+02 -0.12321933242E+03  0.24283601960E+04  0.25934265429E+04  0.90119558632E+03 0.  0.
        -24    2    4    4    0    0 -0.36740412923E+03  0.83819155470E+02  0.64717675414E+03  0.75309797015E+03  0.79418867628E+02 0.  0.
         24    2    4    4    0    0  0.40729777856E+03 -0.20703848789E+03  0.17811834419E+04  0.18403285728E+04  0.73745415348E+02 0.  0.
         13    1    3    3    0    0 -0.43684280047E+02  0.13623909921E+03 -0.35424540941E+02  0.14739167743E+03  0.00000000000E+00 0.  1.
        -13    1    3    3    0    0  0.37906307203E+01 -0.13019766790E+02  0.69327949123E+01  0.15229801503E+02  0.00000000000E+00 0. -1.
          4    1    6    6  502    0  0.11524228845E+03 -0.72929353986E+02  0.41414529022E+03  0.43602270254E+03  0.00000000000E+00 0. -1.
          3    1    5    5  503    0 -0.20763105734E+03  0.56168491589E+02  0.44222493432E+03  0.49176055958E+03  0.00000000000E+00 0. -1.
         -4    1    5    5    0  503 -0.15977307189E+03  0.27650663880E+02  0.20495181982E+03  0.26133741057E+03  0.00000000000E+00 0.  1.
         -3    1    6    6    0  502  0.29205549011E+03 -0.13410913390E+03  0.13670381517E+04  0.14043058703E+04  0.00000000000E+00 0.  1.
<mgrwt>
<rscale>  0 0.13551502E+04</rscale>
<asrwt>0</asrwt>
<pdfrwt beam="1">  1        2 0.39660893E+00 0.13551502E+04</pdfrwt>
<pdfrwt beam="2">  1       -2 0.27398430E-01 0.13551502E+04</pdfrwt>
<totfact> 0.37327230E+01</totfact>
</mgrwt>
</event>
<event>
12    1  0.1960998E-007  0.2419493E+04  0.7818608E-02  0.8432242E-01
          2   -1    0    0  501    0  0.00000000000E+00  0.00000000000E+00  0.21929860111E+04  0.21929860111E+04  0.00000000000E+00 0. -1.
         -2   -1    0    0    0  501 -0.00000000000E+00 -0.00000000000E+00 -0.66734877314E+03  0.66734877314E+03  0.00000000000E+00 0.  1.
         23    2    1    2    0    0  0.75324836998E+03  0.27475065505E+03  0.14402554406E+04  0.16512665422E+04  0.97336682387E+02 0.  0.
        254    2    1    2    0    0 -0.75324836998E+03 -0.27475065505E+03  0.85381797345E+02  0.12090682421E+04  0.90093558778E+03 0.  0.
        -24    2    4    4    0    0 -0.57450474704E+03  0.25898315444E+03  0.61689049440E+01  0.63516939499E+03  0.79209382632E+02 0.  0.
         24    2    4    4    0    0 -0.17874362294E+03 -0.53373380948E+03  0.79212892402E+02  0.57389884707E+03  0.79146334223E+02 0.  0.
         13    1    3    3    0    0  0.35475185112E+03  0.79921357430E+02  0.62111967140E+03  0.71974019302E+03  0.00000000000E+00 0. -1.
        -13    1    3    3    0    0  0.39849651886E+03  0.19482929762E+03  0.81913576921E+03  0.93152634915E+03  0.00000000000E+00 0.  1.
          2    1    6    6  502    0 -0.57324547410E+02 -0.83776357180E+02  0.22599564228E+01  0.10153663950E+03  0.00000000000E+00 0. -1.
          1    1    5    5  503    0 -0.15790790763E+02  0.21004924138E+02 -0.87628822030E+01  0.27700974991E+02  0.00000000000E+00 0. -1.
         -2    1    5    5    0  503 -0.55871395628E+03  0.23797823030E+03  0.14931787147E+02  0.60746842000E+03  0.00000000000E+00 0.  1.
         -1    1    6    6    0  502 -0.12141907553E+03 -0.44995745230E+03  0.76952935979E+02  0.47236220757E+03  0.00000000000E+00 0.  1.
<mgrwt>
<rscale>  0 0.24194929E+04</rscale>
<asrwt>0</asrwt>
<pdfrwt beam="1">  1        2 0.33738246E+00 0.24194929E+04</pdfrwt>
<pdfrwt beam="2">  1       -2 0.10266904E+00 0.24194929E+04</pdfrwt>
<totfact> 0.36286998E+00</totfact>
</mgrwt>
</event>
<event>
12    1  0.1960998E-007  0.1366230E+04  0.7818608E-02  0.8978632E-01
          1   -1    0    0  501    0  0.00000000000E+00  0.00000000000E+00  0.12603810088E+04  0.12603810088E+04  0.00000000000E+00 0. -1.
         -1   -1    0    0    0  501 -0.00000000000E+00 -0.00000000000E+00 -0.37024213041E+03  0.37024213041E+03  0.00000000000E+00 0.  1.
         23    2    1    2    0    0  0.37795743689E+02 -0.34789203986E+03  0.42855445460E+03  0.56090055434E+03  0.92158133977E+02 0.  0.
        254    2    1    2    0    0 -0.37795743689E+02  0.34789203986E+03  0.46158442380E+03  0.10697225849E+04  0.89932688088E+03 0.  0.
        -24    2    4    4    0    0 -0.12757961504E+03 -0.19217603334E+03 -0.11585594917E+03  0.27022375315E+03  0.79938037538E+02 0.  0.
         24    2    4    4    0    0  0.89783871353E+02  0.54006807319E+03  0.57744037296E+03  0.79949883173E+03  0.77629442726E+02 0.  0.
         11    1    3    3    0    0 -0.61470569563E+01 -0.83590318452E+02  0.16502001780E+03  0.18508574749E+03  0.00000000000E+00 0.  1.
        -11    1    3    3    0    0  0.43942800645E+02 -0.26430172141E+03  0.26353443680E+03  0.37581480685E+03  0.00000000000E+00 0. -1.
          2    1    6    6  502    0  0.56683071452E+02  0.43162733891E+03  0.41534954850E+03  0.60168960247E+03  0.00000000000E+00 0. -1.
          1    1    5    5  503    0 -0.13460531265E+03 -0.16758369420E+03 -0.11679508629E+03  0.24463028622E+03  0.00000000000E+00 0. -1.
         -2    1    5    5    0  503  0.70256976046E+01 -0.24592339135E+02  0.93913712059E+00  0.25593466930E+02  0.00000000000E+00 0.  1.
         -1    1    6    6    0  502  0.33100799901E+02  0.10844073429E+03  0.16209082447E+03  0.19780922926E+03  0.00000000000E+00 0.  1.
<mgrwt>
<rscale>  0 0.13662301E+04</rscale>
<asrwt>0</asrwt>
<pdfrwt beam="1">  1        1 0.19390477E+00 0.13662301E+04</pdfrwt>
<pdfrwt beam="2">  1       -1 0.56960328E-01 0.13662301E+04</pdfrwt>
<totfact> 0.29461547E+01</totfact>
</mgrwt>
</event>
<event>
12    1  0.1960998E-007  0.1531746E+04  0.7818608E-02  0.8863612E-01
          1   -1    0    0  501    0  0.00000000000E+00  0.00000000000E+00  0.86310678305E+03  0.86310678305E+03  0.00000000000E+00 0. -1.
         -1   -1    0    0    0  501 -0.00000000000E+00 -0.00000000000E+00 -0.67959352654E+03  0.67959352654E+03  0.00000000000E+00 0.  1.
         23    2    1    2    0    0 -0.34868822196E+03 -0.33730653761E+03  0.15638510991E+03  0.51835252101E+03  0.94201151712E+02 0.  0.
        254    2    1    2    0    0  0.34868822196E+03  0.33730653761E+03  0.27128146603E+02  0.10243477886E+04  0.90177229897E+03 0.  0.
        -24    2    4    4    0    0  0.29878350794E+03  0.35312988320E+03 -0.38065782190E+03  0.60535366553E+03  0.87065400587E+02 0.  0.
         24    2    4    4    0    0  0.49904714023E+02 -0.15823345589E+02  0.40778596850E+03  0.41899412305E+03  0.80782549469E+02 0.  0.
         11    1    3    3    0    0 -0.28458050808E+03 -0.21700501055E+03  0.11416000169E+03  0.37564577220E+03  0.00000000000E+00 0. -1.
        -11    1    3    3    0    0 -0.64107713881E+02 -0.12030152706E+03  0.42225108218E+02  0.14270674881E+03  0.00000000000E+00 0.  1.
          2    1    6    6  502    0  0.41984132721E+02  0.23815804456E+02  0.13803056137E+03  0.14622686421E+03  0.00000000000E+00 0. -1.
          1    1    5    5  503    0  0.26717476784E+02  0.31211741942E+02 -0.72136234505E+02  0.83015858301E+02  0.00000000000E+00 0. -1.
         -2    1    5    5    0  503  0.27206603116E+03  0.32191814125E+03 -0.30852158739E+03  0.52233780723E+03  0.00000000000E+00 0.  1.
         -1    1    6    6    0  502  0.79205813015E+01 -0.39639150044E+02  0.26975540713E+03  0.27276725884E+03  0.00000000000E+00 0.  1.
<mgrwt>
<rscale>  0 0.15317464E+04</rscale>
<asrwt>0</asrwt>
<pdfrwt beam="1">  1        1 0.13278566E+00 0.15317464E+04</pdfrwt>
<pdfrwt beam="2">  1       -1 0.10455285E+00 0.15317464E+04</pdfrwt>
<totfact> 0.16204785E+01</totfact>
</mgrwt>
</event>
<event>
12    1  0.1960998E-007  0.3643121E+04  0.7818608E-02  0.8080685E-01
         -2   -1    0    0    0  501 -0.00000000000E+00  0.00000000000E+00  0.18428000940E+04  0.18428000940E+04  0.00000000000E+00 0.  1.
          2   -1    0    0  501    0  0.00000000000E+00 -0.00000000000E+00 -0.18005657638E+04  0.18005657638E+04  0.00000000000E+00 0. -1.
         23    2    1    2    0    0 -0.12259383632E+04  0.53494969963E+02  0.12124088327E+04  0.17273852026E+04  0.90210190395E+02 0.  0.
        254    2    1    2    0    0  0.12259383632E+04 -0.53494969963E+02 -0.11701745026E+04  0.19159806552E+04  0.89212494790E+03 0.  0.
        -24    2    4    4    0    0  0.80029398326E+03 -0.45123699821E+03 -0.80328050200E+03  0.12230489582E+04  0.80646767311E+02 0.  0.
         24    2    4    4    0    0  0.42564437990E+03  0.39774202825E+03 -0.36689400057E+03  0.69293169702E+03  0.78557430599E+02 0.  0.
         13    1    3    3    0    0 -0.97130703025E+03  0.24533513630E+02  0.10029282137E+04  0.13963897172E+04  0.00000000000E+00 0. -1.
        -13    1    3    3    0    0 -0.25463133291E+03  0.28961456333E+02  0.20948061900E+03  0.33099548545E+03  0.00000000000E+00 0.  1.
          2    1    6    6  502    0  0.17902577900E+03  0.14621304578E+03 -0.18744379460E+03  0.29759647249E+03  0.00000000000E+00 0. -1.
          1    1    5    5  503    0  0.56771591397E+02 -0.57602882079E+02 -0.75725125541E+02  0.11079440533E+03  0.00000000000E+00 0. -1.
         -2    1    5    5    0  503  0.74352239186E+03 -0.39363411614E+03 -0.72755537646E+03  0.11122545529E+04  0.00000000000E+00 0.  1.
         -1    1    6    6    0  502  0.24661860090E+03  0.25152898247E+03 -0.17945020596E+03  0.39533522453E+03  0.00000000000E+00 0.  1.
<mgrwt>
<rscale>  0 0.36431211E+04</rscale>
<asrwt>0</asrwt>
<pdfrwt beam="1">  1        2 0.27701012E+00 0.36431211E+04</pdfrwt>
<pdfrwt beam="2">  1       -2 0.28350771E+00 0.36431211E+04</pdfrwt>
<totfact> 0.28073541E-01</totfact>
</mgrwt>
</event>
<event>
12    1  0.1960998E-007  0.1868557E+04  0.7818608E-02  0.8670668E-01
          1   -1    0    0  501    0  0.00000000000E+00  0.00000000000E+00  0.55968237008E+03  0.55968237008E+03  0.00000000000E+00 0. -1.
         -1   -1    0    0    0  501 -0.00000000000E+00 -0.00000000000E+00 -0.15595925943E+04  0.15595925943E+04  0.00000000000E+00 0.  1.
         23    2    1    2    0    0  0.24045957939E+03  0.55177166446E+03  0.54202315971E+02  0.61079089880E+03  0.88627602766E+02 0.  0.
        254    2    1    2    0    0 -0.24045957939E+03 -0.55177166446E+03 -0.10541125402E+04  0.15084840656E+04  0.89559932432E+03 0.  0.
        -24    2    4    4    0    0 -0.47234354425E+03 -0.61274618237E+03 -0.57639718975E+03  0.96806705777E+03  0.79710728239E+02 0.  0.
         24    2    4    4    0    0  0.23188396485E+03  0.60974517905E+02 -0.47771535047E+03  0.54041700783E+03  0.79690158069E+02 0.  0.
         11    1    3    3    0    0  0.48700703354E+02  0.20030514195E+03 -0.41722605384E+01  0.20618272517E+03  0.00000000000E+00 0. -1.
        -11    1    3    3    0    0  0.19175887604E+03  0.35146652251E+03  0.58374576510E+02  0.40460817363E+03  0.00000000000E+00 0.  1.
          2    1    6    6  502    0  0.69988926166E+02  0.31533138088E+00 -0.77329189606E+02  0.10429934221E+03  0.00000000000E+00 0. -1.
          1    1    5    5  503    0 -0.85760630907E+02 -0.69736490158E+02 -0.96365851548E+02  0.14664392663E+03  0.00000000000E+00 0. -1.
         -2    1    5    5    0  503 -0.38658291334E+03 -0.54300969221E+03 -0.48003133820E+03  0.82142313114E+03  0.00000000000E+00 0.  1.
         -3    1    6    6    0  502  0.16189503869E+03  0.60659186524E+02 -0.40038616086E+03  0.43611766562E+03  0.00000000000E+00 0.  1.
<mgrwt>
<rscale>  0 0.18685572E+04</rscale>
<asrwt>0</asrwt>
<pdfrwt beam="1">  1        1 0.86104979E-01 0.18685572E+04</pdfrwt>
<pdfrwt beam="2">  1       -1 0.23993733E+00 0.18685572E+04</pdfrwt>
<totfact> 0.28808014E+00</totfact>
</mgrwt>
</event>
<event>
12    1  0.1960998E-007  0.1374375E+04  0.7818608E-02  0.8972579E-01
         -2   -1    0    0    0  501 -0.00000000000E+00  0.00000000000E+00  0.17610804679E+03  0.17610804679E+03  0.00000000000E+00 0.  1.
          2   -1    0    0  501    0  0.00000000000E+00 -0.00000000000E+00 -0.26814608565E+04  0.26814608565E+04  0.00000000000E+00 0. -1.
         23    2    1    2    0    0 -0.26941130023E+03 -0.27316338315E+03 -0.66186229682E+03  0.77107182289E+03  0.96381396129E+02 0.  0.
        254    2    1    2    0    0  0.26941130023E+03  0.27316338315E+03 -0.18434905128E+04  0.20864970804E+04  0.89878368524E+03 0.  0.
        -24    2    4    4    0    0  0.41117310457E+03  0.32925949849E+03 -0.49566327185E+03  0.72768012484E+03  0.79756791264E+02 0.  0.
         24    2    4    4    0    0 -0.14176180435E+03 -0.56096115341E+02 -0.13478272410E+04  0.13588169555E+04  0.80635375197E+02 0.  0.
         13    1    3    3    0    0 -0.11706692130E+03 -0.10915745850E+03 -0.37092627592E+03  0.40398801588E+03  0.00000000000E+00 0. -1.
        -13    1    3    3    0    0 -0.15234437892E+03 -0.16400592465E+03 -0.29093602090E+03  0.36708380701E+03  0.00000000000E+00 0.  1.
          4    1    6    6  502    0 -0.12640547268E+03 -0.29377124177E+02 -0.83104101046E+03  0.84111266785E+03  0.00000000000E+00 0. -1.
          3    1    5    5  503    0  0.32277468984E+03  0.24251436911E+03 -0.41984082030E+03  0.58246290356E+03  0.00000000000E+00 0. -1.
         -4    1    5    5    0  503  0.88398414732E+02  0.86745129376E+02 -0.75822451548E+02  0.14521722128E+03  0.00000000000E+00 0.  1.
         -3    1    6    6    0  502 -0.15356331668E+02 -0.26718991164E+02 -0.51678623054E+03  0.51770428768E+03  0.00000000000E+00 0.  1.
<mgrwt>
<rscale>  0 0.13743753E+04</rscale>
<asrwt>0</asrwt>
<pdfrwt beam="1">  1        2 0.41253244E+00 0.13743753E+04</pdfrwt>
<pdfrwt beam="2">  1       -2 0.27093545E-01 0.13743753E+04</pdfrwt>
<totfact> 0.33086699E+01</totfact>
</mgrwt>
</event>
<event>
12    1  0.1960998E-007  0.1660299E+04  0.7818608E-02  0.8784337E-01
         -2   -1    0    0    0  501 -0.00000000000E+00  0.00000000000E+00  0.25061175203E+04  0.25061175203E+04  0.00000000000E+00 0.  1.
          2   -1    0    0  501    0  0.00000000000E+00 -0.00000000000E+00 -0.27498641544E+03  0.27498641544E+03  0.00000000000E+00 0. -1.
         23    2    1    2    0    0 -0.11692073785E+03  0.26118522109E+03 -0.58764561658E+02  0.30563637541E+03  0.89845097889E+02 0.  0.
        254    2    1    2    0    0  0.11692073785E+03 -0.26118522109E+03  0.22898956665E+04  0.24754675603E+04  0.89578418162E+03 0.  0.
        -24    2    4    4    0    0 -0.13834614545E+01 -0.40751273800E+03  0.40717053170E+03  0.58164677650E+03  0.80352878799E+02 0.  0.
         24    2    4    4    0    0  0.11830419930E+03  0.14632751691E+03  0.18827251348E+04  0.18938207838E+04  0.80595298888E+02 0.  0.
         11    1    3    3    0    0 -0.94735320082E+02  0.24081562848E+03 -0.77537684951E+02  0.27014633142E+03  0.00000000000E+00 0. -1.
        -11    1    3    3    0    0 -0.22185417766E+02  0.20369592606E+02  0.18773123293E+02  0.35490043992E+02  0.00000000000E+00 0.  1.
          2    1    6    6  502    0  0.30029639988E+02  0.85223635476E+02  0.11102310335E+04  0.11139020581E+04  0.00000000000E+00 0. -1.
          3    1    5    5  503    0  0.34592780264E+02 -0.29833350774E+03  0.29938165930E+03  0.42406240132E+03  0.00000000000E+00 0. -1.
         -4    1    5    5    0  503 -0.35976241719E+02 -0.10917923026E+03  0.10778887240E+03  0.15758437519E+03  0.00000000000E+00 0.  1.
         -1    1    6    6    0  502  0.88274559315E+02  0.61103881434E+02  0.77249410128E+03  0.77991872568E+03  0.00000000000E+00 0.  1.
<mgrwt>
<rscale>  0 0.16602991E+04</rscale>
<asrwt>0</asrwt>
<pdfrwt beam="1">  1        2 0.42305604E-01 0.16602991E+04</pdfrwt>
<pdfrwt beam="2">  1       -2 0.38555653E+00 0.16602991E+04</pdfrwt>
<totfact> 0.10712614E+00</totfact>
</mgrwt>
</event>
<event>
12    1  0.1960998E-007  0.1517888E+04  0.7818608E-02  0.8872644E-01
          2   -1    0    0  501    0  0.00000000000E+00  0.00000000000E+00  0.54181065283E+03  0.54181065283E+03  0.00000000000E+00 0. -1.
         -2   -1    0    0    0  501 -0.00000000000E+00 -0.00000000000E+00 -0.10630947765E+04  0.10630947765E+04  0.00000000000E+00 0.  1.
         23    2    1    2    0    0 -0.22718144677E+03  0.40224595011E+03 -0.33071012341E+03  0.57536374500E+03  0.90890259146E+02 0.  0.
        254    2    1    2    0    0  0.22718144677E+03 -0.40224595011E+03 -0.19057400023E+03  0.10295416843E+04  0.90012466693E+03 0.  0.
        -24    2    4    4    0    0  0.37801576201E+03 -0.41460745304E+03 -0.44634862733E+03  0.72145957736E+03  0.80508187169E+02 0.  0.
         24    2    4    4    0    0 -0.15083431524E+03  0.12361502934E+02  0.25577462710E+03  0.30808210694E+03  0.81179599275E+02 0.  0.
         11    1    3    3    0    0 -0.23000496070E+03  0.35199334933E+03 -0.29401342131E+03  0.51307454802E+03  0.00000000000E+00 0.  1.
        -11    1    3    3    0    0  0.28235139304E+01  0.50252600774E+02 -0.36696702104E+02  0.62289196983E+02  0.00000000000E+00 0. -1.
          2    1    6    6  502    0  0.32890253175E+01 -0.41488526975E+01  0.50912372191E+02  0.51186915402E+02  0.00000000000E+00 0. -1.
          1    1    5    5  503    0  0.37055203581E+01 -0.28971300679E+02 -0.19081806092E+02  0.34888142225E+02  0.00000000000E+00 0. -1.
         -2    1    5    5    0  503  0.37431024165E+03 -0.38563615236E+03 -0.42726682123E+03  0.68657143513E+03  0.00000000000E+00 0.  1.
         -1    1    6    6    0  502 -0.15412334056E+03  0.16510355631E+02  0.20486225491E+03  0.25689519154E+03  0.00000000000E+00 0.  1.
<mgrwt>
<rscale>  0 0.15178881E+04</rscale>
<asrwt>0</asrwt>
<pdfrwt beam="1">  1        2 0.83355486E-01 0.15178881E+04</pdfrwt>
<pdfrwt beam="2">  1       -2 0.16355304E+00 0.15178881E+04</pdfrwt>
<totfact> 0.12813542E+01</totfact>
</mgrwt>
</event>
<event>
12    1  0.1960998E-007  0.1333610E+04  0.7818608E-02  0.9003329E-01
          1   -1    0    0  501    0  0.00000000000E+00  0.00000000000E+00  0.16916928935E+04  0.16916928935E+04  0.00000000000E+00 0. -1.
         -1   -1    0    0    0  501 -0.00000000000E+00 -0.00000000000E+00 -0.26283074361E+03  0.26283074361E+03  0.00000000000E+00 0.  1.
         23    2    1    2    0    0  0.28345124902E+03 -0.21359974331E+02  0.87877240450E+02  0.31456028185E+03  0.10210241160E+03 0.  0.
        254    2    1    2    0    0 -0.28345124902E+03  0.21359974331E+02  0.13409849094E+04  0.16399633552E+04  0.90024353379E+03 0.  0.
        -24    2    4    4    0    0 -0.31008073782E+03  0.94559601667E+02  0.42331899505E+02  0.33654214239E+03  0.79856381451E+02 0.  0.
         24    2    4    4    0    0  0.26629488791E+02 -0.73199627335E+02  0.12986530099E+04  0.13034212129E+04  0.79623506584E+02 0.  0.
         13    1    3    3    0    0  0.16173244761E+03  0.34263739101E+02  0.70055163726E+02  0.17955253937E+03  0.00000000000E+00 0.  1.
        -13    1    3    3    0    0  0.12171880141E+03 -0.55623713433E+02  0.17822076724E+02  0.13500774249E+03  0.00000000000E+00 0. -1.
          2    1    6    6  502    0  0.47376962823E+01 -0.33022963244E+01  0.73576995590E+03  0.73579261951E+03  0.00000000000E+00 0. -1.
          1    1    5    5  503    0 -0.77150050001E+02  0.15166627449E+02 -0.23012379905E+02  0.81925126990E+02  0.00000000000E+00 0. -1.
         -2    1    5    5    0  503 -0.23293068781E+03  0.79392974217E+02  0.65344279410E+02  0.25461701540E+03  0.00000000000E+00 0.  1.
         -1    1    6    6    0  502  0.21891792509E+02 -0.69897331011E+02  0.56288305403E+03  0.56762859334E+03  0.00000000000E+00 0.  1.
<mgrwt>
<rscale>  0 0.13336100E+04</rscale>
<asrwt>0</asrwt>
<pdfrwt beam="1">  1        1 0.26026044E+00 0.13336100E+04</pdfrwt>
<pdfrwt beam="2">  1       -1 0.40435500E-01 0.13336100E+04</pdfrwt>
<totfact> 0.28261554E+01</totfact>
</mgrwt>
</event>
<event>
12    1  0.2980552E-007  0.2707525E+04  0.7818608E-02  0.8332568E-01
          2   -1    0    0  501    0  0.00000000000E+00  0.00000000000E+00  0.19886404123E+04  0.19886404123E+04  0.00000000000E+00 0. -1.
         -2   -1    0    0    0  501 -0.00000000000E+00 -0.00000000000E+00 -0.92157069505E+03  0.92157069505E+03  0.00000000000E+00 0.  1.
         23    2    1    2    0    0 -0.47487482840E+02  0.11026596611E+04  0.98554992798E+03  0.14825950351E+04  0.93091290426E+02 0.  0.
        254    2    1    2    0    0  0.47487482840E+02 -0.11026596611E+04  0.81519789324E+02  0.14276160723E+04  0.90184742864E+03 0.  0.
        -24    2    4    4    0    0  0.59241106086E+02 -0.57303091572E+03  0.48464894779E+03  0.75707120611E+03  0.79989183702E+02 0.  0.
         24    2    4    4    0    0 -0.11753623245E+02 -0.52962874538E+03 -0.40312915847E+03  0.67054486617E+03  0.80452119582E+02 0.  0.
         13    1    3    3    0    0 -0.63772263300E+02  0.56912009469E+03  0.54352897951E+03  0.78954945083E+03  0.00000000000E+00 0. -1.
        -13    1    3    3    0    0  0.16284780460E+02  0.53353956641E+03  0.44202094847E+03  0.69304558428E+03  0.00000000000E+00 0.  1.
          4    1    6    6  502    0 -0.76866201847E+01 -0.47233016194E+03 -0.32425945014E+03  0.57297387114E+03  0.00000000000E+00 0. -1.
          3    1    5    5  503    0  0.61114748359E+02 -0.49406376975E+03  0.44904187489E+03  0.67042719698E+03  0.00000000000E+00 0. -1.
         -4    1    5    5    0  503 -0.18736422736E+01 -0.78967145967E+02  0.35607072901E+02  0.86644009130E+02  0.00000000000E+00 0.  1.
         -3    1    6    6    0  502 -0.40670030608E+01 -0.57298583441E+02 -0.78869708334E+02  0.97570995029E+02  0.00000000000E+00 0.  1.
<mgrwt>
<rscale>  0 0.27075249E+04</rscale>
<asrwt>0</asrwt>
<pdfrwt beam="1">  1        2 0.30594468E+00 0.27075249E+04</pdfrwt>
<pdfrwt beam="2">  1       -2 0.14178011E+00 0.27075249E+04</pdfrwt>
<totfact> 0.20657340E+00</totfact>
</mgrwt>
</event>
<event>
12    1  0.1960998E-007  0.1324219E+04  0.7818608E-02  0.9010577E-01
         -1   -1    0    0    0  501 -0.00000000000E+00  0.00000000000E+00  0.21265070294E+03  0.21265070294E+03  0.00000000000E+00 0.  1.
          1   -1    0    0  501    0  0.00000000000E+00 -0.00000000000E+00 -0.20615438035E+04  0.20615438035E+04  0.00000000000E+00 0. -1.
         23    2    1    2    0    0 -0.23358969567E+02  0.73264156065E+02 -0.10834150900E+04  0.10898278547E+04  0.89572415059E+02 0.  0.
        254    2    1    2    0    0  0.23358969567E+02 -0.73264156065E+02 -0.76547801052E+03  0.11843666517E+04  0.90047459882E+03 0.  0.
        -24    2    4    4    0    0 -0.81359935871E+02 -0.43712888328E+03 -0.62846439166E+03  0.77399324479E+03  0.79980945416E+02 0.  0.
         24    2    4    4    0    0  0.10471890544E+03  0.36386472721E+03 -0.13701361886E+03  0.41037340694E+03  0.79183410562E+02 0.  0.
         11    1    3    3    0    0  0.17904174412E+02  0.35237272968E+02 -0.79632877770E+03  0.79730906621E+03  0.00000000000E+00 0. -1.
        -11    1    3    3    0    0 -0.41263143979E+02  0.38026883097E+02 -0.28708631234E+03  0.29251878850E+03  0.00000000000E+00 0.  1.
          4    1    6    6  502    0  0.71417767923E+02  0.29420014592E+03 -0.76470259270E+02  0.31225298075E+03  0.00000000000E+00 0. -1.
          1    1    5    5  503    0 -0.71208191740E+02 -0.40264855870E+03 -0.60777321165E+03  0.73251945039E+03  0.00000000000E+00 0. -1.
         -2    1    5    5    0  503 -0.10151744131E+02 -0.34480324574E+02 -0.20691180012E+02  0.41473794400E+02  0.00000000000E+00 0.  1.
         -3    1    6    6    0  502  0.33301137515E+02  0.69664581296E+02 -0.60543359587E+02  0.98120426197E+02  0.00000000000E+00 0.  1.
<mgrwt>
<rscale>  0 0.13242186E+04</rscale>
<asrwt>0</asrwt>
<pdfrwt beam="1">  1        1 0.31716060E+00 0.13242186E+04</pdfrwt>
<pdfrwt beam="2">  1       -1 0.32715492E-01 0.13242186E+04</pdfrwt>
<totfact> 0.23272576E+01</totfact>
</mgrwt>
</event>
<event>
12    1  0.1960998E-007  0.1310272E+04  0.7818608E-02  0.9021459E-01
          1   -1    0    0  501    0  0.00000000000E+00  0.00000000000E+00  0.25860978892E+04  0.25860978892E+04  0.00000000000E+00 0. -1.
         -1   -1    0    0    0  501 -0.00000000000E+00 -0.00000000000E+00 -0.16596552349E+03  0.16596552349E+03  0.00000000000E+00 0.  1.
         23    2    1    2    0    0 -0.26718071363E+03 -0.18462229606E+02  0.21624651521E+03  0.35402140514E+03  0.82717666207E+02 0.  0.
        254    2    1    2    0    0  0.26718071363E+03  0.18462229606E+02  0.22038858505E+04  0.23980420075E+04  0.90651323227E+03 0.  0.
        -24    2    4    4    0    0  0.59155557267E+03  0.15548642014E+02  0.16023162996E+04  0.17099593278E+04  0.79772318714E+02 0.  0.
         24    2    4    4    0    0 -0.32437485904E+03  0.29135875919E+01  0.60156955087E+03  0.68808267975E+03  0.79651186238E+02 0.  0.
         13    1    3    3    0    0 -0.11335099064E+03 -0.19482789852E+02  0.14336342312E+03  0.18379634727E+03  0.00000000000E+00 0. -1.
        -13    1    3    3    0    0 -0.15382972298E+03  0.10205602466E+01  0.72883092093E+02  0.17022505788E+03  0.00000000000E+00 0.  1.
          2    1    6    6  502    0 -0.28341667912E+03  0.29406427864E+02  0.50283544256E+03  0.57795608336E+03  0.00000000000E+00 0. -1.
          3    1    5    5  503    0  0.56390574629E+03  0.71275525521E+01  0.14686753420E+04  0.15732284490E+04  0.00000000000E+00 0. -1.
         -4    1    5    5    0  503  0.27649826383E+02  0.84210894616E+01  0.13364095761E+03  0.13673087873E+03  0.00000000000E+00 0.  1.
         -3    1    6    6    0  502 -0.40958179924E+02 -0.26492840272E+02  0.98734108310E+02  0.11012659639E+03  0.00000000000E+00 0.  1.
<mgrwt>
<rscale>  0 0.13102719E+04</rscale>
<asrwt>0</asrwt>
<pdfrwt beam="1">  1        1 0.39786119E+00 0.13102719E+04</pdfrwt>
<pdfrwt beam="2">  1       -1 0.25533159E-01 0.13102719E+04</pdfrwt>
<totfact> 0.15731365E+01</totfact>
</mgrwt>
</event>
<event>
12    1  0.1960998E-007  0.2889964E+04  0.7818608E-02  0.8275870E-01
          1   -1    0    0  501    0  0.00000000000E+00  0.00000000000E+00  0.13269015848E+04  0.13269015848E+04  0.00000000000E+00 0. -1.
         -1   -1    0    0    0  501 -0.00000000000E+00 -0.00000000000E+00 -0.15735700726E+04  0.15735700726E+04  0.00000000000E+00 0.  1.
         23    2    1    2    0    0 -0.10249797827E+04 -0.78705155756E+03  0.55771749003E+02  0.12967766410E+04  0.92116553810E+02 0.  0.
        254    2    1    2    0    0  0.10249797827E+04  0.78705155756E+03 -0.30244023686E+03  0.16036950164E+04  0.90018548057E+03 0.  0.
        -24    2    4    4    0    0  0.24637039012E+03  0.42929834463E+03 -0.51199944214E+03  0.71750242960E+03  0.87583502419E+02 0.  0.
         24    2    4    4    0    0  0.77860939259E+03  0.35775321293E+03  0.20955920529E+03  0.88619258677E+03  0.84866322725E+02 0.  0.
         11    1    3    3    0    0 -0.42998682174E+03 -0.29081689123E+03 -0.10260826192E+02  0.51919978394E+03  0.00000000000E+00 0. -1.
        -11    1    3    3    0    0 -0.59499296097E+03 -0.49623466633E+03  0.66032575195E+02  0.77757685708E+03  0.00000000000E+00 0.  1.
          4    1    6    6  502    0  0.57483339818E+03  0.30413374203E+03  0.16053404580E+03  0.66985218411E+03  0.00000000000E+00 0. -1.
          3    1    5    5  503    0  0.21616651996E+03  0.39334394390E+03 -0.49338435871E+03  0.66698991594E+03  0.00000000000E+00 0. -1.
         -4    1    5    5    0  503  0.30203870160E+02  0.35954400730E+02 -0.18615083438E+02  0.50512513656E+02  0.00000000000E+00 0.  1.
         -3    1    6    6    0  502  0.20377599441E+03  0.53619470903E+02  0.49025159486E+02  0.21634040266E+03  0.00000000000E+00 0.  1.
<mgrwt>
<rscale>  0 0.28899638E+04</rscale>
<asrwt>0</asrwt>
<pdfrwt beam="1">  1        1 0.20413871E+00 0.28899638E+04</pdfrwt>
<pdfrwt beam="2">  1       -1 0.24208770E+00 0.28899638E+04</pdfrwt>
<totfact> 0.58403445E-01</totfact>
</mgrwt>
</event>
<event>
12    1  0.1960998E-007  0.1470648E+04  0.7818608E-02  0.8904210E-01
          2   -1    0    0  501    0  0.00000000000E+00  0.00000000000E+00  0.33730050453E+04  0.33730050453E+04  0.00000000000E+00 0. -1.
         -2   -1    0    0    0  501 -0.00000000000E+00 -0.00000000000E+00 -0.16030257334E+03  0.16030257334E+03  0.00000000000E+00 0.  1.
         23    2    1    2    0    0  0.41348967153E+03 -0.15899904676E+03  0.78155901165E+03  0.90352788469E+03  0.96300282380E+02 0.  0.
        254    2    1    2    0    0 -0.41348967153E+03  0.15899904676E+03  0.24311434604E+04  0.26297797340E+04  0.89946012648E+03 0.  0.
        -24    2    4    4    0    0 -0.46581805910E+03  0.19134934275E+03  0.56576737175E+03  0.76161744628E+03  0.79795867030E+02 0.  0.
         24    2    4    4    0    0  0.52328387568E+02 -0.32350295980E+02  0.18653760886E+04  0.18681622877E+04  0.81348506181E+02 0.  0.
         13    1    3    3    0    0  0.14407675126E+03 -0.83846958358E+02  0.37121249263E+03  0.40692399458E+03  0.00000000000E+00 0. -1.
        -13    1    3    3    0    0  0.26941292028E+03 -0.75152088406E+02  0.41034651902E+03  0.49660389011E+03  0.00000000000E+00 0.  1.
          4    1    6    6  502    0  0.71366475885E+02 -0.39165051151E+02  0.14271178521E+04  0.14294378051E+04  0.00000000000E+00 0. -1.
          1    1    5    5  503    0 -0.25323358368E+03  0.13862480924E+03  0.28675067847E+03  0.40690298259E+03  0.00000000000E+00 0. -1.
         -2    1    5    5    0  503 -0.21258447542E+03  0.52724533508E+02  0.27901669328E+03  0.35471446369E+03  0.00000000000E+00 0.  1.
         -3    1    6    6    0  502 -0.19038088317E+02  0.68147551703E+01  0.43825823655E+03  0.43872448257E+03  0.00000000000E+00 0.  1.
<mgrwt>
<rscale>  0 0.14706480E+04</rscale>
<asrwt>0</asrwt>
<pdfrwt beam="1">  1        2 0.51892380E+00 0.14706480E+04</pdfrwt>
<pdfrwt beam="2">  1       -2 0.24661937E-01 0.14706480E+04</pdfrwt>
<totfact> 0.14347361E+01</totfact>
</mgrwt>
</event>
<event>
12    1  0.2171610E-007  0.2441615E+04  0.7818608E-02  0.8424086E-01
          2   -1    0    0  501    0  0.00000000000E+00  0.00000000000E+00  0.17809937723E+04  0.17809937723E+04  0.00000000000E+00 0. -1.
         -2   -1    0    0    0  501 -0.00000000000E+00 -0.00000000000E+00 -0.83681955556E+03  0.83681955556E+03  0.00000000000E+00 0.  1.
         23    2    1    2    0    0 -0.89793709282E+03 -0.35775554318E+03 -0.38776311462E+02  0.97154723984E+03  0.90113181917E+02 0.  0.
        254    2    1    2    0    0  0.89793709282E+03  0.35775554318E+03  0.98295052820E+03  0.16462660880E+04  0.89984456455E+03 0.  0.
        -24    2    4    4    0    0  0.89635980908E+03  0.85960485184E+01  0.91195842382E+03  0.12811085803E+04  0.77693167284E+02 0.  0.
         24    2    4    4    0    0  0.15772837409E+01  0.34915949466E+03  0.70992104380E+02  0.36515750777E+03  0.79907984949E+02 0.  0.
         11    1    3    3    0    0 -0.31995859120E+03 -0.89579146212E+02  0.10983878886E+02  0.33244333218E+03  0.00000000000E+00 0. -1.
        -11    1    3    3    0    0 -0.57797850163E+03 -0.26817639697E+03 -0.49760190349E+02  0.63910390765E+03  0.00000000000E+00 0.  1.
          4    1    6    6  502    0  0.42742275239E+01  0.82316934167E+01  0.17831303122E+02  0.20099382291E+02  0.00000000000E+00 0. -1.
          3    1    5    5  503    0  0.49868563840E+02  0.27130820137E+01  0.28263175095E+02  0.57385028883E+02  0.00000000000E+00 0. -1.
         -2    1    5    5    0  503  0.84649124524E+03  0.58829665047E+01  0.88369524872E+03  0.12237235514E+04  0.00000000000E+00 0.  1.
         -3    1    6    6    0  502 -0.26969437831E+01  0.34092780125E+03  0.53160801258E+02  0.34505812548E+03  0.00000000000E+00 0.  1.
<mgrwt>
<rscale>  0 0.24416146E+04</rscale>
<asrwt>0</asrwt>
<pdfrwt beam="1">  1        2 0.27399904E+00 0.24416146E+04</pdfrwt>
<pdfrwt beam="2">  1       -2 0.12874147E+00 0.24416146E+04</pdfrwt>
<totfact> 0.35271872E+00</totfact>
</mgrwt>
</event>
<event>
12    1  0.1960998E-007  0.3245085E+04  0.7818608E-02  0.8177011E-01
         -2   -1    0    0    0  501 -0.00000000000E+00  0.00000000000E+00  0.90252138288E+03  0.90252138288E+03  0.00000000000E+00 0.  1.
          2   -1    0    0  501    0  0.00000000000E+00 -0.00000000000E+00 -0.29169876970E+04  0.29169876970E+04  0.00000000000E+00 0. -1.
         23    2    1    2    0    0 -0.11630288768E+03 -0.14274749761E+04 -0.14515246295E+04  0.20408587441E+04  0.83483494334E+02 0.  0.
        254    2    1    2    0    0  0.11630288768E+03  0.14274749761E+04 -0.56294168457E+03  0.17786503358E+04  0.89189826084E+03 0.  0.
        -24    2    4    4    0    0  0.91543380540E+02  0.13470118091E+04 -0.16338385425E+03  0.13626509497E+04  0.85453627515E+02 0.  0.
         24    2    4    4    0    0  0.24759507137E+02  0.80463167019E+02 -0.39955783031E+03  0.41599938612E+03  0.79508962037E+02 0.  0.
         13    1    3    3    0    0 -0.12545089953E+03 -0.12687189978E+04 -0.13101763611E+04  0.18280995380E+04  0.00000000000E+00 0. -1.
        -13    1    3    3    0    0  0.91480118480E+01 -0.15875597833E+03 -0.14134826847E+03  0.21275920609E+03  0.00000000000E+00 0.  1.
          4    1    6    6  502    0  0.14627807975E+02 -0.84117805531E+01 -0.20606174027E+02  0.26633535745E+02  0.00000000000E+00 0. -1.
          1    1    5    5  503    0  0.35268350352E+02  0.45979411526E+03 -0.96534004327E+02  0.47114042382E+03  0.00000000000E+00 0. -1.
         -2    1    5    5    0  503  0.56275030189E+02  0.88721769386E+03 -0.66849849926E+02  0.89151052588E+03  0.00000000000E+00 0.  1.
         -1    1    6    6    0  502  0.10131699163E+02  0.88874947572E+02 -0.37895165629E+03  0.38936585037E+03  0.00000000000E+00 0.  1.
<mgrwt>
<rscale>  0 0.32450848E+04</rscale>
<asrwt>0</asrwt>
<pdfrwt beam="1">  1        2 0.44876734E+00 0.32450848E+04</pdfrwt>
<pdfrwt beam="2">  1       -2 0.13884944E+00 0.32450848E+04</pdfrwt>
<totfact> 0.60336117E-01</totfact>
</mgrwt>
</event>
<event>
12    1  0.1960998E-007  0.1396759E+04  0.7818608E-02  0.8956168E-01
         -1   -1    0    0    0  501 -0.00000000000E+00  0.00000000000E+00  0.19182686880E+04  0.19182686880E+04  0.00000000000E+00 0.  1.
          1   -1    0    0  501    0  0.00000000000E+00 -0.00000000000E+00 -0.25425726160E+03  0.25425726160E+03  0.00000000000E+00 0. -1.
         23    2    1    2    0    0  0.31259663808E+02  0.23329257878E+03  0.98267408877E+03  0.10146015704E+04  0.91462495461E+02 0.  0.
        254    2    1    2    0    0 -0.31259663808E+02 -0.23329257878E+03  0.68133733763E+03  0.11579243792E+04  0.90618193887E+03 0.  0.
        -24    2    4    4    0    0  0.25273316167E+02  0.19326166884E+03  0.68874823717E+03  0.72028560250E+03  0.80301941544E+02 0.  0.
         24    2    4    4    0    0 -0.56532979975E+02 -0.42655424762E+03 -0.74108995418E+01  0.43763877666E+03  0.79550445757E+02 0.  0.
         13    1    3    3    0    0 -0.24536091317E+01  0.24119597197E+02  0.27037137408E+03  0.27145617526E+03  0.00000000000E+00 0. -1.
        -13    1    3    3    0    0  0.33713272940E+02  0.20917298159E+03  0.71230271469E+03  0.74314539517E+03  0.00000000000E+00 0.  1.
          2    1    6    6  502    0 -0.13591151895E+02 -0.33237107255E+03 -0.20627024957E+02  0.33328774871E+03  0.00000000000E+00 0. -1.
          3    1    5    5  503    0  0.31736065294E+02  0.19386416984E+03  0.68537181676E+03  0.71296915880E+03  0.00000000000E+00 0. -1.
         -4    1    5    5    0  503 -0.64627491277E+01 -0.60250099913E+00  0.33764204142E+01  0.73164437096E+01  0.00000000000E+00 0.  1.
         -1    1    6    6    0  502 -0.42941828080E+02 -0.94183175067E+02  0.13216125415E+02  0.10435102796E+03  0.00000000000E+00 0.  1.
<mgrwt>
<rscale>  0 0.13967587E+04</rscale>
<asrwt>0</asrwt>
<pdfrwt beam="1">  1        1 0.39116503E-01 0.13967587E+04</pdfrwt>
<pdfrwt beam="2">  1       -1 0.29511825E+00 0.13967587E+04</pdfrwt>
<totfact> 0.37811312E+00</totfact>
</mgrwt>
</event>
<event>
12    1  0.1960998E-007  0.4791377E+04  0.7818608E-02  0.7861521E-01
         -1   -1    0    0    0  501 -0.00000000000E+00  0.00000000000E+00  0.21232661968E+04  0.21232661968E+04  0.00000000000E+00 0.  1.
          1   -1    0    0  501    0  0.00000000000E+00 -0.00000000000E+00 -0.27030638206E+04  0.27030638206E+04  0.00000000000E+00 0. -1.
         23    2    1    2    0    0 -0.28685805625E+03  0.14674087505E+04  0.14941670715E+04  0.21159308377E+04  0.95142455524E+02 0.  0.
        254    2    1    2    0    0  0.28685805625E+03 -0.14674087505E+04 -0.20739646953E+04  0.27103991798E+04  0.89964335759E+03 0.  0.
        -24    2    4    4    0    0  0.32377263640E+03 -0.32970073492E+03 -0.18656469373E+03  0.50489200909E+03  0.81106480705E+02 0.  0.
         24    2    4    4    0    0 -0.36914580149E+02 -0.11377080156E+04 -0.18874000016E+04  0.22055071707E+04  0.78999360972E+02 0.  0.
         11    1    3    3    0    0 -0.22864316576E+03  0.12755164055E+04  0.13282905753E+04  0.18556873795E+04  0.00000000000E+00 0.  1.
        -11    1    3    3    0    0 -0.58214890493E+02  0.19189234500E+03  0.16587649617E+03  0.26024345818E+03  0.00000000000E+00 0. -1.
          2    1    6    6  502    0  0.23232178178E+02 -0.47878647577E+03 -0.78452156366E+03  0.91937495470E+03  0.00000000000E+00 0. -1.
          1    1    5    5  503    0  0.31860773032E+02 -0.70966425271E+02 -0.17368363646E+02  0.79705723946E+02  0.00000000000E+00 0. -1.
         -2    1    5    5    0  503  0.29191186337E+03 -0.25873430965E+03 -0.16919633009E+03  0.42518628515E+03  0.00000000000E+00 0.  1.
         -1    1    6    6    0  502 -0.60146758326E+02 -0.65892153980E+03 -0.11028784379E+04  0.12861322160E+04  0.00000000000E+00 0.  1.
<mgrwt>
<rscale>  0 0.47913773E+04</rscale>
<asrwt>0</asrwt>
<pdfrwt beam="1">  1        1 0.41585597E+00 0.47913773E+04</pdfrwt>
<pdfrwt beam="2">  1       -1 0.32665634E+00 0.47913773E+04</pdfrwt>
<totfact> 0.15870298E-02</totfact>
</mgrwt>
</event>
<event>
12    1  0.2628304E-007  0.2569611E+04  0.7818608E-02  0.8378598E-01
          1   -1    0    0  501    0  0.00000000000E+00  0.00000000000E+00  0.15025162112E+04  0.15025162112E+04  0.00000000000E+00 0. -1.
         -1   -1    0    0    0  501 -0.00000000000E+00 -0.00000000000E+00 -0.10986404218E+04  0.10986404218E+04  0.00000000000E+00 0.  1.
         23    2    1    2    0    0 -0.68968324485E+03  0.85494165063E+03  0.41759052283E+03  0.11789099957E+04  0.94120821095E+02 0.  0.
        254    2    1    2    0    0  0.68968324485E+03 -0.85494165063E+03 -0.13714733490E+02  0.14222466373E+04  0.90333227511E+03 0.  0.
        -24    2    4    4    0    0  0.60243632865E+03 -0.10566267119E+03  0.17431870992E+03  0.64075003682E+03  0.77970936206E+02 0.  0.
         24    2    4    4    0    0  0.87246916198E+02 -0.74927897944E+03 -0.18803344341E+03  0.78149660051E+03  0.79682792050E+02 0.  0.
         11    1    3    3    0    0 -0.46095321566E+03  0.50031548561E+03  0.26839901112E+03  0.73132173586E+03  0.00000000000E+00 0.  1.
        -11    1    3    3    0    0 -0.22873002919E+03  0.35462616502E+03  0.14919151172E+03  0.44758825983E+03  0.00000000000E+00 0. -1.
          4    1    6    6  502    0  0.21964764542E+02 -0.43678819156E+03 -0.13635512921E+03  0.45810380530E+03  0.00000000000E+00 0. -1.
          1    1    5    5  503    0  0.44003587460E+03 -0.11192635394E+03  0.13023952067E+03  0.47235729315E+03  0.00000000000E+00 0. -1.
         -2    1    5    5    0  503  0.16240045405E+03  0.62636827476E+01  0.44079189248E+02  0.16839274367E+03  0.00000000000E+00 0.  1.
         -3    1    6    6    0  502  0.65282151656E+02 -0.31249078788E+03 -0.51678314199E+02  0.32339279521E+03  0.00000000000E+00 0.  1.
<mgrwt>
<rscale>  0 0.25696109E+04</rscale>
<asrwt>0</asrwt>
<pdfrwt beam="1">  1        1 0.23115634E+00 0.25696109E+04</pdfrwt>
<pdfrwt beam="2">  1       -1 0.16902161E+00 0.25696109E+04</pdfrwt>
<totfact> 0.14395120E+00</totfact>
</mgrwt>
</event>
<event>
12    1  0.1960998E-007  0.4882213E+04  0.7818608E-02  0.7846938E-01
         -2   -1    0    0    0  501 -0.00000000000E+00  0.00000000000E+00  0.29180701349E+04  0.29180701349E+04  0.00000000000E+00 0.  1.
          2   -1    0    0  501    0  0.00000000000E+00 -0.00000000000E+00 -0.20421034547E+04  0.20421034547E+04  0.00000000000E+00 0. -1.
         23    2    1    2    0    0  0.13322136019E+04 -0.18452885555E+04  0.10371853298E+04  0.25029499263E+04  0.95509117066E+02 0.  0.
        254    2    1    2    0    0 -0.13322136019E+04  0.18452885555E+04 -0.16121864961E+03  0.24572236632E+04  0.91218076295E+03 0.  0.
        -24    2    4    4    0    0 -0.12945559432E+04  0.16532365393E+04 -0.39940899064E+03  0.21388158639E+04  0.77068884789E+02 0.  0.
         24    2    4    4    0    0 -0.37657658689E+02  0.19205201613E+03  0.23819034103E+03  0.31840779931E+03  0.79666881092E+02 0.  0.
         11    1    3    3    0    0  0.56533784538E+03 -0.86364420876E+03  0.47657164051E+03  0.11369295173E+04  0.00000000000E+00 0. -1.
        -11    1    3    3    0    0  0.76687575647E+03 -0.98164434670E+03  0.56061368932E+03  0.13660204090E+04  0.00000000000E+00 0.  1.
          4    1    6    6  502    0 -0.21735227598E+01  0.15036715407E+03  0.20549971457E+03  0.25464708502E+03  0.00000000000E+00 0. -1.
          3    1    5    5  503    0 -0.12756297399E+04  0.16409529387E+04 -0.39221403454E+03  0.21151334779E+04  0.00000000000E+00 0. -1.
         -4    1    5    5    0  503 -0.18926203314E+02  0.12283600578E+02 -0.71949560971E+01  0.23682386034E+02  0.00000000000E+00 0.  1.
         -3    1    6    6    0  502 -0.35484135929E+02  0.41684862060E+02  0.32690626467E+02  0.63760714287E+02  0.00000000000E+00 0.  1.
<mgrwt>
<rscale>  0 0.48822131E+04</rscale>
<asrwt>0</asrwt>
<pdfrwt beam="1">  1        2 0.31416976E+00 0.48822131E+04</pdfrwt>
<pdfrwt beam="2">  1       -2 0.44893387E+00 0.48822131E+04</pdfrwt>
<totfact> 0.16448354E-02</totfact>
</mgrwt>
</event>
<event>
12    1  0.1960998E-007  0.3816186E+04  0.7818608E-02  0.8042690E-01
         -2   -1    0    0    0  501 -0.00000000000E+00  0.00000000000E+00  0.21401154601E+04  0.21401154601E+04  0.00000000000E+00 0.  1.
          2   -1    0    0  501    0  0.00000000000E+00 -0.00000000000E+00 -0.17012256797E+04  0.17012256797E+04  0.00000000000E+00 0. -1.
         23    2    1    2    0    0  0.83792829591E+03  0.15290225319E+04  0.65324442968E+03  0.18642566181E+04  0.93224037438E+02 0.  0.
        254    2    1    2    0    0 -0.83792829591E+03 -0.15290225319E+04 -0.21435464925E+03  0.19770845217E+04  0.90712819287E+03 0.  0.
        -24    2    4    4    0    0 -0.77099470933E+03 -0.10024702325E+04 -0.50809110959E+03  0.13652323120E+04  0.79519062375E+02 0.  0.
         24    2    4    4    0    0 -0.66933586572E+02 -0.52655229942E+03  0.29373646034E+03  0.61185220973E+03  0.79652930733E+02 0.  0.
         13    1    3    3    0    0  0.36678206146E+03  0.74719072768E+03  0.28201853905E+03  0.87883873407E+03  0.00000000000E+00 0. -1.
        -13    1    3    3    0    0  0.47114623445E+03  0.78183180420E+03  0.37122589063E+03  0.98541788403E+03  0.00000000000E+00 0.  1.
          2    1    6    6  502    0  0.16486146101E+02 -0.14369686968E+03  0.70887513071E+02  0.16107645041E+03  0.00000000000E+00 0. -1.
          1    1    5    5  503    0  0.16743228475E+01 -0.28550381276E+01 -0.33623133107E+01  0.47180240045E+01  0.00000000000E+00 0. -1.
         -2    1    5    5    0  503 -0.77266903218E+03 -0.99961519433E+03 -0.50472879628E+03  0.13605142880E+04  0.00000000000E+00 0.  1.
         -1    1    6    6    0  502 -0.83419732673E+02 -0.38285542974E+03  0.22284894727E+03  0.45077575931E+03  0.00000000000E+00 0.  1.
<mgrwt>
<rscale>  0 0.38161863E+04</rscale>
<asrwt>0</asrwt>
<pdfrwt beam="1">  1        2 0.26172703E+00 0.38161863E+04</pdfrwt>
<pdfrwt beam="2">  1       -2 0.32924853E+00 0.38161863E+04</pdfrwt>
<totfact> 0.16448894E-01</totfact>
</mgrwt>
</event>
<event>
12    1  0.1960998E-007  0.3274904E+04  0.7818608E-02  0.8169311E-01
          2   -1    0    0  501    0  0.00000000000E+00  0.00000000000E+00  0.18230196785E+04  0.18230196785E+04  0.00000000000E+00 0. -1.
         -2   -1    0    0    0  501 -0.00000000000E+00 -0.00000000000E+00 -0.14707732225E+04  0.14707732225E+04  0.00000000000E+00 0.  1.
         23    2    1    2    0    0  0.12872650217E+04 -0.77640746624E+03  0.43217012953E+01  0.15066992536E+04  0.10131226000E+03 0.  0.
        254    2    1    2    0    0 -0.12872650217E+04  0.77640746624E+03  0.34792475471E+03  0.17870936475E+04  0.90154993216E+03 0.  0.
        -24    2    4    4    0    0 -0.26801792562E+03  0.66908861481E+03  0.13893924961E+03  0.73846496948E+03  0.80704480340E+02 0.  0.
         24    2    4    4    0    0 -0.10192470961E+04  0.10731885143E+03  0.20898550511E+03  0.10486286780E+04  0.74600162448E+02 0.  0.
         11    1    3    3    0    0  0.29408308177E+03 -0.18945499873E+03 -0.40564596250E+02  0.35216976304E+03  0.00000000000E+00 0.  1.
        -11    1    3    3    0    0  0.99318193992E+03 -0.58695246751E+03  0.44886297545E+02  0.11545294906E+04  0.00000000000E+00 0. -1.
          2    1    6    6  502    0 -0.73064537205E+03  0.77637822896E+02  0.18389544114E+03  0.75742182733E+03  0.00000000000E+00 0. -1.
          3    1    5    5  503    0 -0.87349794351E+02  0.31828679272E+03  0.78612323854E+02  0.33928802875E+03  0.00000000000E+00 0. -1.
         -4    1    5    5    0  503 -0.18066813127E+03  0.35080182209E+03  0.60326925754E+02  0.39917694073E+03  0.00000000000E+00 0.  1.
         -1    1    6    6    0  502 -0.28860172402E+03  0.29681028536E+02  0.25090063971E+02  0.29120685066E+03  0.00000000000E+00 0.  1.
<mgrwt>
<rscale>  0 0.32749037E+04</rscale>
<asrwt>0</asrwt>
<pdfrwt beam="1">  1        2 0.28046457E+00 0.32749037E+04</pdfrwt>
<pdfrwt beam="2">  1       -2 0.22627280E+00 0.32749037E+04</pdfrwt>
<totfact> 0.63272907E-01</totfact>
</mgrwt>
</event>
<event>
12    1  0.1960998E-007  0.1582589E+04  0.7818608E-02  0.8831316E-01
          1   -1    0    0  501    0  0.00000000000E+00  0.00000000000E+00  0.11031968557E+04  0.11031968557E+04  0.00000000000E+00 0. -1.
         -1   -1    0    0    0  501 -0.00000000000E+00 -0.00000000000E+00 -0.56757519566E+03  0.56757519566E+03  0.00000000000E+00 0.  1.
         23    2    1    2    0    0  0.36550926611E+03  0.10156603074E+03  0.57234909093E+03  0.69500786056E+03  0.10742328487E+03 0.  0.
        254    2    1    2    0    0 -0.36550926611E+03 -0.10156603074E+03 -0.36727430882E+02  0.97576419082E+03  0.89825061630E+03 0.  0.
        -24    2    4    4    0    0 -0.32321515839E+03 -0.45619485308E+03  0.12305339912E+03  0.57680497491E+03  0.70569522216E+02 0.  0.
         24    2    4    4    0    0 -0.42294107722E+02  0.35462882234E+03 -0.15978083000E+03  0.39895921590E+03  0.78026592488E+02 0.  0.
         13    1    3    3    0    0  0.23137046923E+02 -0.20310928000E+02  0.41290130667E+02  0.51504675778E+02  0.00000000000E+00 0.  1.
        -13    1    3    3    0    0  0.34237221919E+03  0.12187695874E+03  0.53105896027E+03  0.64350318478E+03  0.00000000000E+00 0. -1.
          2    1    6    6  502    0 -0.29601230924E+02  0.29896478228E+03 -0.10083561158E+03  0.31689745104E+03  0.00000000000E+00 0. -1.
          3    1    5    5  503    0 -0.24496137183E+03 -0.36655605608E+03  0.12338612700E+03  0.45781388388E+03  0.00000000000E+00 0. -1.
         -4    1    5    5    0  503 -0.78253786562E+02 -0.89638796998E+02 -0.33272787773E+00  0.11899109104E+03  0.00000000000E+00 0.  1.
         -1    1    6    6    0  502 -0.12692876798E+02  0.55664040065E+02 -0.58945218418E+02  0.82061764861E+02  0.00000000000E+00 0.  1.
<mgrwt>
<rscale>  0 0.15825892E+04</rscale>
<asrwt>0</asrwt>
<pdfrwt beam="1">  1        1 0.16972259E+00 0.15825892E+04</pdfrwt>
<pdfrwt beam="2">  1       -1 0.87319261E-01 0.15825892E+04</pdfrwt>
<totfact> 0.15644209E+01</totfact>
</mgrwt>
</event>
<event>
12    1  0.1960998E-007  0.2300297E+04  0.7818608E-02  0.8477804E-01
          2   -1    0    0  501    0  0.00000000000E+00  0.00000000000E+00  0.19091726034E+04  0.19091726034E+04  0.00000000000E+00 0.  1.
         -2   -1    0    0    0  501 -0.00000000000E+00 -0.00000000000E+00 -0.69288763053E+03  0.69288763053E+03  0.00000000000E+00 0. -1.
         23    2    1    2    0    0  0.32919761385E+03  0.82085972668E+03  0.66311884125E+02  0.89496996421E+03  0.11996754146E+03 0.  0.
        254    2    1    2    0    0 -0.32919761385E+03 -0.82085972668E+03  0.11499730888E+04  0.17070902698E+04  0.89974292124E+03 0.  0.
        -24    2    4    4    0    0 -0.27186503885E+02 -0.80886686673E+03  0.11319701048E+04  0.13939004480E+04  0.81224545094E+02 0.  0.
         24    2    4    4    0    0 -0.30201110996E+03 -0.11992859955E+02  0.18002983998E+02  0.31318982175E+03  0.80057590440E+02 0.  0.
         13    1    3    3    0    0  0.53051776384E+02  0.17993270303E+03  0.60349266389E+02  0.19705913465E+03  0.00000000000E+00 0.  1.
        -13    1    3    3    0    0  0.27614583746E+03  0.64092702366E+03  0.59626177364E+01  0.69791082956E+03  0.00000000000E+00 0. -1.
          4    1    6    6  502    0 -0.11629485088E+03 -0.37552327086E+02  0.28296238960E+02  0.12544061045E+03  0.00000000000E+00 0. -1.
          3    1    5    5  503    0  0.27424382340E+02 -0.17068558959E+03  0.24146256996E+03  0.29696774224E+03  0.00000000000E+00 0. -1.
         -4    1    5    5    0  503 -0.54610886225E+02 -0.63818127714E+03  0.89050753483E+03  0.10969327058E+04  0.00000000000E+00 0.  1.
         -3    1    6    6    0  502 -0.18571625909E+03  0.25559467131E+02 -0.10293254963E+02  0.18774921131E+03  0.00000000000E+00 0.  1.
<mgrwt>
<rscale>  0 0.23002974E+04</rscale>
<asrwt>0</asrwt>
<pdfrwt beam="1">  1        2 0.29371886E+00 0.23002974E+04</pdfrwt>
<pdfrwt beam="2">  1       -2 0.10659810E+00 0.23002974E+04</pdfrwt>
<totfact> 0.48228470E+00</totfact>
</mgrwt>
</event>
<event>
12    1  0.1960998E-007  0.3213584E+04  0.7818608E-02  0.8185239E-01
          1   -1    0    0  501    0  0.00000000000E+00  0.00000000000E+00  0.19500657577E+04  0.19500657577E+04  0.00000000000E+00 0. -1.
         -1   -1    0    0    0  501 -0.00000000000E+00 -0.00000000000E+00 -0.13239457809E+04  0.13239457809E+04  0.00000000000E+00 0.  1.
         23    2    1    2    0    0  0.96277720786E+03  0.11168389458E+04  0.16773617200E+03  0.14868121435E+04  0.90585561340E+02 0.  0.
        254    2    1    2    0    0 -0.96277720786E+03 -0.11168389458E+04  0.45838380476E+03  0.17871993951E+04  0.89983153011E+03 0.  0.
        -24    2    4    4    0    0 -0.61666608901E+03 -0.30976833318E+03  0.56960298259E+03  0.89822991509E+03  0.78332222071E+02 0.  0.
         24    2    4    4    0    0 -0.34611111885E+03 -0.80707061262E+03 -0.11121917783E+03  0.88896948001E+03  0.82104509849E+02 0.  0.
         13    1    3    3    0    0  0.38845202108E+03  0.42489006795E+03  0.10666935261E+03  0.58549542552E+03  0.00000000000E+00 0. -1.
        -13    1    3    3    0    0  0.57432518678E+03  0.69194887785E+03  0.61066819391E+02  0.90131671801E+03  0.00000000000E+00 0.  1.
          4    1    6    6  502    0 -0.69069722454E+02 -0.20269234244E+03 -0.58762225515E+02  0.22205362279E+03  0.00000000000E+00 0. -1.
          3    1    5    5  503    0 -0.10327207445E+03 -0.86228753534E+02  0.11420437674E+03  0.17647424448E+03  0.00000000000E+00 0. -1.
         -4    1    5    5    0  503 -0.51339401456E+03 -0.22353957965E+03  0.45539860585E+03  0.72175567062E+03  0.00000000000E+00 0.  1.
         -3    1    6    6    0  502 -0.27704139640E+03 -0.60437827017E+03 -0.52456952314E+02  0.66691585723E+03  0.00000000000E+00 0.  1.
<mgrwt>
<rscale>  0 0.32135845E+04</rscale>
<asrwt>0</asrwt>
<pdfrwt beam="1">  1        1 0.30001012E+00 0.32135845E+04</pdfrwt>
<pdfrwt beam="2">  1       -1 0.20368397E+00 0.32135845E+04</pdfrwt>
<totfact> 0.38227103E-01</totfact>
</mgrwt>
</event>
<event>
12    1  0.1960998E-007  0.2345866E+04  0.7818608E-02  0.8460053E-01
          4   -1    0    0  501    0  0.00000000000E+00  0.00000000000E+00  0.18604590217E+04  0.18604590217E+04  0.00000000000E+00 0. -1.
         -4   -1    0    0    0  501 -0.00000000000E+00 -0.00000000000E+00 -0.73947986753E+03  0.73947986753E+03  0.00000000000E+00 0.  1.
         23    2    1    2    0    0 -0.36714226161E+03  0.82414716146E+03  0.94863878035E+03  0.13123915756E+04  0.91891937586E+02 0.  0.
        254    2    1    2    0    0  0.36714226161E+03 -0.82414716146E+03  0.17234037379E+03  0.12875473136E+04  0.90225544957E+03 0.  0.
        -24    2    4    4    0    0  0.42714435293E+03  0.10543236708E+02  0.72729586955E+02  0.44102842832E+03  0.81566069477E+02 0.  0.
         24    2    4    4    0    0 -0.60002091320E+02 -0.83469039817E+03  0.99610786835E+02  0.84651888526E+03  0.79772191233E+02 0.  0.
         11    1    3    3    0    0 -0.25975009212E+03  0.48010462702E+03  0.59485633702E+03  0.80735656617E+03  0.00000000000E+00 0. -1.
        -11    1    3    3    0    0 -0.10739216949E+03  0.34404253444E+03  0.35378244333E+03  0.50503500946E+03  0.00000000000E+00 0.  1.
          4    1    6    6  502    0 -0.53576566834E+02 -0.46611013024E+03  0.21336673128E+02  0.46966408809E+03  0.00000000000E+00 0. -1.
          1    1    5    5  503    0  0.21918539613E+03 -0.28215640636E+02  0.13755619752E+02  0.22142171828E+03  0.00000000000E+00 0. -1.
         -2    1    5    5    0  503  0.20795895680E+03  0.38758877344E+02  0.58973967203E+02  0.21960671004E+03  0.00000000000E+00 0.  1.
         -3    1    6    6    0  502 -0.64255244867E+01 -0.36858026793E+03  0.78274113708E+02  0.37685479717E+03  0.00000000000E+00 0.  1.
<mgrwt>
<rscale>  0 0.23458661E+04</rscale>
<asrwt>0</asrwt>
<pdfrwt beam="1">  1        4 0.28622446E+00 0.23458661E+04</pdfrwt>
<pdfrwt beam="2">  1       -4 0.11376613E+00 0.23458661E+04</pdfrwt>
<totfact> 0.41017122E-02</totfact>
</mgrwt>
</event>
<event>
12    1  0.1960998E-007  0.1375057E+04  0.7818608E-02  0.8972074E-01
         -1   -1    0    0    0  501 -0.00000000000E+00  0.00000000000E+00  0.59966363895E+03  0.59966363895E+03  0.00000000000E+00 0.  1.
          1   -1    0    0  501    0  0.00000000000E+00 -0.00000000000E+00 -0.78826752385E+03  0.78826752385E+03  0.00000000000E+00 0. -1.
         23    2    1    2    0    0  0.14361823421E+03  0.30782510308E+03  0.12911507213E+03  0.37475378911E+03  0.91581708434E+02 0.  0.
        254    2    1    2    0    0 -0.14361823421E+03 -0.30782510308E+03 -0.31771895703E+03  0.10131773737E+04  0.90011141734E+03 0.  0.
        -24    2    4    4    0    0 -0.10708936575E+03 -0.21684731039E+03  0.29356085454E+03  0.38896480938E+03  0.81392624610E+02 0.  0.
         24    2    4    4    0    0 -0.36528868460E+02 -0.90977792692E+02 -0.61127981157E+03  0.62421256431E+03  0.79793486052E+02 0.  0.
         11    1    3    3    0    0  0.87959088091E+02  0.19902948853E+03  0.34755356508E+02  0.22035760320E+03  0.00000000000E+00 0. -1.
        -11    1    3    3    0    0  0.55659146115E+02  0.10879561455E+03  0.94359715622E+02  0.15439618591E+03  0.00000000000E+00 0.  1.
          2    1    6    6  502    0  0.23424130131E+02 -0.41631303852E+02 -0.27178048317E+03  0.27594652809E+03  0.00000000000E+00 0. -1.
          3    1    5    5  503    0 -0.80756620289E+02 -0.73326447841E+02  0.11835350698E+03  0.16095326119E+03  0.00000000000E+00 0. -1.
         -4    1    5    5    0  503 -0.26332745457E+02 -0.14352086255E+03  0.17520734756E+03  0.22801154819E+03  0.00000000000E+00 0.  1.
         -1    1    6    6    0  502 -0.59952998592E+02 -0.49346488840E+02 -0.33949932840E+03  0.34826603622E+03  0.00000000000E+00 0.  1.
<mgrwt>
<rscale>  0 0.13750569E+04</rscale>
<asrwt>0</asrwt>
<pdfrwt beam="1">  1        1 0.12127193E+00 0.13750569E+04</pdfrwt>
<pdfrwt beam="2">  1       -1 0.92255945E-01 0.13750569E+04</pdfrwt>
<totfact> 0.25299513E+01</totfact>
</mgrwt>
</event>
<event>
12    1  0.1960998E-007  0.3404159E+04  0.7818608E-02  0.8136886E-01
         -2   -1    0    0    0  501 -0.00000000000E+00  0.00000000000E+00  0.23737709900E+04  0.23737709900E+04  0.00000000000E+00 0.  1.
          2   -1    0    0  501    0  0.00000000000E+00 -0.00000000000E+00 -0.12204527207E+04  0.12204527207E+04  0.00000000000E+00 0. -1.
         23    2    1    2    0    0  0.23512637647E+03  0.15595919434E+04  0.67154576593E+03  0.17167073505E+04  0.92189850610E+02 0.  0.
        254    2    1    2    0    0 -0.23512637647E+03 -0.15595919434E+04  0.48177250330E+03  0.18775163602E+04  0.89741378135E+03 0.  0.
        -24    2    4    4    0    0 -0.32588658760E+03 -0.20163336523E+03  0.31863287386E+03  0.50456707668E+03  0.78758774828E+02 0.  0.
         24    2    4    4    0    0  0.90760211134E+02 -0.13579585782E+04  0.16313962944E+03  0.13729492835E+04  0.78014616527E+02 0.  0.
         11    1    3    3    0    0  0.23635134127E+03  0.14403270763E+04  0.63697813048E+03  0.15925279219E+04  0.00000000000E+00 0.  1.
        -11    1    3    3    0    0 -0.12249647992E+01  0.11926486709E+03  0.34567635448E+02  0.12417942858E+03  0.00000000000E+00 0. -1.
          2    1    6    6  502    0  0.72724668565E+01 -0.35630280010E+03  0.73086238787E+02  0.36379413468E+03  0.00000000000E+00 0. -1.
          3    1    5    5  503    0 -0.41713773328E+02 -0.59054532043E+02  0.45558782936E+02  0.85458056043E+02  0.00000000000E+00 0. -1.
         -4    1    5    5    0  503 -0.28417281427E+03 -0.14257883319E+03  0.27307409092E+03  0.41910902064E+03  0.00000000000E+00 0.  1.
         -1    1    6    6    0  502  0.83487744278E+02 -0.10016557781E+04  0.90053390650E+02  0.10091551488E+04  0.00000000000E+00 0.  1.
<mgrwt>
<rscale>  0 0.34041594E+04</rscale>
<asrwt>0</asrwt>
<pdfrwt beam="1">  1        2 0.18776196E+00 0.34041594E+04</pdfrwt>
<pdfrwt beam="2">  1       -2 0.36519554E+00 0.34041594E+04</pdfrwt>
<totfact> 0.18993492E-01</totfact>
</mgrwt>
</event>
<event>
12    1  0.1960998E-007  0.2314321E+04  0.7818608E-02  0.8472296E-01
          2   -1    0    0  501    0  0.00000000000E+00  0.00000000000E+00  0.28401431004E+04  0.28401431004E+04  0.00000000000E+00 0. -1.
         -2   -1    0    0    0  501 -0.00000000000E+00 -0.00000000000E+00 -0.47146237583E+03  0.47146237583E+03  0.00000000000E+00 0.  1.
         23    2    1    2    0    0 -0.91783970819E+03 -0.31553989800E+03  0.82115829956E+03  0.12744498047E+04  0.89029177767E+02 0.  0.
        254    2    1    2    0    0  0.91783970819E+03  0.31553989800E+03  0.15475224250E+04  0.20371556716E+04  0.90176627634E+03 0.  0.
        -24    2    4    4    0    0  0.38148806606E+03  0.41218025090E+03  0.23568325250E+03  0.61436469604E+03  0.80446755341E+02 0.  0.
         24    2    4    4    0    0  0.53635164213E+03 -0.96640352898E+02  0.13118391725E+04  0.14227909755E+04  0.79998148264E+02 0.  0.
         11    1    3    3    0    0 -0.82822687047E+03 -0.29872905295E+03  0.71269029961E+03  0.11327516317E+04  0.00000000000E+00 0.  1.
        -11    1    3    3    0    0 -0.89612837721E+02 -0.16810845054E+02  0.10846799996E+03  0.14169817293E+03  0.00000000000E+00 0. -1.
          4    1    6    6  502    0  0.38980120834E+03 -0.41341486912E+02  0.99254013968E+03  0.10671410541E+04  0.00000000000E+00 0. -1.
          1    1    5    5  503    0  0.27083870701E+03  0.25318259226E+03  0.18389906967E+03  0.41385250762E+03  0.00000000000E+00 0. -1.
         -2    1    5    5    0  503  0.11064935905E+03  0.15899765864E+03  0.51784182835E+02  0.20051218842E+03  0.00000000000E+00 0.  1.
         -3    1    6    6    0  502  0.14655043379E+03 -0.55298865986E+02  0.31929903282E+03  0.35564992139E+03  0.00000000000E+00 0.  1.
<mgrwt>
<rscale>  0 0.23143212E+04</rscale>
<asrwt>0</asrwt>
<pdfrwt beam="1">  1        2 0.43694508E+00 0.23143212E+04</pdfrwt>
<pdfrwt beam="2">  1       -2 0.72532675E-01 0.23143212E+04</pdfrwt>
<totfact> 0.34052037E+00</totfact>
</mgrwt>
</event>
<event>
12    1  0.1960998E-007  0.1830979E+04  0.7818608E-02  0.8689997E-01
          2   -1    0    0  501    0  0.00000000000E+00  0.00000000000E+00  0.18832072918E+04  0.18832072918E+04  0.00000000000E+00 0.  1.
         -2   -1    0    0    0  501 -0.00000000000E+00 -0.00000000000E+00 -0.44504973009E+03  0.44504973009E+03  0.00000000000E+00 0. -1.
         23    2    1    2    0    0 -0.68969266643E+02 -0.29191477773E+03  0.13374344771E+04  0.13736907488E+04  0.91237577437E+02 0.  0.
        254    2    1    2    0    0  0.68969266643E+02  0.29191477773E+03  0.10072308454E+03  0.95456627304E+03  0.90060015138E+03 0.  0.
        -24    2    4    4    0    0 -0.29580687112E+03  0.44486215729E+03  0.10787264963E+03  0.55089634733E+03  0.80288436084E+02 0.  0.
         24    2    4    4    0    0  0.36477613776E+03 -0.15294737956E+03 -0.71495650857E+01  0.40366992572E+03  0.80273040627E+02 0.  0.
         11    1    3    3    0    0  0.54863886670E+01 -0.88356046128E+02  0.25961469746E+03  0.27429305949E+03  0.00000000000E+00 0. -1.
        -11    1    3    3    0    0 -0.74455655310E+02 -0.20355873161E+03  0.10778197797E+04  0.10993976893E+04  0.00000000000E+00 0.  1.
          2    1    6    6  502    0  0.15732837155E+03 -0.83516724499E+02  0.33288822698E+02  0.18120542344E+03  0.00000000000E+00 0. -1.
          3    1    5    5  503    0 -0.14985807061E+03  0.22403215940E+03  0.13485211011E+02  0.26986978469E+03  0.00000000000E+00 0. -1.
         -4    1    5    5    0  503 -0.14594880051E+03  0.22082999789E+03  0.94387438619E+02  0.28102656264E+03  0.00000000000E+00 0.  1.
         -1    1    6    6    0  502  0.20744776621E+03 -0.69430655062E+02 -0.40438387784E+02  0.22246450228E+03  0.00000000000E+00 0.  1.
<mgrwt>
<rscale>  0 0.18309789E+04</rscale>
<asrwt>0</asrwt>
<pdfrwt beam="1">  1        2 0.28972419E+00 0.18309789E+04</pdfrwt>
<pdfrwt beam="2">  1       -2 0.68469190E-01 0.18309789E+04</pdfrwt>
<totfact> 0.14251423E+01</totfact>
</mgrwt>
</event>
<event>
12    1  0.1960998E-007  0.4814364E+04  0.7818608E-02  0.7857799E-01
         -2   -1    0    0    0  501 -0.00000000000E+00  0.00000000000E+00  0.22430536037E+04  0.22430536037E+04  0.00000000000E+00 0.  1.
          2   -1    0    0  501    0  0.00000000000E+00 -0.00000000000E+00 -0.25833201839E+04  0.25833201839E+04  0.00000000000E+00 0. -1.
         23    2    1    2    0    0  0.16794261793E+04  0.63793590218E+02  0.14372621358E+04  0.22131024153E+04  0.86936410131E+02 0.  0.
        254    2    1    2    0    0 -0.16794261793E+04 -0.63793590218E+02 -0.17775287160E+04  0.26132713723E+04  0.91925894870E+03 0.  0.
        -24    2    4    4    0    0 -0.12211005930E+04 -0.31189376674E+03 -0.77863883887E+03  0.14837123714E+04  0.82216662653E+02 0.  0.
         24    2    4    4    0    0 -0.45832558637E+03  0.24810017653E+03 -0.99888987714E+03  0.11295590009E+04  0.80662935346E+02 0.  0.
         13    1    3    3    0    0  0.80345648398E+03  0.20176872670E+02  0.63188214817E+03  0.10223622044E+04  0.00000000000E+00 0. -1.
        -13    1    3    3    0    0  0.87596969536E+03  0.43616717548E+02  0.80537998767E+03  0.11907402109E+04  0.00000000000E+00 0.  1.
          4    1    6    6  502    0 -0.44746722519E+02  0.78218372768E+01 -0.13013289389E+03  0.13783330652E+03  0.00000000000E+00 0. -1.
          1    1    5    5  503    0 -0.62948055747E+03 -0.11844566407E+03 -0.39799040367E+03  0.75410311561E+03  0.00000000000E+00 0. -1.
         -2    1    5    5    0  503 -0.59162003551E+03 -0.19344810267E+03 -0.38064843521E+03  0.72960925575E+03  0.00000000000E+00 0.  1.
         -3    1    6    6    0  502 -0.41357886385E+03  0.24027833925E+03 -0.86875698325E+03  0.99172569437E+03  0.00000000000E+00 0.  1.
<mgrwt>
<rscale>  0 0.48143642E+04</rscale>
<asrwt>0</asrwt>
<pdfrwt beam="1">  1        2 0.39743388E+00 0.48143642E+04</pdfrwt>
<pdfrwt beam="2">  1       -2 0.34508517E+00 0.48143642E+04</pdfrwt>
<totfact> 0.38421970E-02</totfact>
</mgrwt>
</event>
<event>
12    1  0.1960998E-007  0.2924033E+04  0.7818608E-02  0.8265763E-01
          2   -1    0    0  501    0  0.00000000000E+00  0.00000000000E+00  0.23859372778E+04  0.23859372778E+04  0.00000000000E+00 0. -1.
         -2   -1    0    0    0  501 -0.00000000000E+00 -0.00000000000E+00 -0.89587109044E+03  0.89587109044E+03  0.00000000000E+00 0.  1.
         23    2    1    2    0    0 -0.76039332167E+03  0.78858706437E+03  0.15054043221E+04  0.18644727614E+04  0.99744389339E+02 0.  0.
        254    2    1    2    0    0  0.76039332167E+03 -0.78858706437E+03 -0.15338134676E+02  0.14173356069E+04  0.89918707872E+03 0.  0.
        -24    2    4    4    0    0 -0.70662280238E+01 -0.21051772221E+03 -0.33277575551E+03  0.40220913655E+03  0.81638490442E+02 0.  0.
         24    2    4    4    0    0  0.76745954969E+03 -0.57806934216E+03  0.31743762083E+03  0.10151264704E+04  0.80973964803E+02 0.  0.
         13    1    3    3    0    0 -0.26879922235E+03  0.28674338907E+03  0.46122891425E+03  0.60597599330E+03  0.00000000000E+00 0. -1.
        -13    1    3    3    0    0 -0.49159409932E+03  0.50184367530E+03  0.10441754078E+04  0.12584967681E+04  0.00000000000E+00 0.  1.
          4    1    6    6  502    0  0.43367747852E+03 -0.35751492202E+03  0.21836935970E+03  0.60297450369E+03  0.00000000000E+00 0. -1.
          3    1    5    5  503    0  0.92533942051E+01 -0.18662168209E+03 -0.32004187991E+03  0.37059422881E+03  0.00000000000E+00 0. -1.
         -4    1    5    5    0  503 -0.16319622229E+02 -0.23896040126E+02 -0.12733875596E+02  0.31614907735E+02  0.00000000000E+00 0.  1.
         -3    1    6    6    0  502  0.33378207117E+03 -0.22055442014E+03  0.99068261131E+02  0.41215196668E+03  0.00000000000E+00 0.  1.
<mgrwt>
<rscale>  0 0.29240330E+04</rscale>
<asrwt>0</asrwt>
<pdfrwt beam="1">  1        2 0.36706727E+00 0.29240330E+04</pdfrwt>
<pdfrwt beam="2">  1       -2 0.13782632E+00 0.29240330E+04</pdfrwt>
<totfact> 0.13046709E+00</totfact>
</mgrwt>
</event>
<event>
12    1  0.1960998E-007  0.1267225E+04  0.7818608E-02  0.9055968E-01
         -1   -1    0    0    0  501 -0.00000000000E+00  0.00000000000E+00  0.13285947528E+04  0.13285947528E+04  0.00000000000E+00 0.  1.
          1   -1    0    0  501    0  0.00000000000E+00 -0.00000000000E+00 -0.30217252915E+03  0.30217252915E+03  0.00000000000E+00 0. -1.
         23    2    1    2    0    0 -0.71125799278E+02  0.28598426059E+03  0.16067695245E+03  0.34779887399E+03  0.91110356554E+02 0.  0.
        254    2    1    2    0    0  0.71125799278E+02 -0.28598426059E+03  0.86574527117E+03  0.12829684079E+04  0.89980397007E+03 0.  0.
        -24    2    4    4    0    0  0.29240018445E+03  0.80036935280E+02  0.77936610907E+03  0.83999380401E+03  0.79210352446E+02 0.  0.
         24    2    4    4    0    0 -0.22127438517E+03 -0.36602119587E+03  0.86379162097E+02  0.44297460391E+03  0.76362757328E+02 0.  0.
         13    1    3    3    0    0  0.86966110957E+01  0.79788728069E+02  0.77480938362E+02  0.11155791313E+03  0.00000000000E+00 0.  1.
        -13    1    3    3    0    0 -0.79822410374E+02  0.20619553252E+03  0.83196014085E+02  0.23624096087E+03  0.00000000000E+00 0. -1.
          2    1    6    6  502    0 -0.13119260867E+03 -0.27915141386E+03  0.74176892024E+02  0.31723685748E+03  0.00000000000E+00 0. -1.
          3    1    5    5  503    0  0.17975160550E+03  0.79279991541E+02  0.55873402732E+03  0.59226655318E+03  0.00000000000E+00 0. -1.
         -4    1    5    5    0  503  0.11264857896E+03  0.75694373907E+00  0.22063208175E+03  0.24772725083E+03  0.00000000000E+00 0.  1.
         -1    1    6    6    0  502 -0.90081776502E+02 -0.86869782011E+02  0.12202270073E+02  0.12573774644E+03  0.00000000000E+00 0.  1.
<mgrwt>
<rscale>  0 0.12672251E+04</rscale>
<asrwt>0</asrwt>
<pdfrwt beam="1">  1        1 0.46488082E-01 0.12672251E+04</pdfrwt>
<pdfrwt beam="2">  1       -1 0.20439919E+00 0.12672251E+04</pdfrwt>
<totfact> 0.12010243E+01</totfact>
</mgrwt>
</event>
<event>
12    1  0.1960998E-007  0.1703514E+04  0.7818608E-02  0.8759363E-01
          1   -1    0    0  501    0  0.00000000000E+00  0.00000000000E+00  0.10681624262E+04  0.10681624262E+04  0.00000000000E+00 0. -1.
         -1   -1    0    0    0  501 -0.00000000000E+00 -0.00000000000E+00 -0.67919444541E+03  0.67919444541E+03  0.00000000000E+00 0.  1.
         23    2    1    2    0    0  0.50219382897E+03  0.34723239727E+03  0.13709944902E+03  0.63199580876E+03  0.88619770878E+02 0.  0.
        254    2    1    2    0    0 -0.50219382897E+03 -0.34723239727E+03  0.25186853178E+03  0.11153610629E+04  0.89879005539E+03 0.  0.
        -24    2    4    4    0    0 -0.51142432112E+03  0.18169260299E+03  0.16933434369E+03  0.57403228222E+03  0.79195346205E+02 0.  0.
         24    2    4    4    0    0  0.92304921459E+01 -0.52892500027E+03  0.82534188089E+02  0.54132878065E+03  0.79862999293E+02 0.  0.
         13    1    3    3    0    0  0.42753643132E+03  0.29850877841E+03  0.14837727197E+03  0.54213532050E+03  0.00000000000E+00 0. -1.
        -13    1    3    3    0    0  0.74657397651E+02  0.48723618860E+02 -0.11277822955E+02  0.89860488255E+02  0.00000000000E+00 0.  1.
          4    1    6    6  502    0  0.18743516759E+02 -0.23817063420E+03 -0.11143312552E+00  0.23890705898E+03  0.00000000000E+00 0. -1.
          3    1    5    5  503    0 -0.55746366271E+02 -0.50095760034E+01  0.20152975337E+02  0.59488617559E+02  0.00000000000E+00 0. -1.
         -4    1    5    5    0  503 -0.45567795485E+03  0.18670217900E+03  0.14918136836E+03  0.51454366466E+03  0.00000000000E+00 0.  1.
         -3    1    6    6    0  502 -0.95130246132E+01 -0.29075436607E+03  0.82645621215E+02  0.30242172166E+03  0.00000000000E+00 0.  1.
<mgrwt>
<rscale>  0 0.17035140E+04</rscale>
<asrwt>0</asrwt>
<pdfrwt beam="1">  1        1 0.16433268E+00 0.17035140E+04</pdfrwt>
<pdfrwt beam="2">  1       -1 0.10449145E+00 0.17035140E+04</pdfrwt>
<totfact> 0.10981374E+01</totfact>
</mgrwt>
</event>
<event>
12    1  0.1960998E-007  0.1583275E+04  0.7818608E-02  0.8830889E-01
         -2   -1    0    0    0  501 -0.00000000000E+00  0.00000000000E+00  0.27455462494E+03  0.27455462494E+03  0.00000000000E+00 0.  1.
          2   -1    0    0  501    0  0.00000000000E+00 -0.00000000000E+00 -0.22825684036E+04  0.22825684036E+04  0.00000000000E+00 0. -1.
         23    2    1    2    0    0 -0.53160768462E+03 -0.98536620918E+01 -0.73629386748E+03  0.91286972153E+03  0.92188091366E+02 0.  0.
        254    2    1    2    0    0  0.53160768462E+03  0.98536620918E+01 -0.12717199112E+04  0.16442533070E+04  0.89643381243E+03 0.  0.
        -24    2    4    4    0    0  0.28811672668E+03 -0.61675201239E+02  0.38017196964E+02  0.30778182895E+03  0.80431761943E+02 0.  0.
         24    2    4    4    0    0  0.24349095794E+03  0.71528863331E+02 -0.13097371081E+04  0.13364714780E+04  0.79627220841E+02 0.  0.
         11    1    3    3    0    0 -0.32650423490E+03  0.38787449308E+02 -0.45403380330E+03  0.56058556543E+03  0.00000000000E+00 0. -1.
        -11    1    3    3    0    0 -0.20510344972E+03 -0.48641111400E+02 -0.28226006418E+03  0.35228415610E+03  0.00000000000E+00 0.  1.
          4    1    6    6  502    0  0.16152399416E+03  0.42929091452E+02 -0.10331249311E+04  0.10465562722E+04  0.00000000000E+00 0. -1.
          1    1    5    5  503    0  0.29302458542E+03 -0.60243703214E+02  0.33616307006E+02  0.30103615653E+03  0.00000000000E+00 0. -1.
         -4    1    5    5    0  503 -0.49078587456E+01 -0.14314980249E+01  0.44008899583E+01  0.67456724266E+01  0.00000000000E+00 0.  1.
         -3    1    6    6    0  502  0.81966963783E+02  0.28599771878E+02 -0.27661217700E+03  0.28991520583E+03  0.00000000000E+00 0.  1.
<mgrwt>
<rscale>  0 0.15832747E+04</rscale>
<asrwt>0</asrwt>
<pdfrwt beam="1">  1        2 0.35116437E+00 0.15832747E+04</pdfrwt>
<pdfrwt beam="2">  1       -2 0.42239173E-01 0.15832747E+04</pdfrwt>
<totfact> 0.23684530E+01</totfact>
</mgrwt>
</event>
<event>
12    1  0.1960998E-007  0.1385168E+04  0.7818608E-02  0.8964626E-01
         -1   -1    0    0    0  501 -0.00000000000E+00  0.00000000000E+00  0.49342066440E+03  0.49342066440E+03  0.00000000000E+00 0.  1.
          1   -1    0    0  501    0  0.00000000000E+00 -0.00000000000E+00 -0.97213665313E+03  0.97213665313E+03  0.00000000000E+00 0. -1.
         23    2    1    2    0    0 -0.25476436759E+03  0.16005103362E+03 -0.40708519203E+03  0.51433643826E+03  0.91117516421E+02 0.  0.
        254    2    1    2    0    0  0.25476436759E+03 -0.16005103362E+03 -0.71630796696E+02  0.95122087927E+03  0.89953820029E+03 0.  0.
        -24    2    4    4    0    0 -0.37824631739E+02  0.13204071786E+02 -0.43686034365E+03  0.44600373195E+03  0.80419641742E+02 0.  0.
         24    2    4    4    0    0  0.29258899933E+03 -0.17325510540E+03  0.36522954696E+03  0.50521714733E+03  0.78905575883E+02 0.  0.
         13    1    3    3    0    0 -0.53805474799E+02  0.52905600808E+02 -0.49018841354E+02  0.89982656789E+02  0.00000000000E+00 0.  1.
        -13    1    3    3    0    0 -0.20095889279E+03  0.10714543281E+03 -0.35806635068E+03  0.42435378147E+03  0.00000000000E+00 0. -1.
          4    1    6    6  502    0  0.99025468046E+02 -0.57940140178E+02  0.72110325170E+02  0.13551015520E+03  0.00000000000E+00 0. -1.
          3    1    5    5  503    0 -0.39846689676E+01  0.43613040965E+02 -0.18955250183E+03  0.19454594799E+03  0.00000000000E+00 0. -1.
         -4    1    5    5    0  503 -0.33839962771E+02 -0.30408969179E+02 -0.24730784182E+03  0.25145778396E+03  0.00000000000E+00 0.  1.
         -3    1    6    6    0  502  0.19356353128E+03 -0.11531496523E+03  0.29311922179E+03  0.36970699213E+03  0.00000000000E+00 0.  1.
<mgrwt>
<rscale>  0 0.13851676E+04</rscale>
<asrwt>0</asrwt>
<pdfrwt beam="1">  1        1 0.14955948E+00 0.13851676E+04</pdfrwt>
<pdfrwt beam="2">  1       -1 0.75910873E-01 0.13851676E+04</pdfrwt>
<totfact> 0.27088856E+01</totfact>
</mgrwt>
</event>
<event>
12    1  0.1960998E-007  0.2376449E+04  0.7818608E-02  0.8448374E-01
          1   -1    0    0  501    0  0.00000000000E+00  0.00000000000E+00  0.86956631340E+03  0.86956631340E+03  0.00000000000E+00 0. -1.
         -1   -1    0    0    0  501 -0.00000000000E+00 -0.00000000000E+00 -0.16236571399E+04  0.16236571399E+04  0.00000000000E+00 0.  1.
         23    2    1    2    0    0 -0.84147652564E+03 -0.51009102382E+03 -0.59568863645E+02  0.99002889948E+03  0.91286233934E+02 0.  0.
        254    2    1    2    0    0  0.84147652564E+03  0.51009102382E+03 -0.69452196282E+03  0.15031945538E+04  0.89942065459E+03 0.  0.
        -24    2    4    4    0    0  0.36761572976E+03  0.33874884619E+03 -0.83284824950E+03  0.97465145827E+03  0.80107133529E+02 0.  0.
         24    2    4    4    0    0  0.47386079588E+03  0.17134217763E+03  0.13832628668E+03  0.52854309551E+03  0.79507524931E+02 0.  0.
         13    1    3    3    0    0 -0.67882214367E+03 -0.39538928895E+03 -0.13293431581E+02  0.78569008386E+03  0.00000000000E+00 0. -1.
        -13    1    3    3    0    0 -0.16265438197E+03 -0.11470173487E+03 -0.46275432064E+02  0.20433881562E+03  0.00000000000E+00 0.  1.
          2    1    6    6  502    0  0.39095221958E+03  0.11270862083E+03  0.12769144771E+03  0.42644105926E+03  0.00000000000E+00 0. -1.
          3    1    5    5  503    0  0.28766885467E+03  0.28847571733E+03 -0.72217340968E+03  0.82915984170E+03  0.00000000000E+00 0. -1.
         -4    1    5    5    0  503  0.79946875095E+02  0.50273128859E+02 -0.11067483982E+03  0.14549161657E+03  0.00000000000E+00 0.  1.
         -3    1    6    6    0  502  0.82908576300E+02  0.58633556804E+02  0.10634838974E+02  0.10210203626E+03  0.00000000000E+00 0.  1.
<mgrwt>
<rscale>  0 0.23764491E+04</rscale>
<asrwt>0</asrwt>
<pdfrwt beam="1">  1        1 0.13377943E+00 0.23764491E+04</pdfrwt>
<pdfrwt beam="2">  1       -1 0.24979341E+00 0.23764491E+04</pdfrwt>
<totfact> 0.12109478E+00</totfact>
</mgrwt>
</event>
<event>
12    1  0.1960998E-007  0.2141753E+04  0.7818608E-02  0.8543071E-01
          2   -1    0    0  501    0  0.00000000000E+00  0.00000000000E+00  0.58286984712E+03  0.58286984712E+03  0.00000000000E+00 0.  1.
         -2   -1    0    0    0  501 -0.00000000000E+00 -0.00000000000E+00 -0.19674659432E+04  0.19674659432E+04  0.00000000000E+00 0. -1.
         23    2    1    2    0    0 -0.12963372301E+03 -0.27824830504E+03  0.40954849444E+03  0.51964244509E+03  0.89840302965E+02 0.  0.
        254    2    1    2    0    0  0.12963372301E+03  0.27824830504E+03 -0.17941445905E+04  0.20306933452E+04  0.90029641187E+03 0.  0.
        -24    2    4    4    0    0 -0.31685721301E+03  0.11185799717E+03 -0.12777026114E+04  0.13235295606E+04  0.79346264742E+02 0.  0.
         24    2    4    4    0    0  0.44649093602E+03  0.16639030787E+03 -0.51644197910E+03  0.70716378457E+03  0.79551303723E+02 0.  0.
         13    1    3    3    0    0 -0.65676421323E+02 -0.68597440644E+02  0.81722521105E+02  0.12528995026E+03  0.00000000000E+00 0. -1.
        -13    1    3    3    0    0 -0.63957301692E+02 -0.20965086440E+03  0.32782597334E+03  0.39435249483E+03  0.00000000000E+00 0.  1.
          2    1    6    6  502    0  0.27978325511E+02 -0.45252488206E+00 -0.57960877617E+02  0.64361904970E+02  0.00000000000E+00 0. -1.
          1    1    5    5  503    0 -0.10110544911E+03  0.75492305267E+02 -0.44159727713E+03  0.45927067744E+03  0.00000000000E+00 0. -1.
         -2    1    5    5    0  503 -0.21575176390E+03  0.36365691901E+02 -0.83610533427E+03  0.86425888319E+03  0.00000000000E+00 0.  1.
         -1    1    6    6    0  502  0.41851261051E+03  0.16684283276E+03 -0.45848110148E+03  0.64280187960E+03  0.00000000000E+00 0.  1.
<mgrwt>
<rscale>  0 0.21417531E+04</rscale>
<asrwt>0</asrwt>
<pdfrwt beam="1">  1        2 0.89672281E-01 0.21417531E+04</pdfrwt>
<pdfrwt beam="2">  1       -2 0.30268708E+00 0.21417531E+04</pdfrwt>
<totfact> 0.14445841E+00</totfact>
</mgrwt>
</event>
<event>
12    1  0.1960998E-007  0.2781388E+04  0.7818608E-02  0.8309070E-01
          2   -1    0    0  501    0  0.00000000000E+00  0.00000000000E+00  0.45260433035E+04  0.45260433035E+04  0.00000000000E+00 0. -1.
         -2   -1    0    0    0  501 -0.00000000000E+00 -0.00000000000E+00 -0.42731133397E+03  0.42731133397E+03  0.00000000000E+00 0.  1.
         23    2    1    2    0    0 -0.90257695576E+03 -0.92450292260E+02  0.32332416199E+03  0.96709636028E+03  0.86859879863E+02 0.  0.
        254    2    1    2    0    0  0.90257695576E+03  0.92450292260E+02  0.37754078075E+04  0.39862582772E+04  0.90186402610E+03 0.  0.
        -24    2    4    4    0    0  0.68191258040E+03  0.35367026075E+03  0.15385001726E+04  0.17219079444E+04  0.88863756598E+02 0.  0.
         24    2    4    4    0    0  0.22066437536E+03 -0.26121996849E+03  0.22369076349E+04  0.22643503327E+04  0.81228220805E+02 0.  0.
         11    1    3    3    0    0 -0.36300258773E+03 -0.39675631666E+02  0.17554068895E+03  0.40516609918E+03  0.00000000000E+00 0. -1.
        -11    1    3    3    0    0 -0.53957436803E+03 -0.52774660594E+02  0.14778347304E+03  0.56193026110E+03  0.00000000000E+00 0.  1.
          2    1    6    6  502    0  0.40722613387E+02 -0.45748946821E+02  0.64298076418E+03  0.64589129153E+03  0.00000000000E+00 0. -1.
          1    1    5    5  503    0  0.10171045284E+03  0.46085166557E+02  0.29945717636E+03  0.31959890373E+03  0.00000000000E+00 0. -1.
         -2    1    5    5    0  503  0.58020212757E+03  0.30758509420E+03  0.12390429963E+04  0.14023090407E+04  0.00000000000E+00 0.  1.
         -1    1    6    6    0  502  0.17994176197E+03 -0.21547102167E+03  0.15939268707E+04  0.16184590412E+04  0.00000000000E+00 0.  1.
<mgrwt>
<rscale>  0 0.27813879E+04</rscale>
<asrwt>0</asrwt>
<pdfrwt beam="1">  1        2 0.69631432E+00 0.27813879E+04</pdfrwt>
<pdfrwt beam="2">  1       -2 0.65740208E-01 0.27813879E+04</pdfrwt>
<totfact> 0.21579137E-01</totfact>
</mgrwt>
</event>
<event>
12    1  0.1960998E-007  0.1775773E+04  0.7818608E-02  0.8719290E-01
         -2   -1    0    0    0  501 -0.00000000000E+00  0.00000000000E+00  0.35909236832E+03  0.35909236832E+03  0.00000000000E+00 0.  1.
          2   -1    0    0  501    0  0.00000000000E+00 -0.00000000000E+00 -0.21953760619E+04  0.21953760619E+04  0.00000000000E+00 0. -1.
         23    2    1    2    0    0 -0.54346178918E+03  0.36063097944E+03 -0.58231646481E+03  0.87976424229E+03  0.97402449592E+02 0.  0.
        254    2    1    2    0    0  0.54346178918E+03 -0.36063097944E+03 -0.12539672288E+04  0.16747041879E+04  0.89821761652E+03 0.  0.
        -24    2    4    4    0    0  0.73937690595E+03 -0.10644224060E+03 -0.10314154291E+04  0.12758555058E+04  0.77339023351E+02 0.  0.
         24    2    4    4    0    0 -0.19591511677E+03 -0.25418873884E+03 -0.22255179964E+03  0.39884868216E+03  0.80971104753E+02 0.  0.
         11    1    3    3    0    0 -0.39584281427E+03  0.22773520491E+03 -0.35897993960E+03  0.58087989654E+03  0.00000000000E+00 0. -1.
        -11    1    3    3    0    0 -0.14761897491E+03  0.13289577453E+03 -0.22333652521E+03  0.29888434575E+03  0.00000000000E+00 0.  1.
          4    1    6    6  502    0 -0.43135572095E+02 -0.94718122602E+02 -0.37188119340E+02  0.11052219935E+03  0.00000000000E+00 0. -1.
          3    1    5    5  503    0  0.14340266345E+03  0.93806199953E+01 -0.20786370639E+03  0.25270465043E+03  0.00000000000E+00 0. -1.
         -4    1    5    5    0  503  0.59597424250E+03 -0.11582286060E+03 -0.82355172272E+03  0.10231508553E+04  0.00000000000E+00 0.  1.
         -3    1    6    6    0  502 -0.15277954468E+03 -0.15947061624E+03 -0.18536368030E+03  0.28832648281E+03  0.00000000000E+00 0.  1.
<mgrwt>
<rscale>  0 0.17757734E+04</rscale>
<asrwt>0</asrwt>
<pdfrwt beam="1">  1        2 0.33775016E+00 0.17757734E+04</pdfrwt>
<pdfrwt beam="2">  1       -2 0.55244980E-01 0.17757734E+04</pdfrwt>
<totfact> 0.15141069E+01</totfact>
</mgrwt>
</event>
<event>
12    1  0.1960998E-007  0.3290694E+04  0.7818608E-02  0.8165267E-01
          1   -1    0    0  501    0  0.00000000000E+00  0.00000000000E+00  0.27709795517E+04  0.27709795517E+04  0.00000000000E+00 0.  1.
         -1   -1    0    0    0  501 -0.00000000000E+00 -0.00000000000E+00 -0.97697081289E+03  0.97697081289E+03  0.00000000000E+00 0. -1.
         23    2    1    2    0    0 -0.14994790893E+04  0.99572554780E+02  0.11019318756E+04  0.18656587082E+04  0.89868370257E+02 0.  0.
        254    2    1    2    0    0  0.14994790893E+04 -0.99572554780E+02  0.69207686322E+03  0.18822916565E+04  0.89760752137E+03 0.  0.
        -24    2    4    4    0    0 -0.46871464868E+02  0.41406415098E+01 -0.10357746523E+03  0.13842221984E+03  0.78856455094E+02 0.  0.
         24    2    4    4    0    0  0.15463505542E+04 -0.10371319629E+03  0.79565432845E+03  0.17438694366E+04  0.77835326810E+02 0.  0.
         13    1    3    3    0    0 -0.82265410544E+03  0.90566780021E+02  0.63918589795E+03  0.10457154159E+04  0.00000000000E+00 0.  1.
        -13    1    3    3    0    0 -0.67682498386E+03  0.90057747588E+01  0.46274597769E+03  0.81994329232E+03  0.00000000000E+00 0. -1.
          2    1    6    6  502    0  0.94652573406E+03 -0.78463180286E+02  0.52647277932E+03  0.10859286456E+04  0.00000000000E+00 0. -1.
          1    1    5    5  503    0  0.51582107577E+00  0.16011451041E+02 -0.84455746164E+02  0.85961652473E+02  0.00000000000E+00 0. -1.
         -2    1    5    5    0  503 -0.47387285944E+02 -0.11870809531E+02 -0.19121719066E+02  0.52460567363E+02  0.00000000000E+00 0.  1.
         -1    1    6    6    0  502  0.59982482011E+03 -0.25250016004E+02  0.26918154913E+03  0.65794079105E+03  0.00000000000E+00 0.  1.
<mgrwt>
<rscale>  0 0.32906936E+04</rscale>
<asrwt>0</asrwt>
<pdfrwt beam="1">  1        1 0.42630454E+00 0.32906936E+04</pdfrwt>
<pdfrwt beam="2">  1       -1 0.15030320E+00 0.32906936E+04</pdfrwt>
<totfact> 0.25166909E-01</totfact>
</mgrwt>
</event>
<event>
12    1  0.1960998E-007  0.1472419E+04  0.7818608E-02  0.8903004E-01
          1   -1    0    0  501    0  0.00000000000E+00  0.00000000000E+00  0.10117145772E+04  0.10117145772E+04  0.00000000000E+00 0. -1.
         -1   -1    0    0    0  501 -0.00000000000E+00 -0.00000000000E+00 -0.53572847827E+03  0.53572847827E+03  0.00000000000E+00 0.  1.
         23    2    1    2    0    0 -0.14574893108E+03 -0.42977233429E+03  0.15698241369E+03  0.48891891449E+03  0.91930498260E+02 0.  0.
        254    2    1    2    0    0  0.14574893108E+03  0.42977233429E+03  0.31900368523E+03  0.10585241410E+04  0.90153369075E+03 0.  0.
        -24    2    4    4    0    0  0.43187712690E+03 -0.27996032645E+02  0.29941113721E+02  0.44110731419E+03  0.79859637888E+02 0.  0.
         24    2    4    4    0    0 -0.28612819582E+03  0.45776836693E+03  0.28906257151E+03  0.61741682676E+03  0.78899591346E+02 0.  0.
         11    1    3    3    0    0 -0.10080206937E+03 -0.20353778281E+03  0.41214625337E+02  0.23084048944E+03  0.00000000000E+00 0.  1.
        -11    1    3    3    0    0 -0.44946861707E+02 -0.22623455148E+03  0.11576778835E+03  0.25807842506E+03  0.00000000000E+00 0. -1.
          2    1    6    6  502    0 -0.28839378596E+03  0.45932325621E+03  0.28547759613E+03  0.61289989996E+03  0.00000000000E+00 0. -1.
          1    1    5    5  503    0  0.36728480589E+03 -0.70641220767E+01  0.48944243658E+02  0.37059893342E+03  0.00000000000E+00 0. -1.
         -2    1    5    5    0  503  0.64592321002E+02 -0.20931910568E+02 -0.19003129937E+02  0.70508380778E+02  0.00000000000E+00 0.  1.
         -1    1    6    6    0  502  0.22655901389E+01 -0.15548892744E+01  0.35849753738E+01  0.45169268052E+01  0.00000000000E+00 0.  1.
<mgrwt>
<rscale>  0 0.14724188E+04</rscale>
<asrwt>0</asrwt>
<pdfrwt beam="1">  1        1 0.15564840E+00 0.14724188E+04</pdfrwt>
<pdfrwt beam="2">  1       -1 0.82419766E-01 0.14724188E+04</pdfrwt>
<totfact> 0.21025114E+01</totfact>
</mgrwt>
</event>
<event>
12    1  0.1960998E-007  0.1504819E+04  0.7818608E-02  0.8881255E-01
         -2   -1    0    0    0  501 -0.00000000000E+00  0.00000000000E+00  0.30562395243E+03  0.30562395243E+03  0.00000000000E+00 0.  1.
          2   -1    0    0  501    0  0.00000000000E+00 -0.00000000000E+00 -0.18523409070E+04  0.18523409070E+04  0.00000000000E+00 0. -1.
         23    2    1    2    0    0 -0.36444597404E+03 -0.29087240984E+03 -0.65029613948E+03  0.80517404936E+03  0.89401084719E+02 0.  0.
        254    2    1    2    0    0  0.36444597404E+03  0.29087240984E+03 -0.89642081510E+03  0.13527908101E+04  0.89946932760E+03 0.  0.
        -24    2    4    4    0    0  0.47869937989E+03  0.31803612111E+03 -0.10142275672E+04  0.11685040226E+04  0.80274667119E+02 0.  0.
         24    2    4    4    0    0 -0.11425340585E+03 -0.27163711268E+02  0.11780675210E+03  0.18428678746E+03  0.79318857994E+02 0.  0.
         11    1    3    3    0    0 -0.11249763780E+03 -0.12532872069E+03 -0.17957043610E+03  0.24618803436E+03  0.00000000000E+00 0.  1.
        -11    1    3    3    0    0 -0.25194833623E+03 -0.16554368915E+03 -0.47072570337E+03  0.55898601500E+03  0.00000000000E+00 0. -1.
          4    1    6    6  502    0 -0.12194044274E+03 -0.26188177645E+02  0.12283187282E+03  0.17505131020E+03  0.00000000000E+00 0. -1.
          3    1    5    5  503    0  0.36870143299E+03  0.25312687702E+03 -0.84980465358E+03  0.96030303124E+03  0.00000000000E+00 0. -1.
         -4    1    5    5    0  503  0.10999794690E+03  0.64909244090E+02 -0.16442291362E+03  0.20820099138E+03  0.00000000000E+00 0.  1.
         -3    1    6    6    0  502  0.76870368845E+01 -0.97553362283E+00 -0.50251207209E+01  0.92354772575E+01  0.00000000000E+00 0.  1.
<mgrwt>
<rscale>  0 0.15048186E+04</rscale>
<asrwt>0</asrwt>
<pdfrwt beam="1">  1        2 0.28497553E+00 0.15048186E+04</pdfrwt>
<pdfrwt beam="2">  1       -2 0.47019069E-01 0.15048186E+04</pdfrwt>
<totfact> 0.33421737E+01</totfact>
</mgrwt>
</event>
<event>
12    1  0.1960998E-007  0.1693939E+04  0.7818608E-02  0.8764829E-01
         -2   -1    0    0    0  501 -0.00000000000E+00  0.00000000000E+00  0.40182663219E+03  0.40182663219E+03  0.00000000000E+00 0.  1.
          2   -1    0    0  501    0  0.00000000000E+00 -0.00000000000E+00 -0.17852403302E+04  0.17852403302E+04  0.00000000000E+00 0. -1.
         23    2    1    2    0    0  0.26266890216E+03  0.49766492577E+02  0.19975008347E+03  0.34548210108E+03  0.89365151864E+02 0.  0.
        254    2    1    2    0    0 -0.26266890216E+03 -0.49766492577E+02 -0.15831637815E+04  0.18415848613E+04  0.90197316283E+03 0.  0.
        -24    2    4    4    0    0 -0.13418672926E+02  0.27419932106E+03 -0.10421069701E+03  0.30484875239E+03  0.81899719245E+02 0.  0.
         24    2    4    4    0    0 -0.24925022924E+03 -0.32396581364E+03 -0.14789530845E+04  0.15367361089E+04  0.84711966029E+02 0.  0.
         13    1    3    3    0    0  0.11364680100E+03  0.33969943094E+02  0.37009999225E+02  0.12425494941E+03  0.00000000000E+00 0. -1.
        -13    1    3    3    0    0  0.14902210117E+03  0.15796549483E+02  0.16274008425E+03  0.22122715166E+03  0.00000000000E+00 0.  1.
          4    1    6    6  502    0 -0.21622443122E+03 -0.22636316401E+03 -0.10566726741E+04  0.11020664349E+04  0.00000000000E+00 0. -1.
          3    1    5    5  503    0  0.18581911561E+02  0.21286774771E+03 -0.98934691316E+02  0.23546982524E+03  0.00000000000E+00 0. -1.
         -4    1    5    5    0  503 -0.32000584486E+02  0.61331573345E+02 -0.52760056921E+01  0.69378927151E+02  0.00000000000E+00 0.  1.
         -3    1    6    6    0  502 -0.33025798015E+02 -0.97602649623E+02 -0.42228041038E+03  0.43466967405E+03  0.00000000000E+00 0.  1.
<mgrwt>
<rscale>  0 0.16939387E+04</rscale>
<asrwt>0</asrwt>
<pdfrwt beam="1">  1        2 0.27465236E+00 0.16939387E+04</pdfrwt>
<pdfrwt beam="2">  1       -2 0.61819482E-01 0.16939387E+04</pdfrwt>
<totfact> 0.20346088E+01</totfact>
</mgrwt>
</event>
<event>
12    1  0.1960998E-007  0.1407152E+04  0.7818608E-02  0.8948658E-01
         -1   -1    0    0    0  501 -0.00000000000E+00  0.00000000000E+00  0.79232409093E+03  0.79232409093E+03  0.00000000000E+00 0.  1.
          1   -1    0    0  501    0  0.00000000000E+00 -0.00000000000E+00 -0.62476818213E+03  0.62476818213E+03  0.00000000000E+00 0. -1.
         23    2    1    2    0    0 -0.62349866431E+02  0.34046836383E+03  0.26526492258E+03  0.44403651076E+03  0.83646465101E+02 0.  0.
        254    2    1    2    0    0  0.62349866431E+02 -0.34046836383E+03 -0.97709013782E+02  0.97305576231E+03  0.90414835762E+03 0.  0.
        -24    2    4    4    0    0  0.46871660429E+03 -0.21433430516E+03  0.28647850814E+02  0.52164111820E+03  0.75195128372E+02 0.  0.
         24    2    4    4    0    0 -0.40636673786E+03 -0.12613405867E+03 -0.12635686460E+03  0.45141464412E+03  0.82252035215E+02 0.  0.
         11    1    3    3    0    0 -0.23991547968E+02  0.12023299810E+03  0.46128886259E+02  0.13099405465E+03  0.00000000000E+00 0. -1.
        -11    1    3    3    0    0 -0.38358318463E+02  0.22023536573E+03  0.21913603632E+03  0.31304245611E+03  0.00000000000E+00 0.  1.
          4    1    6    6  502    0 -0.40952447852E+03 -0.12193171695E+03 -0.12774475554E+03  0.44597798675E+03  0.00000000000E+00 0. -1.
          3    1    5    5  503    0  0.32363912502E+03 -0.14487899527E+03  0.54433351418E+02  0.35874112708E+03  0.00000000000E+00 0. -1.
         -4    1    5    5    0  503  0.14507747927E+03 -0.69455309885E+02 -0.25785500604E+02  0.16289999111E+03  0.00000000000E+00 0.  1.
         -3    1    6    6    0  502  0.31577406559E+01 -0.42023417207E+01  0.13878909458E+01  0.54366573614E+01  0.00000000000E+00 0.  1.
<mgrwt>
<rscale>  0 0.14071516E+04</rscale>
<asrwt>0</asrwt>
<pdfrwt beam="1">  1        1 0.96118182E-01 0.14071516E+04</pdfrwt>
<pdfrwt beam="2">  1       -1 0.12189601E+00 0.14071516E+04</pdfrwt>
<totfact> 0.18748650E+01</totfact>
</mgrwt>
</event>
<event>
12    1  0.1960998E-007  0.1842514E+04  0.7818608E-02  0.8684012E-01
         -1   -1    0    0    0  501 -0.00000000000E+00  0.00000000000E+00  0.28298444710E+03  0.28298444710E+03  0.00000000000E+00 0.  1.
          1   -1    0    0  501    0  0.00000000000E+00 -0.00000000000E+00 -0.29991554549E+04  0.29991554549E+04  0.00000000000E+00 0. -1.
         23    2    1    2    0    0  0.15563683683E+02  0.69779579348E+03 -0.10392573831E+04  0.12551832551E+04  0.90927982106E+02 0.  0.
        254    2    1    2    0    0 -0.15563683683E+02 -0.69779579348E+03 -0.16769136247E+04  0.20269566468E+04  0.89964034256E+03 0.  0.
        -24    2    4    4    0    0  0.26298417918E+03 -0.56660372830E+03 -0.15696448469E+04  0.16913342954E+04  0.81402028367E+02 0.  0.
         24    2    4    4    0    0 -0.27854786286E+03 -0.13119206518E+03 -0.10726877779E+03  0.33562235140E+03  0.79595867968E+02 0.  0.
         13    1    3    3    0    0  0.24630615837E+02  0.36160357893E+03 -0.61422072409E+03  0.71318364636E+03  0.00000000000E+00 0. -1.
        -13    1    3    3    0    0 -0.90669321540E+01  0.33619221455E+03 -0.42503665900E+03  0.54199960875E+03  0.00000000000E+00 0.  1.
          2    1    6    6  502    0 -0.14977647748E+03 -0.68370059625E+02 -0.15268587078E+02  0.16534989571E+03  0.00000000000E+00 0. -1.
          3    1    5    5  503    0  0.11277436791E+03 -0.31650624619E+03 -0.91029404871E+03  0.97032443907E+03  0.00000000000E+00 0. -1.
         -4    1    5    5    0  503  0.15020981127E+03 -0.25009748211E+03 -0.65935079816E+03  0.72100985638E+03  0.00000000000E+00 0.  1.
         -1    1    6    6    0  502 -0.12877138538E+03 -0.62822005559E+02 -0.92000190713E+02  0.17027245569E+03  0.00000000000E+00 0.  1.
<mgrwt>
<rscale>  0 0.18425139E+04</rscale>
<asrwt>0</asrwt>
<pdfrwt beam="1">  1        1 0.46140854E+00 0.18425139E+04</pdfrwt>
<pdfrwt beam="2">  1       -1 0.43536068E-01 0.18425139E+04</pdfrwt>
<totfact> 0.29398333E+00</totfact>
</mgrwt>
</event>
<event>
12    1  0.1960998E-007  0.1995501E+04  0.7818608E-02  0.8608727E-01
          2   -1    0    0  501    0  0.00000000000E+00  0.00000000000E+00  0.14893169649E+04  0.14893169649E+04  0.00000000000E+00 0. -1.
         -2   -1    0    0    0  501 -0.00000000000E+00 -0.00000000000E+00 -0.66843096581E+03  0.66843096581E+03  0.00000000000E+00 0.  1.
         23    2    1    2    0    0  0.51990931943E+03  0.55188157412E+03  0.57606786030E+03  0.95648286268E+03  0.90146073933E+02 0.  0.
        254    2    1    2    0    0 -0.51990931943E+03 -0.55188157412E+03  0.24481813884E+03  0.12012650681E+04  0.89901216365E+03 0.  0.
        -24    2    4    4    0    0 -0.13501969962E+03 -0.44582983058E+03  0.52533482647E+03  0.70687381431E+03  0.81849571361E+02 0.  0.
         24    2    4    4    0    0 -0.38488961981E+03 -0.10605174354E+03 -0.28051668763E+03  0.49439125377E+03  0.79662463067E+02 0.  0.
         13    1    3    3    0    0  0.48279620124E+03  0.48119031736E+03  0.49280981794E+03  0.84112889031E+03  0.00000000000E+00 0. -1.
        -13    1    3    3    0    0  0.37113118187E+02  0.70691256753E+02  0.83258042361E+02  0.11535397237E+03  0.00000000000E+00 0.  1.
          2    1    6    6  502    0 -0.38484053602E+02 -0.35204977626E+02 -0.50378649742E+02  0.72514972117E+02  0.00000000000E+00 0. -1.
          1    1    5    5  503    0  0.11870685736E+01 -0.50310520181E+01  0.28087372495E+02  0.28559081040E+02  0.00000000000E+00 0. -1.
         -2    1    5    5    0  503 -0.13620676820E+03 -0.44079877856E+03  0.49724745397E+03  0.67831473327E+03  0.00000000000E+00 0.  1.
         -1    1    6    6    0  502 -0.34640556620E+03 -0.70846765910E+02 -0.23013803789E+03  0.42187628165E+03  0.00000000000E+00 0.  1.
<mgrwt>
<rscale>  0 0.19955005E+04</rscale>
<asrwt>0</asrwt>
<pdfrwt beam="1">  1        2 0.22912569E+00 0.19955005E+04</pdfrwt>
<pdfrwt beam="2">  1       -2 0.10283553E+00 0.19955005E+04</pdfrwt>
<totfact> 0.92451859E+00</totfact>
</mgrwt>
</event>
<event>
12    1  0.1960998E-007  0.2097284E+04  0.7818608E-02  0.8562441E-01
          2   -1    0    0  501    0  0.00000000000E+00  0.00000000000E+00  0.64038581517E+03  0.64038581517E+03  0.00000000000E+00 0. -1.
         -2   -1    0    0    0  501 -0.00000000000E+00 -0.00000000000E+00 -0.17171677984E+04  0.17171677984E+04  0.00000000000E+00 0.  1.
         23    2    1    2    0    0 -0.91171214579E+02 -0.85223977636E+03 -0.42886443023E+03  0.96274719836E+03  0.91283304335E+02 0.  0.
        254    2    1    2    0    0  0.91171214579E+02  0.85223977636E+03 -0.64791755300E+03  0.13948064152E+04  0.88941719888E+03 0.  0.
        -24    2    4    4    0    0 -0.38005630731E+03  0.30457151101E+03 -0.36895503649E+03  0.61634415104E+03  0.80905448036E+02 0.  0.
         24    2    4    4    0    0  0.47122752189E+03  0.54766826535E+03 -0.27896251651E+03  0.77846226418E+03  0.78660694621E+02 0.  0.
         13    1    3    3    0    0 -0.19521444094E+02 -0.16359616262E+03 -0.43662797099E+02  0.17044421684E+03  0.00000000000E+00 0. -1.
        -13    1    3    3    0    0 -0.71649770485E+02 -0.68864361374E+03 -0.38520163313E+03  0.79230298152E+03  0.00000000000E+00 0.  1.
          2    1    6    6  502    0  0.13171005325E+03  0.17925471500E+03 -0.12059882780E+03  0.25302938217E+03  0.00000000000E+00 0. -1.
          3    1    5    5  503    0  0.40772951885E+01  0.56902964005E+01 -0.53308545417E+01  0.87989669464E+01  0.00000000000E+00 0. -1.
         -2    1    5    5    0  503 -0.38413360250E+03  0.29888121461E+03 -0.36362418194E+03  0.60754518409E+03  0.00000000000E+00 0.  1.
         -1    1    6    6    0  502  0.33951746864E+03  0.36841355035E+03 -0.15836368872E+03  0.52543288201E+03  0.00000000000E+00 0.  1.
<mgrwt>
<rscale>  0 0.20972839E+04</rscale>
<asrwt>0</asrwt>
<pdfrwt beam="1">  1        2 0.98520896E-01 0.20972839E+04</pdfrwt>
<pdfrwt beam="2">  1       -2 0.26417966E+00 0.20972839E+04</pdfrwt>
<totfact> 0.22207224E+00</totfact>
</mgrwt>
</event>
<event>
12    1  0.1960998E-007  0.2064657E+04  0.7818608E-02  0.8576974E-01
          1   -1    0    0  501    0  0.00000000000E+00  0.00000000000E+00  0.19431436766E+04  0.19431436766E+04  0.00000000000E+00 0. -1.
         -1   -1    0    0    0  501 -0.00000000000E+00 -0.00000000000E+00 -0.54844239366E+03  0.54844239366E+03  0.00000000000E+00 0.  1.
         23    2    1    2    0    0 -0.25685966256E+03 -0.71900686223E+03  0.99755373884E+03  0.12593928443E+04  0.89493688856E+02 0.  0.
        254    2    1    2    0    0  0.25685966256E+03  0.71900686223E+03  0.39714754414E+03  0.12321932260E+04  0.88183117437E+03 0.  0.
        -24    2    4    4    0    0  0.46142121799E+03  0.31776554716E+03 -0.79491826943E+02  0.57154684236E+03  0.80388799480E+02 0.  0.
         24    2    4    4    0    0 -0.20456155544E+03  0.40124131507E+03  0.47663937109E+03  0.66064638360E+03  0.80178121768E+02 0.  0.
         11    1    3    3    0    0 -0.21850022251E+03 -0.60398161254E+03  0.78082206316E+03  0.10110485794E+04  0.00000000000E+00 0.  1.
        -11    1    3    3    0    0 -0.38359440045E+02 -0.11502524969E+03  0.21673167568E+03  0.24834426498E+03  0.00000000000E+00 0. -1.
          2    1    6    6  502    0 -0.90050294967E+02  0.22544852538E+03  0.30336222087E+03  0.38854179990E+03  0.00000000000E+00 0. -1.
          3    1    5    5  503    0  0.38007710954E+03  0.22157042824E+03 -0.65497078361E+02  0.44479425709E+03  0.00000000000E+00 0. -1.
         -4    1    5    5    0  503  0.81344108453E+02  0.96195118919E+02 -0.13994748582E+02  0.12675258527E+03  0.00000000000E+00 0.  1.
         -1    1    6    6    0  502 -0.11451126047E+03  0.17579278970E+03  0.17327715021E+03  0.27210458370E+03  0.00000000000E+00 0.  1.
<mgrwt>
<rscale>  0 0.20646572E+04</rscale>
<asrwt>0</asrwt>
<pdfrwt beam="1">  1        1 0.29894518E+00 0.20646572E+04</pdfrwt>
<pdfrwt beam="2">  1       -1 0.84375754E-01 0.20646572E+04</pdfrwt>
<totfact> 0.41792274E+00</totfact>
</mgrwt>
</event>
<event>
12    1  0.1960998E-007  0.3870971E+04  0.7818608E-02  0.8031094E-01
         -2   -1    0    0    0  501 -0.00000000000E+00  0.00000000000E+00  0.10687468977E+04  0.10687468977E+04  0.00000000000E+00 0.  1.
          2   -1    0    0  501    0  0.00000000000E+00 -0.00000000000E+00 -0.35051364362E+04  0.35051364362E+04  0.00000000000E+00 0. -1.
         23    2    1    2    0    0 -0.40580372552E+03 -0.17606295827E+04 -0.80548730010E+03  0.19802893260E+04  0.90790048620E+02 0.  0.
        254    2    1    2    0    0  0.40580372552E+03  0.17606295827E+04 -0.16309022384E+04  0.25935940079E+04  0.89576479913E+03 0.  0.
        -24    2    4    4    0    0 -0.29641564846E+02  0.10755379634E+03 -0.55608473751E+03  0.57272771812E+03  0.79626392264E+02 0.  0.
         24    2    4    4    0    0  0.43544529036E+03  0.16530757864E+04 -0.10748175009E+04  0.20208662898E+04  0.79973398602E+02 0.  0.
         11    1    3    3    0    0 -0.15964639328E+03 -0.82937688997E+03 -0.33990133868E+03  0.91043171987E+03  0.00000000000E+00 0.  1.
        -11    1    3    3    0    0 -0.24615733224E+03 -0.93125269276E+03 -0.46558596142E+03  0.10698576062E+04  0.00000000000E+00 0. -1.
          4    1    6    6  502    0  0.35564272588E+03  0.13443932377E+04 -0.91039110392E+03  0.16621332342E+04  0.00000000000E+00 0. -1.
          1    1    5    5  503    0 -0.36066262076E+02  0.54864176036E+02 -0.44259507702E+03  0.44743854916E+03  0.00000000000E+00 0. -1.
         -2    1    5    5    0  503  0.64246972303E+01  0.52689620299E+02 -0.11348966049E+03  0.12528916896E+03  0.00000000000E+00 0.  1.
         -3    1    6    6    0  502  0.79802564481E+02  0.30868254870E+03 -0.16442639701E+03  0.35873305563E+03  0.00000000000E+00 0.  1.
<mgrwt>
<rscale>  0 0.38709708E+04</rscale>
<asrwt>0</asrwt>
<pdfrwt beam="1">  1        2 0.53925176E+00 0.38709708E+04</pdfrwt>
<pdfrwt beam="2">  1       -2 0.16442260E+00 0.38709708E+04</pdfrwt>
<totfact> 0.14997383E-01</totfact>
</mgrwt>
</event>
<event>
12    1  0.1960998E-007  0.1022524E+04  0.7818608E-02  0.9284180E-01
          1   -1    0    0  501    0  0.00000000000E+00  0.00000000000E+00  0.46438803575E+03  0.46438803575E+03  0.00000000000E+00 0. -1.
         -1   -1    0    0    0  501 -0.00000000000E+00 -0.00000000000E+00 -0.56286705380E+03  0.56286705380E+03  0.00000000000E+00 0.  1.
         23    2    1    2    0    0 -0.17472605323E+02  0.18284027776E+02 -0.80732972483E+02  0.12370396253E+03  0.90251093567E+02 0.  0.
        254    2    1    2    0    0  0.17472605323E+02 -0.18284027776E+02 -0.17746045561E+02  0.90355112702E+03  0.90302276793E+03 0.  0.
        -24    2    4    4    0    0 -0.31895184595E+03 -0.11795205813E+03  0.27060570737E+03  0.44238542758E+03  0.82670730167E+02 0.  0.
         24    2    4    4    0    0  0.33642445127E+03  0.99668030352E+02 -0.28835175293E+03  0.46116569944E+03  0.80074597931E+02 0.  0.
         13    1    3    3    0    0 -0.29946014932E+02  0.19161652961E+02  0.60170183339E+01  0.36057416216E+02  0.00000000000E+00 0. -1.
        -13    1    3    3    0    0  0.12473409610E+02 -0.87762518434E+00 -0.86749990817E+02  0.87646546310E+02  0.00000000000E+00 0.  1.
          2    1    6    6  502    0  0.30380688208E+03  0.92377665801E+02 -0.22382524068E+03  0.38849709536E+03  0.00000000000E+00 0. -1.
          1    1    5    5  503    0 -0.28755139145E+03 -0.85591143268E+02  0.25765425883E+03  0.39547106547E+03  0.00000000000E+00 0. -1.
         -2    1    5    5    0  503 -0.31400454498E+02 -0.32360914860E+02  0.12951448542E+02  0.46914362115E+02  0.00000000000E+00 0.  1.
         -1    1    6    6    0  502  0.32617569189E+02  0.72903645504E+01 -0.64526512255E+02  0.72668604080E+02  0.00000000000E+00 0.  1.
<mgrwt>
<rscale>  0 0.10225238E+04</rscale>
<asrwt>0</asrwt>
<pdfrwt beam="1">  1        1 0.71444313E-01 0.10225238E+04</pdfrwt>
<pdfrwt beam="2">  1       -1 0.86594931E-01 0.10225238E+04</pdfrwt>
<totfact> 0.64623475E+01</totfact>
</mgrwt>
</event>
<event>
12    1  0.1960998E-007  0.1224818E+04  0.7818608E-02  0.9091406E-01
         -1   -1    0    0    0  501 -0.00000000000E+00  0.00000000000E+00  0.80447676082E+03  0.80447676082E+03  0.00000000000E+00 0.  1.
          1   -1    0    0  501    0  0.00000000000E+00 -0.00000000000E+00 -0.46619741725E+03  0.46619741725E+03  0.00000000000E+00 0. -1.
         23    2    1    2    0    0  0.15771110700E+03  0.19184564385E+03 -0.32124093713E+02  0.26648103658E+03  0.91118829679E+02 0.  0.
        254    2    1    2    0    0 -0.15771110700E+03 -0.19184564385E+03  0.37040343728E+03  0.10041931415E+04  0.89973752548E+03 0.  0.
        -24    2    4    4    0    0 -0.12047845855E+03 -0.13805820070E+03  0.66391110429E+03  0.69307822039E+03  0.77487672764E+02 0.  0.
         24    2    4    4    0    0 -0.37232648451E+02 -0.53787443147E+02 -0.29350766701E+03  0.31111492111E+03  0.79789625846E+02 0.  0.
         11    1    3    3    0    0  0.10553783589E+01  0.23715974555E+02  0.19769612526E+02  0.30893346404E+02  0.00000000000E+00 0.  1.
        -11    1    3    3    0    0  0.15665572864E+03  0.16812966929E+03 -0.51893706238E+02  0.23558769017E+03  0.00000000000E+00 0. -1.
          4    1    6    6  502    0 -0.52066637699E+02 -0.61402552696E+02 -0.27332789817E+03  0.28493744605E+03  0.00000000000E+00 0. -1.
          3    1    5    5  503    0 -0.28259937623E+02 -0.37150262144E+02  0.31334777072E+03  0.31680528952E+03  0.00000000000E+00 0. -1.
         -4    1    5    5    0  503 -0.92218520930E+02 -0.10090793856E+03  0.35056333356E+03  0.37627293087E+03  0.00000000000E+00 0.  1.
         -3    1    6    6    0  502  0.14833989247E+02  0.76151095498E+01 -0.20179768834E+02  0.26177475062E+02  0.00000000000E+00 0.  1.
<mgrwt>
<rscale>  0 0.12248183E+04</rscale>
<asrwt>0</asrwt>
<pdfrwt beam="1">  1        1 0.71722680E-01 0.12248183E+04</pdfrwt>
<pdfrwt beam="2">  1       -1 0.12376566E+00 0.12248183E+04</pdfrwt>
<totfact> 0.27664106E+01</totfact>
</mgrwt>
</event>
<event>
12    1  0.1960998E-007  0.2254232E+04  0.7818608E-02  0.8496188E-01
         -2   -1    0    0    0  501 -0.00000000000E+00  0.00000000000E+00  0.30800550031E+03  0.30800550031E+03  0.00000000000E+00 0.  1.
          2   -1    0    0  501    0  0.00000000000E+00 -0.00000000000E+00 -0.41245721832E+04  0.41245721832E+04  0.00000000000E+00 0. -1.
         23    2    1    2    0    0 -0.51020857420E+03 -0.50256611564E+03 -0.28237703119E+04  0.29145539361E+04  0.89779634903E+02 0.  0.
        254    2    1    2    0    0  0.51020857420E+03  0.50256611564E+03 -0.99279637108E+03  0.15180237474E+04  0.89770038068E+03 0.  0.
        -24    2    4    4    0    0  0.53996612771E+03  0.57371166865E+03 -0.11055783748E+04  0.13599081558E+04  0.79612509899E+02 0.  0.
         24    2    4    4    0    0 -0.29757553505E+02 -0.71145553006E+02  0.11278200369E+03  0.15811559157E+03  0.79583655585E+02 0.  0.
         11    1    3    3    0    0 -0.40117091569E+03 -0.44176079317E+03 -0.23597997512E+04  0.24340800249E+04  0.00000000000E+00 0.  1.
        -11    1    3    3    0    0 -0.10903765851E+03 -0.60805322472E+02 -0.46397056068E+03  0.48047391125E+03  0.00000000000E+00 0. -1.
          4    1    6    6  502    0  0.77506925806E+01 -0.72813282062E+02  0.76756384877E+02  0.10608199611E+03  0.00000000000E+00 0. -1.
          3    1    5    5  503    0  0.36309198454E+03  0.43170542748E+03 -0.75799724872E+03  0.94486252673E+03  0.00000000000E+00 0. -1.
         -4    1    5    5    0  503  0.17687414316E+03  0.14200624117E+03 -0.34758112606E+03  0.41504562911E+03  0.00000000000E+00 0.  1.
         -3    1    6    6    0  502 -0.37508246086E+02  0.16677290566E+01  0.36025618817E+02  0.52033595453E+02  0.00000000000E+00 0.  1.
<mgrwt>
<rscale>  0 0.22542324E+04</rscale>
<asrwt>0</asrwt>
<pdfrwt beam="1">  1        2 0.63454953E+00 0.22542324E+04</pdfrwt>
<pdfrwt beam="2">  1       -2 0.47385464E-01 0.22542324E+04</pdfrwt>
<totfact> 0.10440795E+00</totfact>
</mgrwt>
</event>
<event>
12    1  0.1960998E-007  0.1775273E+04  0.7818608E-02  0.8719561E-01
         -2   -1    0    0    0  501 -0.00000000000E+00  0.00000000000E+00  0.10381934029E+04  0.10381934029E+04  0.00000000000E+00 0. -1.
          2   -1    0    0  501    0  0.00000000000E+00 -0.00000000000E+00 -0.75891301534E+03  0.75891301534E+03  0.00000000000E+00 0.  1.
         23    2    1    2    0    0 -0.43155684171E+03  0.36764912050E+03 -0.22873953387E+03  0.61814128383E+03  0.91486004363E+02 0.  0.
        254    2    1    2    0    0  0.43155684171E+03 -0.36764912050E+03  0.50801992147E+03  0.11789651344E+04  0.90025960933E+03 0.  0.
        -24    2    4    4    0    0  0.27144555921E+03  0.20191376238E+03  0.46530103348E+03  0.58081250837E+03  0.79914073031E+02 0.  0.
         24    2    4    4    0    0  0.16011128250E+03 -0.56956288287E+03  0.42718887996E+02  0.59815262608E+03  0.76968567366E+02 0.  0.
         13    1    3    3    0    0 -0.97663525922E+02  0.94357940335E+02 -0.97397459708E+02  0.16711627795E+03  0.00000000000E+00 0.  1.
        -13    1    3    3    0    0 -0.33389331579E+03  0.27329118016E+03 -0.13134207416E+03  0.45102500588E+03  0.00000000000E+00 0. -1.
          4    1    6    6  502    0  0.64660186200E+02 -0.27596193659E+03 -0.16015934286E+02  0.28388807702E+03  0.00000000000E+00 0. -1.
          1    1    5    5  503    0  0.15748947165E+02  0.19187950096E+02  0.79057814379E+02  0.82863410381E+02  0.00000000000E+00 0. -1.
         -2    1    5    5    0  503  0.25569661204E+03  0.18272581228E+03  0.38624321910E+03  0.49794909799E+03  0.00000000000E+00 0.  1.
         -3    1    6    6    0  502  0.95451096302E+02 -0.29360094629E+03  0.58734822283E+02  0.31426454906E+03  0.00000000000E+00 0.  1.
<mgrwt>
<rscale>  0 0.17752729E+04</rscale>
<asrwt>0</asrwt>
<pdfrwt beam="1">  1        2 0.11675585E+00 0.17752729E+04</pdfrwt>
<pdfrwt beam="2">  1       -2 0.15972206E+00 0.17752729E+04</pdfrwt>
<totfact> 0.88358188E+00</totfact>
</mgrwt>
</event>
<event>
12    1  0.1960998E-007  0.1717561E+04  0.7818608E-02  0.8751412E-01
         -2   -1    0    0    0  501 -0.00000000000E+00  0.00000000000E+00  0.23122918190E+03  0.23122918190E+03  0.00000000000E+00 0.  1.
          2   -1    0    0  501    0  0.00000000000E+00 -0.00000000000E+00 -0.31894926759E+04  0.31894926759E+04  0.00000000000E+00 0. -1.
         23    2    1    2    0    0  0.37702011519E+03 -0.21285092856E+03 -0.19498026169E+04  0.19994417294E+04  0.92667683629E+02 0.  0.
        254    2    1    2    0    0 -0.37702011519E+03  0.21285092856E+03 -0.10084608771E+04  0.14212801284E+04  0.90310252881E+03 0.  0.
        -24    2    4    4    0    0 -0.51256448433E+03  0.26030458718E+03 -0.10924533844E+04  0.12369161438E+04  0.77629382572E+02 0.  0.
         24    2    4    4    0    0  0.13554436914E+03 -0.47453658618E+02  0.83992507263E+02  0.18436398456E+03  0.79443135668E+02 0.  0.
         11    1    3    3    0    0  0.19781266578E+03 -0.16258629246E+03 -0.10780602160E+04  0.11080514350E+04  0.00000000000E+00 0.  1.
        -11    1    3    3    0    0  0.17920744941E+03 -0.50264636098E+02 -0.87174240087E+03  0.89139029445E+03  0.00000000000E+00 0. -1.
          4    1    6    6  502    0 -0.89970628448E+01 -0.54859262230E+01  0.16116919548E+02  0.19256106098E+02  0.00000000000E+00 0. -1.
          3    1    5    5  503    0 -0.60692571504E+02  0.50392979142E+01 -0.10499920163E+03  0.12138292756E+03  0.00000000000E+00 0. -1.
         -4    1    5    5    0  503 -0.45187191282E+03  0.25526528927E+03 -0.98745418277E+03  0.11155332163E+04  0.00000000000E+00 0.  1.
         -3    1    6    6    0  502  0.14454143198E+03 -0.41967732395E+02  0.67875587715E+02  0.16510787846E+03  0.00000000000E+00 0.  1.
<mgrwt>
<rscale>  0 0.17175608E+04</rscale>
<asrwt>0</asrwt>
<pdfrwt beam="1">  1        2 0.49069113E+00 0.17175608E+04</pdfrwt>
<pdfrwt beam="2">  1       -2 0.35573724E-01 0.17175608E+04</pdfrwt>
<totfact> 0.93545614E+00</totfact>
</mgrwt>
</event>
<event>
12    1  0.1960998E-007  0.1762023E+04  0.7818608E-02  0.8726760E-01
         -2   -1    0    0    0  501 -0.00000000000E+00  0.00000000000E+00  0.66092013401E+03  0.66092013401E+03  0.00000000000E+00 0.  1.
          2   -1    0    0  501    0  0.00000000000E+00 -0.00000000000E+00 -0.11743950732E+04  0.11743950732E+04  0.00000000000E+00 0. -1.
         23    2    1    2    0    0 -0.67247783458E+02  0.62378815718E+03 -0.18670051692E+02  0.63481059643E+03  0.94878833758E+02 0.  0.
        254    2    1    2    0    0  0.67247783458E+02 -0.62378815718E+03 -0.49480488747E+03  0.12005046108E+04  0.89596066564E+03 0.  0.
        -24    2    4    4    0    0 -0.75501534778E+02 -0.27564831742E+03 -0.70370739703E+03  0.76304772489E+03  0.73179595280E+02 0.  0.
         24    2    4    4    0    0  0.14274931824E+03 -0.34813983975E+03  0.20890250956E+03  0.43745688588E+03  0.78419083278E+02 0.  0.
         13    1    3    3    0    0 -0.34124333426E+01  0.68037370036E+02  0.27586298914E+02  0.73496478218E+02  0.00000000000E+00 0.  1.
        -13    1    3    3    0    0 -0.63835350115E+02  0.55575078714E+03 -0.46256350606E+02  0.56131411821E+03  0.00000000000E+00 0. -1.
          2    1    6    6  502    0  0.15233792699E+03 -0.31925466351E+03  0.18863475804E+03  0.40089082817E+03  0.00000000000E+00 0. -1.
          3    1    5    5  503    0 -0.69058498920E+02 -0.25753751947E+03 -0.68915476313E+03  0.73893770898E+03  0.00000000000E+00 0. -1.
         -4    1    5    5    0  503 -0.64430358584E+01 -0.18110797952E+02 -0.14552633902E+02  0.24110015907E+02  0.00000000000E+00 0.  1.
         -1    1    6    6    0  502 -0.95886087546E+01 -0.28885176247E+02  0.20267751521E+02  0.36566057709E+02  0.00000000000E+00 0.  1.
<mgrwt>
<rscale>  0 0.17620231E+04</rscale>
<asrwt>0</asrwt>
<pdfrwt beam="1">  1        2 0.18067616E+00 0.17620231E+04</pdfrwt>
<pdfrwt beam="2">  1       -2 0.10168002E+00 0.17620231E+04</pdfrwt>
<totfact> 0.14754501E+01</totfact>
</mgrwt>
</event>
<event>
12    1  0.1960998E-007  0.2522832E+04  0.7818608E-02  0.8394896E-01
         -2   -1    0    0    0  501 -0.00000000000E+00  0.00000000000E+00  0.37697764147E+03  0.37697764147E+03  0.00000000000E+00 0.  1.
          2   -1    0    0  501    0  0.00000000000E+00 -0.00000000000E+00 -0.42208616292E+04  0.42208616292E+04  0.00000000000E+00 0. -1.
         23    2    1    2    0    0  0.65515411515E+03  0.87478380488E+03 -0.15929989559E+04  0.19339008665E+04  0.88618666143E+02 0.  0.
        254    2    1    2    0    0 -0.65515411515E+03 -0.87478380488E+03 -0.22508850318E+04  0.26639384042E+04  0.91411748420E+03 0.  0.
        -24    2    4    4    0    0 -0.21178278550E+02 -0.39466069057E+03 -0.17415754163E+03  0.43868310259E+03  0.76853334522E+02 0.  0.
         24    2    4    4    0    0 -0.63397583660E+03 -0.48012311432E+03 -0.20767274902E+04  0.22252553016E+04  0.80749752216E+02 0.  0.
         13    1    3    3    0    0  0.44695614876E+03  0.60981926737E+03 -0.11708597902E+04  0.13937582237E+04  0.00000000000E+00 0.  1.
        -13    1    3    3    0    0  0.20819796639E+03  0.26496453751E+03 -0.42213916563E+03  0.54014264274E+03  0.00000000000E+00 0. -1.
          4    1    6    6  502    0 -0.42365175083E+03 -0.31586951208E+03 -0.12708094721E+04  0.13763034073E+04  0.00000000000E+00 0. -1.
          3    1    5    5  503    0  0.25209092273E+02 -0.14846642073E+03 -0.47139672093E+02  0.15779710105E+03  0.00000000000E+00 0. -1.
         -4    1    5    5    0  503 -0.46387370823E+02 -0.24619426984E+03 -0.12701786954E+03  0.28088600153E+03  0.00000000000E+00 0.  1.
         -3    1    6    6    0  502 -0.21032408578E+03 -0.16425360223E+03 -0.80591801808E+03  0.84895189426E+03  0.00000000000E+00 0.  1.
<mgrwt>
<rscale>  0 0.25228321E+04</rscale>
<asrwt>0</asrwt>
<pdfrwt beam="1">  1        2 0.64936328E+00 0.25228321E+04</pdfrwt>
<pdfrwt beam="2">  1       -2 0.57996564E-01 0.25228321E+04</pdfrwt>
<totfact> 0.55465964E-01</totfact>
</mgrwt>
</event>
<event>
12    1  0.1960998E-007  0.1786496E+04  0.7818608E-02  0.8713514E-01
          1   -1    0    0  501    0  0.00000000000E+00  0.00000000000E+00  0.11063386747E+04  0.11063386747E+04  0.00000000000E+00 0. -1.
         -1   -1    0    0    0  501 -0.00000000000E+00 -0.00000000000E+00 -0.72120022154E+03  0.72120022154E+03  0.00000000000E+00 0.  1.
         23    2    1    2    0    0  0.44666960454E+03  0.44449244614E+03  0.35731662367E+03  0.73007763711E+03  0.90834554915E+02 0.  0.
        254    2    1    2    0    0 -0.44666960454E+03 -0.44449244614E+03  0.27821829528E+02  0.10974612592E+04  0.89808679473E+03 0.  0.
        -24    2    4    4    0    0 -0.67110233999E+03 -0.27168936283E+03  0.20053988716E+03  0.75550309811E+03  0.79845001731E+02 0.  0.
         24    2    4    4    0    0  0.22443273544E+03 -0.17280308331E+03 -0.17271805764E+03  0.34195816105E+03  0.82902944072E+02 0.  0.
         13    1    3    3    0    0  0.37332011205E+03  0.32163371833E+03  0.29203305763E+03  0.57279966967E+03  0.00000000000E+00 0. -1.
        -13    1    3    3    0    0  0.73349492490E+02  0.12285872781E+03  0.65283566041E+02  0.15727796744E+03  0.00000000000E+00 0.  1.
          2    1    6    6  502    0  0.81463266377E+02 -0.27275762133E+02 -0.81751844963E+02  0.11859002961E+03  0.00000000000E+00 0. -1.
          3    1    5    5  503    0 -0.26638762891E+03 -0.14862902727E+03  0.95513448680E+02  0.31964945716E+03  0.00000000000E+00 0. -1.
         -4    1    5    5    0  503 -0.40471471108E+03 -0.12306033556E+03  0.10502643848E+03  0.43585364095E+03  0.00000000000E+00 0.  1.
         -1    1    6    6    0  502  0.14296946907E+03 -0.14552732118E+03 -0.90966212674E+02  0.22336813144E+03  0.00000000000E+00 0.  1.
<mgrwt>
<rscale>  0 0.17864957E+04</rscale>
<asrwt>0</asrwt>
<pdfrwt beam="1">  1        1 0.17020595E+00 0.17864957E+04</pdfrwt>
<pdfrwt beam="2">  1       -1 0.11095388E+00 0.17864957E+04</pdfrwt>
<totfact> 0.88591508E+00</totfact>
</mgrwt>
</event>
<event>
12    1  0.1960998E-007  0.1713529E+04  0.7818608E-02  0.8753686E-01
         -2   -1    0    0    0  501 -0.00000000000E+00  0.00000000000E+00  0.81379178058E+03  0.81379178058E+03  0.00000000000E+00 0.  1.
          2   -1    0    0  501    0  0.00000000000E+00 -0.00000000000E+00 -0.90200592284E+03  0.90200592284E+03  0.00000000000E+00 0. -1.
         23    2    1    2    0    0 -0.15412164659E+03 -0.59019816399E+03  0.54457564210E+02  0.61854824171E+03  0.86884672415E+02 0.  0.
        254    2    1    2    0    0  0.15412164659E+03  0.59019816399E+03 -0.14267170647E+03  0.10972494617E+04  0.90084061336E+03 0.  0.
        -24    2    4    4    0    0  0.60776989523E+02  0.26854971074E+03 -0.51550993947E+03  0.58968904855E+03  0.78548626278E+02 0.  0.
         24    2    4    4    0    0  0.93344657062E+02  0.32164845325E+03  0.37283823301E+03  0.50756041317E+03  0.80238846836E+02 0.  0.
         13    1    3    3    0    0 -0.26733413865E+02 -0.16645172542E+03 -0.20280916210E+02  0.16980037655E+03  0.00000000000E+00 0. -1.
        -13    1    3    3    0    0 -0.12738823272E+03 -0.42374643857E+03  0.74738480420E+02  0.44874786516E+03  0.00000000000E+00 0.  1.
          2    1    6    6  502    0  0.75239453609E+01  0.66988717541E+02  0.35245287517E+02  0.76067919149E+02  0.00000000000E+00 0. -1.
          1    1    5    5  503    0 -0.11103495635E+02  0.67605955364E+02 -0.84900979448E+02  0.10909642124E+03  0.00000000000E+00 0. -1.
         -2    1    5    5    0  503  0.71880485158E+02  0.20094375537E+03 -0.43060896003E+03  0.48059262731E+03  0.00000000000E+00 0.  1.
         -1    1    6    6    0  502  0.85820711701E+02  0.25465973571E+03  0.33759294549E+03  0.43149249402E+03  0.00000000000E+00 0.  1.
<mgrwt>
<rscale>  0 0.17135285E+04</rscale>
<asrwt>0</asrwt>
<pdfrwt beam="1">  1        2 0.13877014E+00 0.17135285E+04</pdfrwt>
<pdfrwt beam="2">  1       -2 0.12519874E+00 0.17135285E+04</pdfrwt>
<totfact> 0.13268441E+01</totfact>
</mgrwt>
</event>
<event>
12    1  0.1960998E-007  0.1677786E+04  0.7818608E-02  0.8774136E-01
          4   -1    0    0  501    0  0.00000000000E+00  0.00000000000E+00  0.65420725006E+03  0.65420725006E+03  0.00000000000E+00 0. -1.
         -4   -1    0    0    0  501 -0.00000000000E+00 -0.00000000000E+00 -0.10757165556E+04  0.10757165556E+04  0.00000000000E+00 0.  1.
         23    2    1    2    0    0  0.48629857664E+03 -0.33813459431E+03 -0.11491722952E+03  0.60998382414E+03  0.89738434116E+02 0.  0.
        254    2    1    2    0    0 -0.48629857664E+03  0.33813459431E+03 -0.30659207607E+03  0.11199399816E+04  0.89969192043E+03 0.  0.
        -24    2    4    4    0    0 -0.35940691726E+03  0.63083126967E+03 -0.11628695666E+03  0.73988166355E+03  0.82345593705E+02 0.  0.
         24    2    4    4    0    0 -0.12689165938E+03 -0.29269667536E+03 -0.19030511941E+03  0.38005831801E+03  0.80345812793E+02 0.  0.
         13    1    3    3    0    0  0.28545429069E+03 -0.18090660635E+03 -0.10812276154E+03  0.35482655461E+03  0.00000000000E+00 0.  1.
        -13    1    3    3    0    0  0.20084428595E+03 -0.15722798796E+03 -0.67944679772E+01  0.25515726952E+03  0.00000000000E+00 0. -1.
          2    1    6    6  502    0 -0.47172359890E+02 -0.16548633112E+03 -0.63084510636E+02  0.18327742034E+03  0.00000000000E+00 0. -1.
          3    1    5    5  503    0 -0.55659322441E+02  0.59090316137E+02  0.44633788561E+01  0.81299122914E+02  0.00000000000E+00 0. -1.
         -4    1    5    5    0  503 -0.30374759482E+03  0.57174095354E+03 -0.12075033552E+03  0.65858254064E+03  0.00000000000E+00 0.  1.
         -1    1    6    6    0  502 -0.79719299489E+02 -0.12721034424E+03 -0.12722060877E+03  0.19678089767E+03  0.00000000000E+00 0.  1.
<mgrwt>
<rscale>  0 0.16777861E+04</rscale>
<asrwt>0</asrwt>
<pdfrwt beam="1">  1        4 0.10064727E+00 0.16777861E+04</pdfrwt>
<pdfrwt beam="2">  1       -4 0.16549486E+00 0.16777861E+04</pdfrwt>
<totfact> 0.35340560E-01</totfact>
</mgrwt>
</event>
<event>
12    1  0.1960998E-007  0.2599229E+04  0.7818608E-02  0.8368463E-01
          1   -1    0    0  501    0  0.00000000000E+00  0.00000000000E+00  0.20564752223E+04  0.20564752223E+04  0.00000000000E+00 0. -1.
         -1   -1    0    0    0  501 -0.00000000000E+00 -0.00000000000E+00 -0.82130745155E+03  0.82130745155E+03  0.00000000000E+00 0.  1.
         23    2    1    2    0    0  0.11233901008E+04 -0.15895470293E+03  0.68952031945E+03  0.13307755245E+04  0.90847727960E+02 0.  0.
        254    2    1    2    0    0 -0.11233901008E+04  0.15895470293E+03  0.54564745127E+03  0.15470071493E+04  0.89901505149E+03 0.  0.
        -24    2    4    4    0    0 -0.72005193079E+03 -0.30921512240E+03  0.47531135294E+03  0.91989277560E+03  0.78696006419E+02 0.  0.
         24    2    4    4    0    0 -0.40333816998E+03  0.46816982533E+03  0.70336098334E+02  0.62711437369E+03  0.80377896560E+02 0.  0.
         13    1    3    3    0    0  0.25960133409E+03 -0.67769512504E+02  0.13590956877E+03  0.30076065296E+03  0.00000000000E+00 0. -1.
        -13    1    3    3    0    0  0.86378876667E+03 -0.91185190423E+02  0.55361075068E+03  0.10300148716E+04  0.00000000000E+00 0.  1.
          4    1    6    6  502    0 -0.79582726413E+02  0.54250199521E+02  0.25933225957E+02  0.99744807885E+02  0.00000000000E+00 0. -1.
          3    1    5    5  503    0 -0.32370155398E+03 -0.13719971448E+03  0.25916503081E+03  0.43677565283E+03  0.00000000000E+00 0. -1.
         -4    1    5    5    0  503 -0.39635037680E+03 -0.17201540791E+03  0.21614632213E+03  0.48311712278E+03  0.00000000000E+00 0.  1.
         -3    1    6    6    0  502 -0.32375544356E+03  0.41391962580E+03  0.44402872377E+02  0.52736956581E+03  0.00000000000E+00 0.  1.
<mgrwt>
<rscale>  0 0.25992294E+04</rscale>
<asrwt>0</asrwt>
<pdfrwt beam="1">  1        1 0.31638080E+00 0.25992294E+04</pdfrwt>
<pdfrwt beam="2">  1       -1 0.12635499E+00 0.25992294E+04</pdfrwt>
<totfact> 0.13087671E+00</totfact>
</mgrwt>
</event>
<event>
12    1  0.1960998E-007  0.3574476E+04  0.7818608E-02  0.8096363E-01
          2   -1    0    0  501    0  0.00000000000E+00  0.00000000000E+00  0.24985164238E+04  0.24985164238E+04  0.00000000000E+00 0. -1.
         -2   -1    0    0    0  501 -0.00000000000E+00 -0.00000000000E+00 -0.12784467121E+04  0.12784467121E+04  0.00000000000E+00 0.  1.
         23    2    1    2    0    0 -0.14023294665E+04 -0.87756559501E+03  0.30185304350E+03  0.16842144376E+04  0.93881339355E+02 0.  0.
        254    2    1    2    0    0  0.14023294665E+04  0.87756559501E+03  0.91821666823E+03  0.20927486983E+04  0.89432989342E+03 0.  0.
        -24    2    4    4    0    0  0.76346058682E+03  0.97579842142E+02  0.77669864197E+02  0.77769022951E+03  0.79847304576E+02 0.  0.
         24    2    4    4    0    0  0.63886887967E+03  0.77998575287E+03  0.84054680403E+03  0.13150584688E+04  0.79552664711E+02 0.  0.
         13    1    3    3    0    0 -0.10183418091E+04 -0.62738395452E+03  0.17616250919E+03  0.12089929264E+04  0.00000000000E+00 0.  1.
        -13    1    3    3    0    0 -0.38398765739E+03 -0.25018164049E+03  0.12569053431E+03  0.47522151118E+03  0.00000000000E+00 0. -1.
          2    1    6    6  502    0  0.34716683784E+03  0.47287637158E+03  0.45675604865E+03  0.74348030510E+03  0.00000000000E+00 0. -1.
          1    1    5    5  503    0  0.42948030321E+03  0.16495745571E+02  0.54315410851E+02  0.43321542484E+03  0.00000000000E+00 0. -1.
         -2    1    5    5    0  503  0.33398028362E+03  0.81084096571E+02  0.23354453346E+02  0.34447480467E+03  0.00000000000E+00 0.  1.
         -1    1    6    6    0  502  0.29170204182E+03  0.30710938129E+03  0.38379075537E+03  0.57157816367E+03  0.00000000000E+00 0.  1.
<mgrwt>
<rscale>  0 0.35744762E+04</rscale>
<asrwt>0</asrwt>
<pdfrwt beam="1">  1        2 0.38438714E+00 0.35744762E+04</pdfrwt>
<pdfrwt beam="2">  1       -2 0.19668411E+00 0.35744762E+04</pdfrwt>
<totfact> 0.39842571E-01</totfact>
</mgrwt>
</event>
<event>
12    1  0.1960998E-007  0.2629805E+04  0.7818608E-02  0.8358147E-01
          1   -1    0    0  501    0  0.00000000000E+00  0.00000000000E+00  0.28575248272E+04  0.28575248272E+04  0.00000000000E+00 0. -1.
         -1   -1    0    0    0  501 -0.00000000000E+00 -0.00000000000E+00 -0.60505827381E+03  0.60505827381E+03  0.00000000000E+00 0.  1.
         23    2    1    2    0    0  0.98649568604E+03  0.47088882369E+03  0.48506073581E+03  0.11986352045E+04  0.80823346128E+02 0.  0.
        254    2    1    2    0    0 -0.98649568604E+03 -0.47088882369E+03  0.17674058176E+04  0.22639478964E+04  0.89823534277E+03 0.  0.
        -24    2    4    4    0    0 -0.83410506196E+03 -0.65868713351E+03  0.10224341950E+04  0.14767786519E+04  0.76834297071E+02 0.  0.
         24    2    4    4    0    0 -0.15239062409E+03  0.18779830982E+03  0.74497162251E+03  0.78716924457E+03  0.78495820019E+02 0.  0.
         13    1    3    3    0    0  0.69053377161E+03  0.28832048185E+03  0.32569330336E+03  0.81611378977E+03  0.00000000000E+00 0. -1.
        -13    1    3    3    0    0  0.29596191443E+03  0.18256834184E+03  0.15936743245E+03  0.38252141478E+03  0.00000000000E+00 0.  1.
          2    1    6    6  502    0 -0.13123771131E+03  0.11386583004E+03  0.57353948978E+03  0.59927982650E+03  0.00000000000E+00 0. -1.
          1    1    5    5  503    0 -0.66110254555E+03 -0.51010418705E+03  0.75994384864E+03  0.11290604547E+04  0.00000000000E+00 0. -1.
         -2    1    5    5    0  503 -0.17300251641E+03 -0.14858294645E+03  0.26249034640E+03  0.34771819713E+03  0.00000000000E+00 0.  1.
         -1    1    6    6    0  502 -0.21152912779E+02  0.73932479782E+02  0.17143213274E+03  0.18788941806E+03  0.00000000000E+00 0.  1.
<mgrwt>
<rscale>  0 0.26298053E+04</rscale>
<asrwt>0</asrwt>
<pdfrwt beam="1">  1        1 0.43961920E+00 0.26298053E+04</pdfrwt>
<pdfrwt beam="2">  1       -1 0.93085890E-01 0.26298053E+04</pdfrwt>
<totfact> 0.74599726E-01</totfact>
</mgrwt>
</event>
<event>
12    1  0.1960998E-007  0.1981960E+04  0.7818608E-02  0.8615102E-01
         -2   -1    0    0    0  501 -0.00000000000E+00  0.00000000000E+00  0.52762461473E+03  0.52762461473E+03  0.00000000000E+00 0.  1.
          2   -1    0    0  501    0  0.00000000000E+00 -0.00000000000E+00 -0.18612503886E+04  0.18612503886E+04  0.00000000000E+00 0. -1.
         23    2    1    2    0    0 -0.38363244286E+03  0.50102525668E+03 -0.10920475367E+04  0.12644666349E+04  0.90043818537E+02 0.  0.
        254    2    1    2    0    0  0.38363244286E+03 -0.50102525668E+03 -0.24157823714E+03  0.11244083684E+04  0.89874021569E+03 0.  0.
        -24    2    4    4    0    0  0.16933763787E+03 -0.12586742915E+03 -0.54582684422E+03  0.59005540519E+03  0.75634595289E+02 0.  0.
         24    2    4    4    0    0  0.21429480499E+03 -0.37515782753E+03  0.30424860708E+03  0.53435296324E+03  0.79373896239E+02 0.  0.
         13    1    3    3    0    0 -0.30173863957E+03  0.40154475332E+03 -0.93455868065E+03  0.10609827157E+04  0.00000000000E+00 0. -1.
        -13    1    3    3    0    0 -0.81893803291E+02  0.99480503355E+02 -0.15748885606E+03  0.20348391914E+03  0.00000000000E+00 0.  1.
          4    1    6    6  502    0  0.58994812983E+01 -0.47723390131E+02  0.15239582193E+02  0.50443738072E+02  0.00000000000E+00 0. -1.
          3    1    5    5  503    0  0.16764448954E+03 -0.11267504667E+03 -0.44929742116E+03  0.49261396009E+03  0.00000000000E+00 0. -1.
         -4    1    5    5    0  503  0.16931483239E+01 -0.13192382480E+02 -0.96529423059E+02  0.97441445099E+02  0.00000000000E+00 0.  1.
         -1    1    6    6    0  502  0.20839532369E+03 -0.32743443740E+03  0.28900902489E+03  0.48390922517E+03  0.00000000000E+00 0.  1.
<mgrwt>
<rscale>  0 0.19819602E+04</rscale>
<asrwt>0</asrwt>
<pdfrwt beam="1">  1        2 0.28634621E+00 0.19819602E+04</pdfrwt>
<pdfrwt beam="2">  1       -2 0.81173017E-01 0.19819602E+04</pdfrwt>
<totfact> 0.99297929E+00</totfact>
</mgrwt>
</event>
<event>
12    1  0.1960998E-007  0.4620088E+04  0.7818608E-02  0.7889944E-01
          2   -1    0    0  501    0  0.00000000000E+00  0.00000000000E+00  0.29512334893E+04  0.29512334893E+04  0.00000000000E+00 0.  1.
         -2   -1    0    0    0  501 -0.00000000000E+00 -0.00000000000E+00 -0.18081599717E+04  0.18081599717E+04  0.00000000000E+00 0. -1.
         23    2    1    2    0    0  0.46969868408E+03 -0.11435057557E+04 -0.13511612396E+04  0.18336583006E+04  0.91890156968E+02 0.  0.
        254    2    1    2    0    0 -0.46969868408E+03  0.11435057557E+04  0.24942347572E+04  0.29257351604E+04  0.90027603400E+03 0.  0.
        -24    2    4    4    0    0 -0.30624359067E+03  0.12170969240E+04  0.17430865670E+04  0.21493857476E+04  0.79989076928E+02 0.  0.
         24    2    4    4    0    0 -0.16345509342E+03 -0.73591168312E+02  0.75114819019E+03  0.77634941281E+03  0.79759510547E+02 0.  0.
         11    1    3    3    0    0  0.68174536378E+02 -0.15807442223E+03 -0.14381943967E+03  0.22431968616E+03  0.00000000000E+00 0. -1.
        -11    1    3    3    0    0  0.40152414770E+03 -0.98543133348E+03 -0.12073417999E+04  0.16093386145E+04  0.00000000000E+00 0.  1.
          2    1    6    6  502    0 -0.13187012597E+03 -0.20209081704E+02  0.54358412124E+03  0.55971585110E+03  0.00000000000E+00 0. -1.
          1    1    5    5  503    0 -0.23231247019E+03  0.10399998474E+04  0.14708498581E+04  0.18163061612E+04  0.00000000000E+00 0. -1.
         -2    1    5    5    0  503 -0.73931120477E+02  0.17709707663E+03  0.27223670898E+03  0.33307958634E+03  0.00000000000E+00 0.  1.
         -1    1    6    6    0  502 -0.31584967442E+02 -0.53382086608E+02  0.20756406895E+03  0.21663356171E+03  0.00000000000E+00 0.  1.
<mgrwt>
<rscale>  0 0.46200876E+04</rscale>
<asrwt>0</asrwt>
<pdfrwt beam="1">  1        2 0.45403592E+00 0.46200876E+04</pdfrwt>
<pdfrwt beam="2">  1       -2 0.27817846E+00 0.46200876E+04</pdfrwt>
<totfact> 0.60522580E-02</totfact>
</mgrwt>
</event>
<event>
12    1  0.1960998E-007  0.1342728E+04  0.7818608E-02  0.8996351E-01
         -1   -1    0    0    0  501 -0.00000000000E+00  0.00000000000E+00  0.85804979734E+03  0.85804979734E+03  0.00000000000E+00 0.  1.
          1   -1    0    0  501    0  0.00000000000E+00 -0.00000000000E+00 -0.52529549671E+03  0.52529549671E+03  0.00000000000E+00 0. -1.
         23    2    1    2    0    0 -0.10069002596E+03 -0.31680647022E+03  0.24108978274E+03  0.42096807800E+03  0.92655374646E+02 0.  0.
        254    2    1    2    0    0  0.10069002596E+03  0.31680647022E+03  0.91664517883E+02  0.96237721605E+03  0.89847799152E+03 0.  0.
        -24    2    4    4    0    0 -0.83328510503E+01 -0.96700605616E+02 -0.33288876863E+03  0.35457893690E+03  0.74100247499E+02 0.  0.
         24    2    4    4    0    0  0.10902287701E+03  0.41350707583E+03  0.42455328651E+03  0.60779827915E+03  0.79367282796E+02 0.  0.
         11    1    3    3    0    0  0.17456205135E+02 -0.29138945800E+02  0.27423361889E+02  0.43655904954E+02  0.00000000000E+00 0. -1.
        -11    1    3    3    0    0 -0.11814623110E+03 -0.28766752442E+03  0.21366642085E+03  0.37731217304E+03  0.00000000000E+00 0.  1.
          4    1    6    6  502    0  0.10269527384E+03  0.40150248958E+03  0.38381007941E+03  0.56485462330E+03  0.00000000000E+00 0. -1.
          3    1    5    5  503    0 -0.25422568026E+02 -0.97939386419E+02 -0.24565003954E+03  0.26567343168E+03  0.00000000000E+00 0. -1.
         -2    1    5    5    0  503  0.17089716975E+02  0.12387808030E+01 -0.87238729094E+02  0.88905505218E+02  0.00000000000E+00 0.  1.
         -3    1    6    6    0  502  0.63276031688E+01  0.12004586255E+02  0.40743207106E+02  0.42943655857E+02  0.00000000000E+00 0.  1.
<mgrwt>
<rscale>  0 0.13427281E+04</rscale>
<asrwt>0</asrwt>
<pdfrwt beam="1">  1        1 0.80814692E-01 0.13427281E+04</pdfrwt>
<pdfrwt beam="2">  1       -1 0.13200766E+00 0.13427281E+04</pdfrwt>
<totfact> 0.19774778E+01</totfact>
</mgrwt>
</event>
<event>
12    1  0.1960998E-007  0.2490966E+04  0.7818608E-02  0.8406211E-01
         -2   -1    0    0    0  501 -0.00000000000E+00  0.00000000000E+00  0.10304687916E+04  0.10304687916E+04  0.00000000000E+00 0. -1.
          2   -1    0    0  501    0  0.00000000000E+00 -0.00000000000E+00 -0.15053615798E+04  0.15053615798E+04  0.00000000000E+00 0.  1.
         23    2    1    2    0    0  0.82381675303E+03 -0.68298215504E+03 -0.54578089910E+02  0.10754369441E+04  0.91908575274E+02 0.  0.
        254    2    1    2    0    0 -0.82381675303E+03  0.68298215504E+03 -0.42031469825E+03  0.14603934273E+04  0.90052531898E+03 0.  0.
        -24    2    4    4    0    0 -0.85493348644E+03  0.84753334422E+03 -0.31012570287E+03  0.12455247157E+04  0.77005389145E+02 0.  0.
         24    2    4    4    0    0  0.31116733409E+02 -0.16455118918E+03 -0.11018899538E+03  0.21486871158E+03  0.77340827245E+02 0.  0.
         11    1    3    3    0    0  0.61816574851E+03 -0.50721954178E+03 -0.80519483409E+02  0.80366905092E+03  0.00000000000E+00 0. -1.
        -11    1    3    3    0    0  0.20565100452E+03 -0.17576261327E+03  0.25941393500E+02  0.27176789320E+03  0.00000000000E+00 0.  1.
          2    1    6    6  502    0  0.16160044014E+02 -0.10723808691E+03 -0.11160725015E+03  0.15561919095E+03  0.00000000000E+00 0. -1.
          3    1    5    5  503    0 -0.71657869979E+03  0.67184288746E+03 -0.24010640156E+03  0.10111918624E+04  0.00000000000E+00 0. -1.
         -4    1    5    5    0  503 -0.13835478665E+03  0.17569045676E+03 -0.70019301311E+02  0.23433285331E+03  0.00000000000E+00 0.  1.
         -1    1    6    6    0  502  0.14956689395E+02 -0.57313102264E+02  0.14182547699E+01  0.59249520634E+02  0.00000000000E+00 0.  1.
<mgrwt>
<rscale>  0 0.24909662E+04</rscale>
<asrwt>0</asrwt>
<pdfrwt beam="1">  1        2 0.23159409E+00 0.24909662E+04</pdfrwt>
<pdfrwt beam="2">  1       -2 0.15853366E+00 0.24909662E+04</pdfrwt>
<totfact> 0.29064104E+00</totfact>
</mgrwt>
</event>
<event>
12    1  0.1960998E-007  0.2214977E+04  0.7818608E-02  0.8512220E-01
          2   -1    0    0  501    0  0.00000000000E+00  0.00000000000E+00  0.14541544190E+04  0.14541544190E+04  0.00000000000E+00 0.  1.
         -2   -1    0    0    0  501 -0.00000000000E+00 -0.00000000000E+00 -0.84346654900E+03  0.84346654900E+03  0.00000000000E+00 0. -1.
         23    2    1    2    0    0 -0.65648518733E+03  0.63190957897E+03  0.40262050390E+03  0.10003084395E+04  0.90725888106E+02 0.  0.
        254    2    1    2    0    0  0.65648518733E+03 -0.63190957897E+03  0.20806736614E+03  0.12973125285E+04  0.89969175313E+03 0.  0.
        -24    2    4    4    0    0  0.78691670713E+03 -0.37071156408E+03  0.37662921703E+03  0.95129091313E+03  0.80248779303E+02 0.  0.
         24    2    4    4    0    0 -0.13043151980E+03 -0.26119801490E+03 -0.16856185089E+03  0.34602161541E+03  0.77981256781E+02 0.  0.
         13    1    3    3    0    0 -0.52237293837E+03  0.51728003079E+03  0.28602495601E+03  0.78883609987E+03  0.00000000000E+00 0. -1.
        -13    1    3    3    0    0 -0.13411224897E+03  0.11462954818E+03  0.11659554788E+03  0.21147233962E+03  0.00000000000E+00 0.  1.
          2    1    6    6  502    0  0.54253526083E+01 -0.25468794825E+00 -0.11061154873E+02  0.12322680878E+02  0.00000000000E+00 0. -1.
          1    1    5    5  503    0  0.63534566539E+02 -0.31969725444E+02  0.80217881451E+01  0.71575509605E+02  0.00000000000E+00 0. -1.
         -2    1    5    5    0  503  0.72338214059E+03 -0.33874183863E+03  0.36860742889E+03  0.87971540353E+03  0.00000000000E+00 0.  1.
         -1    1    6    6    0  502 -0.13585687241E+03 -0.26094332695E+03 -0.15750069602E+03  0.33369893453E+03  0.00000000000E+00 0.  1.
<mgrwt>
<rscale>  0 0.22149768E+04</rscale>
<asrwt>0</asrwt>
<pdfrwt beam="1">  1        2 0.22371606E+00 0.22149768E+04</pdfrwt>
<pdfrwt beam="2">  1       -2 0.12976408E+00 0.22149768E+04</pdfrwt>
<totfact> 0.53688432E+00</totfact>
</mgrwt>
</event>
<event>
12    1  0.1960998E-007  0.1908506E+04  0.7818608E-02  0.8650634E-01
          2   -1    0    0  501    0  0.00000000000E+00  0.00000000000E+00  0.13178946817E+04  0.13178946817E+04  0.00000000000E+00 0. -1.
         -2   -1    0    0    0  501 -0.00000000000E+00 -0.00000000000E+00 -0.69094926932E+03  0.69094926932E+03  0.00000000000E+00 0.  1.
         23    2    1    2    0    0  0.15072547798E+03  0.19609865013E+03  0.97747269668E+03  0.10123250481E+04  0.90422784439E+02 0.  0.
        254    2    1    2    0    0 -0.15072547798E+03 -0.19609865013E+03 -0.35052728431E+03  0.99651890292E+03  0.89944855135E+03 0.  0.
        -24    2    4    4    0    0  0.96879544956E+02 -0.47572162063E+03 -0.36746888183E+03  0.61437421449E+03  0.82009693095E+02 0.  0.
         24    2    4    4    0    0 -0.24760502294E+03  0.27962297050E+03  0.16941597525E+02  0.38214468842E+03  0.79058789195E+02 0.  0.
         11    1    3    3    0    0  0.52552887623E+02  0.13473640135E+03  0.61674437406E+03  0.63347401429E+03  0.00000000000E+00 0.  1.
        -11    1    3    3    0    0  0.98172590358E+02  0.61362248776E+02  0.36072832262E+03  0.37885103380E+03  0.00000000000E+00 0. -1.
          2    1    6    6  502    0 -0.10410543608E+03  0.16964594143E+03  0.28046953115E+02  0.20100825566E+03  0.00000000000E+00 0. -1.
          1    1    5    5  503    0 -0.10408902068E+02 -0.12847274396E+03 -0.93499761435E+02  0.15923503563E+03  0.00000000000E+00 0. -1.
         -2    1    5    5    0  503  0.10728844702E+03 -0.34724887666E+03 -0.27396912039E+03  0.45513917887E+03  0.00000000000E+00 0.  1.
         -1    1    6    6    0  502 -0.14349958686E+03  0.10997702907E+03 -0.11105355590E+02  0.18113643276E+03  0.00000000000E+00 0.  1.
<mgrwt>
<rscale>  0 0.19085056E+04</rscale>
<asrwt>0</asrwt>
<pdfrwt beam="1">  1        2 0.20275303E+00 0.19085056E+04</pdfrwt>
<pdfrwt beam="2">  1       -2 0.10629989E+00 0.19085056E+04</pdfrwt>
<totfact> 0.10781487E+01</totfact>
</mgrwt>
</event>
<event>
12    1  0.1960998E-007  0.1564081E+04  0.7818608E-02  0.8842924E-01
         -1   -1    0    0    0  501 -0.00000000000E+00  0.00000000000E+00  0.18101260135E+04  0.18101260135E+04  0.00000000000E+00 0.  1.
          1   -1    0    0  501    0  0.00000000000E+00 -0.00000000000E+00 -0.33786985978E+03  0.33786985978E+03  0.00000000000E+00 0. -1.
         23    2    1    2    0    0 -0.49311124123E+03  0.81896120048E+02  0.68854829503E+03  0.85556969743E+03  0.89638618142E+02 0.  0.
        254    2    1    2    0    0  0.49311124123E+03 -0.81896120048E+02  0.78370785867E+03  0.12924261758E+04  0.89794306142E+03 0.  0.
        -24    2    4    4    0    0 -0.22351596725E+02 -0.39774897355E+02 -0.17657634539E+03  0.19881806272E+03  0.79169312074E+02 0.  0.
         24    2    4    4    0    0  0.51546283795E+03 -0.42121222693E+02  0.96028420407E+03  0.10936081131E+04  0.79729654530E+02 0.  0.
         11    1    3    3    0    0 -0.43820913650E+03  0.55980033577E+02  0.64084323562E+03  0.77835792802E+03  0.00000000000E+00 0.  1.
        -11    1    3    3    0    0 -0.54902104726E+02  0.25916086471E+02  0.47705059405E+02  0.77211769402E+02  0.00000000000E+00 0. -1.
          2    1    6    6  502    0  0.42798275746E+03 -0.10498151450E+02  0.82444360784E+03  0.92897078231E+03  0.00000000000E+00 0. -1.
          1    1    5    5  503    0  0.70009548107E+01 -0.54335261132E+02 -0.81049540390E+02  0.97828226847E+02  0.00000000000E+00 0. -1.
         -2    1    5    5    0  503 -0.29352551536E+02  0.14560363777E+02 -0.95526805001E+02  0.10098983587E+03  0.00000000000E+00 0.  1.
         -1    1    6    6    0  502  0.87480080494E+02 -0.31623071244E+02  0.13584059622E+03  0.16463733082E+03  0.00000000000E+00 0.  1.
<mgrwt>
<rscale>  0 0.15640806E+04</rscale>
<asrwt>0</asrwt>
<pdfrwt beam="1">  1        1 0.51979980E-01 0.15640806E+04</pdfrwt>
<pdfrwt beam="2">  1       -1 0.27848092E+00 0.15640806E+04</pdfrwt>
<totfact> 0.32913640E+00</totfact>
</mgrwt>
</event>
<event>
12    1  0.1960998E-007  0.2030072E+04  0.7818608E-02  0.8592689E-01
          2   -1    0    0  501    0  0.00000000000E+00  0.00000000000E+00  0.16469816506E+04  0.16469816506E+04  0.00000000000E+00 0. -1.
         -2   -1    0    0    0  501 -0.00000000000E+00 -0.00000000000E+00 -0.62556756636E+03  0.62556756636E+03  0.00000000000E+00 0.  1.
         23    2    1    2    0    0  0.74552691394E+03 -0.21032161460E+03  0.14283684984E+03  0.79289157413E+03  0.90714506389E+02 0.  0.
        254    2    1    2    0    0 -0.74552691394E+03  0.21032161460E+03  0.87857723438E+03  0.14796576428E+04  0.90412566724E+03 0.  0.
        -24    2    4    4    0    0  0.12397695251E+03  0.34559143493E+02  0.48114388960E+03  0.50432232249E+03  0.79227162708E+02 0.  0.
         24    2    4    4    0    0 -0.86950386645E+03  0.17576247111E+03  0.39743334478E+03  0.97533532032E+03  0.79976893534E+02 0.  0.
         11    1    3    3    0    0  0.32140249603E+03 -0.10464569731E+03  0.10604734958E+03  0.35425460727E+03  0.00000000000E+00 0. -1.
        -11    1    3    3    0    0  0.42412441791E+03 -0.10567591730E+03  0.36789500266E+02  0.43863696686E+03  0.00000000000E+00 0.  1.
          4    1    6    6  502    0 -0.31067077395E+03  0.40457032844E+02  0.17479072546E+03  0.35875465015E+03  0.00000000000E+00 0. -1.
          1    1    5    5  503    0  0.84825883981E+02  0.46092509601E+01  0.17842254493E+03  0.19761396795E+03  0.00000000000E+00 0. -1.
         -2    1    5    5    0  503  0.39151068526E+02  0.29949892533E+02  0.30272134466E+03  0.30670835454E+03  0.00000000000E+00 0.  1.
         -3    1    6    6    0  502 -0.55883309249E+03  0.13530543827E+03  0.22264261932E+03  0.61658067017E+03  0.00000000000E+00 0.  1.
<mgrwt>
<rscale>  0 0.20300722E+04</rscale>
<asrwt>0</asrwt>
<pdfrwt beam="1">  1        2 0.25338179E+00 0.20300722E+04</pdfrwt>
<pdfrwt beam="2">  1       -2 0.96241165E-01 0.20300722E+04</pdfrwt>
<totfact> 0.87963703E+00</totfact>
</mgrwt>
</event>
<event>
12    1  0.1960998E-007  0.2448261E+04  0.7818608E-02  0.8421653E-01
          1   -1    0    0  501    0  0.00000000000E+00  0.00000000000E+00  0.27763917761E+04  0.27763917761E+04  0.00000000000E+00 0. -1.
         -1   -1    0    0    0  501 -0.00000000000E+00 -0.00000000000E+00 -0.53972767081E+03  0.53972767081E+03  0.00000000000E+00 0.  1.
         23    2    1    2    0    0  0.89880816905E+03 -0.24759868761E+03  0.29996315140E+03  0.98614451235E+03  0.11550702217E+03 0.  0.
        254    2    1    2    0    0 -0.89880816905E+03  0.24759868761E+03  0.19367009539E+04  0.23299749346E+04  0.89933941090E+03 0.  0.
        -24    2    4    4    0    0 -0.83453660514E+03 -0.17361154916E+03  0.11929421539E+04  0.14682377395E+04  0.77580680321E+02 0.  0.
         24    2    4    4    0    0 -0.64271563914E+02  0.42121023677E+03  0.74375879999E+03  0.86173719501E+03  0.88684515084E+02 0.  0.
         11    1    3    3    0    0  0.44050286981E+03 -0.17203223946E+03  0.18363288173E+03  0.50730553415E+03  0.00000000000E+00 0. -1.
        -11    1    3    3    0    0  0.45830529924E+03 -0.75566448150E+02  0.11633026967E+03  0.47883897819E+03  0.00000000000E+00 0.  1.
          4    1    6    6  502    0  0.22538457704E+02  0.88735723492E+02  0.15158843435E+03  0.17709055347E+03  0.00000000000E+00 0. -1.
          1    1    5    5  503    0 -0.14858110332E+02  0.45064271879E+01  0.11572830012E+02  0.19364961222E+02  0.00000000000E+00 0. -1.
         -2    1    5    5    0  503 -0.81967849480E+03 -0.17811797634E+03  0.11813693239E+04  0.14488727783E+04  0.00000000000E+00 0.  1.
         -3    1    6    6    0  502 -0.86810021619E+02  0.33247451328E+03  0.59217036564E+03  0.68464664154E+03  0.00000000000E+00 0.  1.
<mgrwt>
<rscale>  0 0.24482610E+04</rscale>
<asrwt>0</asrwt>
<pdfrwt beam="1">  1        1 0.42713719E+00 0.24482610E+04</pdfrwt>
<pdfrwt beam="2">  1       -1 0.83035028E-01 0.24482610E+04</pdfrwt>
<totfact> 0.11132390E+00</totfact>
</mgrwt>
</event>
<event>
12    1  0.1960998E-007  0.1053758E+04  0.7818608E-02  0.9251473E-01
         -2   -1    0    0    0  501 -0.00000000000E+00  0.00000000000E+00  0.35285417003E+03  0.35285417003E+03  0.00000000000E+00 0.  1.
          2   -1    0    0  501    0  0.00000000000E+00 -0.00000000000E+00 -0.78673124580E+03  0.78673124580E+03  0.00000000000E+00 0. -1.
         23    2    1    2    0    0  0.62585180969E+02 -0.24577849229E+02 -0.15744810275E+03  0.19411650931E+03  0.91489554483E+02 0.  0.
        254    2    1    2    0    0 -0.62585180969E+02  0.24577849229E+02 -0.27642897303E+03  0.94546890652E+03  0.90165264959E+03 0.  0.
        -24    2    4    4    0    0 -0.90342330674E+01  0.28976225213E+03  0.22130757451E+03  0.37329476613E+03  0.79549731346E+02 0.  0.
         24    2    4    4    0    0 -0.53550947902E+02 -0.26518440290E+03 -0.49773654754E+03  0.57217414039E+03  0.80318768703E+02 0.  0.
         13    1    3    3    0    0  0.26264535834E+02  0.30223746816E+02 -0.27782411481E+02  0.48735645085E+02  0.00000000000E+00 0.  1.
        -13    1    3    3    0    0  0.36320645135E+02 -0.54801596045E+02 -0.12966569127E+03  0.14538086423E+03  0.00000000000E+00 0. -1.
          4    1    6    6  502    0 -0.23772505802E+02 -0.72490952888E+02 -0.76694236638E+02  0.10817613515E+03  0.00000000000E+00 0. -1.
          1    1    5    5  503    0  0.32203663019E+02  0.72565523750E+02  0.53292860399E+02  0.95618827218E+02  0.00000000000E+00 0. -1.
         -2    1    5    5    0  503 -0.41237896086E+02  0.21719672838E+03  0.16801471412E+03  0.27767593891E+03  0.00000000000E+00 0.  1.
         -3    1    6    6    0  502 -0.29778442099E+02 -0.19269345001E+03 -0.42104231091E+03  0.46399800524E+03  0.00000000000E+00 0.  1.
<mgrwt>
<rscale>  0 0.10537578E+04</rscale>
<asrwt>0</asrwt>
<pdfrwt beam="1">  1        2 0.12103557E+00 0.10537578E+04</pdfrwt>
<pdfrwt beam="2">  1       -2 0.54285258E-01 0.10537578E+04</pdfrwt>
<totfact> 0.11203380E+02</totfact>
</mgrwt>
</event>
<event>
12    1  0.1960998E-007  0.2658271E+04  0.7818608E-02  0.8348673E-01
         -2   -1    0    0    0  501 -0.00000000000E+00  0.00000000000E+00  0.12820148910E+04  0.12820148910E+04  0.00000000000E+00 0.  1.
          2   -1    0    0  501    0  0.00000000000E+00 -0.00000000000E+00 -0.13779880661E+04  0.13779880661E+04  0.00000000000E+00 0. -1.
         23    2    1    2    0    0  0.38022577678E+03  0.11041682649E+04 -0.16593278020E+03  0.11832152036E+04  0.93302368294E+02 0.  0.
        254    2    1    2    0    0 -0.38022577678E+03 -0.11041682649E+04  0.69959605186E+02  0.14767877535E+04  0.90124831437E+03 0.  0.
        -24    2    4    4    0    0 -0.12467641503E+03 -0.11863015249E+04  0.64120289647E+02  0.11972525340E+04  0.80291357493E+02 0.  0.
         24    2    4    4    0    0 -0.25554936174E+03  0.82133260040E+02  0.58393155391E+01  0.27953521956E+03  0.77810620595E+02 0.  0.
         13    1    3    3    0    0  0.26781730600E+03  0.86126943814E+03 -0.99306286193E+02  0.90739897121E+03  0.00000000000E+00 0.  1.
        -13    1    3    3    0    0  0.11240847077E+03  0.24289882673E+03 -0.66626494005E+02  0.27581623235E+03  0.00000000000E+00 0. -1.
          2    1    6    6  502    0 -0.12829704259E+03  0.42581443823E+02 -0.35952798798E+02  0.13987821216E+03  0.00000000000E+00 0. -1.
          1    1    5    5  503    0 -0.90963064725E+02 -0.50028296866E+03  0.16383648690E+02  0.50874920326E+03  0.00000000000E+00 0. -1.
         -2    1    5    5    0  503 -0.33713350307E+02 -0.68601855625E+03  0.47736640957E+02  0.68850333071E+03  0.00000000000E+00 0.  1.
         -1    1    6    6    0  502 -0.12725231916E+03  0.39551816217E+02  0.41792114337E+02  0.13965700741E+03  0.00000000000E+00 0.  1.
<mgrwt>
<rscale>  0 0.26582710E+04</rscale>
<asrwt>0</asrwt>
<pdfrwt beam="1">  1        2 0.21199816E+00 0.26582710E+04</pdfrwt>
<pdfrwt beam="2">  1       -2 0.19723306E+00 0.26582710E+04</pdfrwt>
<totfact> 0.18192507E+00</totfact>
</mgrwt>
</event>
<event>
12    1  0.1960998E-007  0.1699400E+04  0.7818608E-02  0.8761707E-01
         -1   -1    0    0    0  501 -0.00000000000E+00  0.00000000000E+00  0.28207174659E+03  0.28207174659E+03  0.00000000000E+00 0.  1.
          1   -1    0    0  501    0  0.00000000000E+00 -0.00000000000E+00 -0.25595968745E+04  0.25595968745E+04  0.00000000000E+00 0. -1.
         23    2    1    2    0    0 -0.19002089921E+03 -0.56928580371E+03 -0.99600935379E+03  0.11663967544E+04  0.90843201713E+02 0.  0.
        254    2    1    2    0    0  0.19002089921E+03  0.56928580371E+03 -0.12815157741E+04  0.16752718667E+04  0.89669330301E+03 0.  0.
        -24    2    4    4    0    0  0.51257018191E+03  0.19898051988E+03 -0.85653319868E+03  0.10210423930E+04  0.80975361170E+02 0.  0.
         24    2    4    4    0    0 -0.32254928270E+03  0.37030528382E+03 -0.42498257541E+03  0.65422947373E+03  0.79006150960E+02 0.  0.
         13    1    3    3    0    0 -0.45817607242E+02 -0.21075193136E+03 -0.42981910119E+03  0.48089509194E+03  0.00000000000E+00 0. -1.
        -13    1    3    3    0    0 -0.14420329197E+03 -0.35853387235E+03 -0.56619025260E+03  0.68550166242E+03  0.00000000000E+00 0.  1.
          2    1    6    6  502    0 -0.16536726224E+03  0.20317259246E+03 -0.27677486153E+03  0.38109022255E+03  0.00000000000E+00 0. -1.
          3    1    5    5  503    0  0.28976904362E+03  0.10786546315E+03 -0.40709131763E+03  0.51119898051E+03  0.00000000000E+00 0. -1.
         -4    1    5    5    0  503  0.22280113829E+03  0.91115056733E+02 -0.44944188104E+03  0.50984341245E+03  0.00000000000E+00 0.  1.
         -3    1    6    6    0  502 -0.15718202047E+03  0.16713269136E+03 -0.14820771388E+03  0.27313925118E+03  0.00000000000E+00 0.  1.
<mgrwt>
<rscale>  0 0.16993998E+04</rscale>
<asrwt>0</asrwt>
<pdfrwt beam="1">  1        1 0.39378414E+00 0.16993998E+04</pdfrwt>
<pdfrwt beam="2">  1       -1 0.43395653E-01 0.16993998E+04</pdfrwt>
<totfact> 0.61516389E+00</totfact>
</mgrwt>
</event>
<event>
12    1  0.2045972E-007  0.1826507E+04  0.7818608E-02  0.8692329E-01
          2   -1    0    0  501    0  0.00000000000E+00  0.00000000000E+00  0.12070470580E+04  0.12070470580E+04  0.00000000000E+00 0.  1.
         -2   -1    0    0    0  501 -0.00000000000E+00 -0.00000000000E+00 -0.69096872281E+03  0.69096872281E+03  0.00000000000E+00 0. -1.
         23    2    1    2    0    0  0.48073423223E+03  0.30140361656E+03  0.57895504655E+03  0.81522425357E+03  0.86325521011E+02 0.  0.
        254    2    1    2    0    0 -0.48073423223E+03 -0.30140361656E+03 -0.62876711409E+02  0.10827915272E+04  0.92007307776E+03 0.  0.
        -24    2    4    4    0    0  0.24765644004E+03 -0.11395976724E+03 -0.14959037314E+03  0.32152168293E+03  0.81721307012E+02 0.  0.
         24    2    4    4    0    0 -0.72839067226E+03 -0.18744384931E+03  0.86713661726E+02  0.76126984426E+03  0.79525773020E+02 0.  0.
         11    1    3    3    0    0  0.37621109384E+03  0.23893814614E+03  0.50147573319E+03  0.67089800699E+03  0.00000000000E+00 0.  1.
        -11    1    3    3    0    0  0.10452313839E+03  0.62465470413E+02  0.77479313358E+02  0.14432624658E+03  0.00000000000E+00 0. -1.
          4    1    6    6  502    0 -0.72731712345E+03 -0.18232639079E+03  0.89828403422E+02  0.75518358888E+03  0.00000000000E+00 0. -1.
          1    1    5    5  503    0  0.24539098667E+03 -0.94196647480E+02 -0.14778779881E+03  0.30154763838E+03  0.00000000000E+00 0. -1.
         -2    1    5    5    0  503  0.22654533664E+01 -0.19763119761E+02 -0.18025743281E+01  0.19974044554E+02  0.00000000000E+00 0.  1.
         -3    1    6    6    0  502 -0.10735488060E+01 -0.51174585260E+01 -0.31147416961E+01  0.60862553872E+01  0.00000000000E+00 0.  1.
<mgrwt>
<rscale>  0 0.18265068E+04</rscale>
<asrwt>0</asrwt>
<pdfrwt beam="1">  1        2 0.18569955E+00 0.18265068E+04</pdfrwt>
<pdfrwt beam="2">  1       -2 0.10630288E+00 0.18265068E+04</pdfrwt>
<totfact> 0.12612464E+01</totfact>
</mgrwt>
</event>
<event>
12    1  0.1960998E-007  0.1301482E+04  0.7818608E-02  0.9028391E-01
         -1   -1    0    0    0  501 -0.00000000000E+00  0.00000000000E+00  0.76209062572E+03  0.76209062572E+03  0.00000000000E+00 0.  1.
          1   -1    0    0  501    0  0.00000000000E+00 -0.00000000000E+00 -0.55566054379E+03  0.55566054379E+03  0.00000000000E+00 0. -1.
         23    2    1    2    0    0  0.28065875681E+03 -0.59528400765E+02 -0.11147796421E+03  0.31982426850E+03  0.86874955801E+02 0.  0.
        254    2    1    2    0    0 -0.28065875681E+03  0.59528400765E+02  0.31790804614E+03  0.99792690101E+03  0.90137650606E+03 0.  0.
        -24    2    4    4    0    0 -0.49144290790E+03 -0.25279794949E+03  0.15173780586E+03  0.57888956914E+03  0.81644574468E+02 0.  0.
         24    2    4    4    0    0  0.21078415109E+03  0.31232635025E+03  0.16617024028E+03  0.41903733187E+03  0.77472765100E+02 0.  0.
         13    1    3    3    0    0  0.24684951929E+03 -0.36967596632E+02 -0.12202396569E+03  0.27783292925E+03  0.00000000000E+00 0. -1.
        -13    1    3    3    0    0  0.33809237517E+02 -0.22560804133E+02  0.10546001475E+02  0.41991339247E+02  0.00000000000E+00 0.  1.
          2    1    6    6  502    0 -0.44573444125E+01  0.60715598730E+01 -0.31902825520E+01  0.81798325940E+01  0.00000000000E+00 0. -1.
          3    1    5    5  503    0 -0.53190335462E+01 -0.84830639841E+01 -0.69107393226E+01  0.12166051554E+02  0.00000000000E+00 0. -1.
         -4    1    5    5    0  503 -0.48612387435E+03 -0.24431488550E+03  0.15864854518E+03  0.56672351759E+03  0.00000000000E+00 0.  1.
         -1    1    6    6    0  502  0.21524149550E+03  0.30625479038E+03  0.16936052283E+03  0.41085749927E+03  0.00000000000E+00 0.  1.
<mgrwt>
<rscale>  0 0.13014818E+04</rscale>
<asrwt>0</asrwt>
<pdfrwt beam="1">  1        1 0.85486238E-01 0.13014818E+04</pdfrwt>
<pdfrwt beam="2">  1       -1 0.11724471E+00 0.13014818E+04</pdfrwt>
<totfact> 0.24617385E+01</totfact>
</mgrwt>
</event>
<event>
12    1  0.1960998E-007  0.1112265E+04  0.7818608E-02  0.9193319E-01
          1   -1    0    0  501    0  0.00000000000E+00  0.00000000000E+00  0.13943265902E+04  0.13943265902E+04  0.00000000000E+00 0. -1.
         -1   -1    0    0    0  501 -0.00000000000E+00 -0.00000000000E+00 -0.22181569826E+03  0.22181569826E+03  0.00000000000E+00 0.  1.
         23    2    1    2    0    0 -0.10379859437E+03  0.13327244159E+03  0.15604152561E+03  0.24834090032E+03  0.93747283574E+02 0.  0.
        254    2    1    2    0    0  0.10379859437E+03 -0.13327244159E+03  0.10164693663E+04  0.13678013882E+04  0.89951930097E+03 0.  0.
        -24    2    4    4    0    0  0.40972208068E+03  0.19406786176E+03  0.50189233920E+03  0.68083063325E+03  0.78101937638E+02 0.  0.
         24    2    4    4    0    0 -0.30592348632E+03 -0.32734030335E+03  0.51457702715E+03  0.68697075490E+03  0.79990296514E+02 0.  0.
         13    1    3    3    0    0 -0.46402267139E+02  0.64037747986E+02  0.13424250571E+03  0.15580453749E+03  0.00000000000E+00 0. -1.
        -13    1    3    3    0    0 -0.57396327227E+02  0.69234693608E+02  0.21799019901E+02  0.92536362835E+02  0.00000000000E+00 0.  1.
          2    1    6    6  502    0 -0.14589579355E+03 -0.10331267764E+03  0.22553304227E+03  0.28779201708E+03  0.00000000000E+00 0. -1.
          1    1    5    5  503    0  0.42924763638E+02 -0.15137096601E+01  0.32674132747E+02  0.53966893565E+02  0.00000000000E+00 0. -1.
         -2    1    5    5    0  503  0.36679731704E+03  0.19558157142E+03  0.46921820645E+03  0.62686373969E+03  0.00000000000E+00 0.  1.
         -1    1    6    6    0  502 -0.16002769277E+03 -0.22402762572E+03  0.28904398488E+03  0.39917873783E+03  0.00000000000E+00 0.  1.
<mgrwt>
<rscale>  0 0.11122653E+04</rscale>
<asrwt>0</asrwt>
<pdfrwt beam="1">  1        1 0.21451178E+00 0.11122653E+04</pdfrwt>
<pdfrwt beam="2">  1       -1 0.34125493E-01 0.11122653E+04</pdfrwt>
<totfact> 0.62654821E+01</totfact>
</mgrwt>
</event>
<event>
12    1  0.1960998E-007  0.1882424E+04  0.7818608E-02  0.8663655E-01
         -2   -1    0    0    0  501 -0.00000000000E+00  0.00000000000E+00  0.16325310586E+04  0.16325310586E+04  0.00000000000E+00 0.  1.
          2   -1    0    0  501    0  0.00000000000E+00 -0.00000000000E+00 -0.54264222563E+03  0.54264222563E+03  0.00000000000E+00 0. -1.
         23    2    1    2    0    0 -0.18441101986E+03  0.68158394678E+03  0.59662132299E+03  0.92887736072E+03  0.91060680128E+02 0.  0.
        254    2    1    2    0    0  0.18441101986E+03 -0.68158394678E+03  0.49326750995E+03  0.12462959235E+04  0.90076444853E+03 0.  0.
        -24    2    4    4    0    0 -0.25158396682E+03 -0.17666768556E+03 -0.11725009004E+03  0.33854302812E+03  0.79736031969E+02 0.  0.
         24    2    4    4    0    0  0.43599498668E+03 -0.50491626122E+03  0.61051759999E+03  0.90775289535E+03  0.79066553345E+02 0.  0.
         13    1    3    3    0    0 -0.94383643543E+02  0.40366164126E+03  0.40467983897E+03  0.57932440382E+03  0.00000000000E+00 0.  1.
        -13    1    3    3    0    0 -0.90027376315E+02  0.27792230552E+03  0.19194148402E+03  0.34955295690E+03  0.00000000000E+00 0. -1.
          2    1    6    6  502    0  0.37117937157E+03 -0.40120981891E+03  0.52992117159E+03  0.76128831120E+03  0.00000000000E+00 0. -1.
          3    1    5    5  503    0 -0.34031787325E+02 -0.59500423740E+02 -0.10387251977E+02  0.69327901868E+02  0.00000000000E+00 0. -1.
         -4    1    5    5    0  503 -0.21755217949E+03 -0.11716726182E+03 -0.10686283806E+03  0.26921512625E+03  0.00000000000E+00 0.  1.
         -1    1    6    6    0  502  0.64815615106E+02 -0.10370644231E+03  0.80596428403E+02  0.14646458415E+03  0.00000000000E+00 0.  1.
<mgrwt>
<rscale>  0 0.18824243E+04</rscale>
<asrwt>0</asrwt>
<pdfrwt beam="1">  1        2 0.83483420E-01 0.18824243E+04</pdfrwt>
<pdfrwt beam="2">  1       -2 0.25115862E+00 0.18824243E+04</pdfrwt>
<totfact> 0.33160916E+00</totfact>
</mgrwt>
</event>
<event>
12    1  0.1960998E-007  0.2289206E+04  0.7818608E-02  0.8482189E-01
         -2   -1    0    0    0  501 -0.00000000000E+00  0.00000000000E+00  0.84641030689E+03  0.84641030689E+03  0.00000000000E+00 0.  1.
          2   -1    0    0  501    0  0.00000000000E+00 -0.00000000000E+00 -0.15478499438E+04  0.15478499438E+04  0.00000000000E+00 0. -1.
         23    2    1    2    0    0  0.66037823821E+03  0.42764718701E+03 -0.88220198262E+03  0.11855312859E+04  0.90678320039E+02 0.  0.
        254    2    1    2    0    0 -0.66037823821E+03 -0.42764718701E+03  0.18076234574E+03  0.12087289647E+04  0.89964945977E+03 0.  0.
        -24    2    4    4    0    0 -0.61486213889E+03 -0.67886428105E+02 -0.22095967848E+03  0.66165316922E+03  0.79358174538E+02 0.  0.
         24    2    4    4    0    0 -0.45516099320E+02 -0.35976075891E+03  0.40172202422E+03  0.54707579550E+03  0.80073855465E+02 0.  0.
         13    1    3    3    0    0  0.64536587586E+03  0.40927087083E+03 -0.83022560499E+03  0.11283945740E+04  0.00000000000E+00 0.  1.
        -13    1    3    3    0    0  0.15012362349E+02  0.18376316185E+02 -0.51976377630E+02  0.57136711941E+02  0.00000000000E+00 0. -1.
          4    1    6    6  502    0  0.15253090948E+01  0.11449142959E+01 -0.25000561545E+01  0.31444677380E+01  0.00000000000E+00 0. -1.
          1    1    5    5  503    0 -0.37667520609E+02 -0.58205881572E+00 -0.35256347719E+02  0.51596423867E+02  0.00000000000E+00 0. -1.
         -2    1    5    5    0  503 -0.57719461828E+03 -0.67304369289E+02 -0.18570333076E+03  0.61005674536E+03  0.00000000000E+00 0.  1.
         -3    1    6    6    0  502 -0.47041408415E+02 -0.36090567320E+03  0.40422208038E+03  0.54393132776E+03  0.00000000000E+00 0.  1.
<mgrwt>
<rscale>  0 0.22892061E+04</rscale>
<asrwt>0</asrwt>
<pdfrwt beam="1">  1        2 0.23813076E+00 0.22892061E+04</pdfrwt>
<pdfrwt beam="2">  1       -2 0.13021697E+00 0.22892061E+04</pdfrwt>
<totfact> 0.46821721E+00</totfact>
</mgrwt>
</event>
<event>
12    1  0.1960998E-007  0.1851299E+04  0.7818608E-02  0.8679485E-01
          1   -1    0    0  501    0  0.00000000000E+00  0.00000000000E+00  0.11564144805E+04  0.11564144805E+04  0.00000000000E+00 0. -1.
         -1   -1    0    0    0  501 -0.00000000000E+00 -0.00000000000E+00 -0.74093411551E+03  0.74093411551E+03  0.00000000000E+00 0.  1.
         23    2    1    2    0    0  0.50268915145E+03  0.39712610436E+03  0.45799509090E+03  0.79201351816E+03  0.84382367321E+02 0.  0.
        254    2    1    2    0    0 -0.50268915145E+03 -0.39712610436E+03 -0.42514725946E+02  0.11053350778E+04  0.89975141376E+03 0.  0.
        -24    2    4    4    0    0  0.19780178191E+03  0.64749542589E+02 -0.13003434942E+03  0.25841380468E+03  0.80936482689E+02 0.  0.
         24    2    4    4    0    0 -0.70049093336E+03 -0.46187564695E+03  0.87519623472E+02  0.84692127312E+03  0.74828453216E+02 0.  0.
         13    1    3    3    0    0  0.33834440220E+03  0.21957948033E+03  0.30610258797E+03  0.50635054759E+03  0.00000000000E+00 0. -1.
        -13    1    3    3    0    0  0.16434474925E+03  0.17754662403E+03  0.15189250293E+03  0.28566297057E+03  0.00000000000E+00 0.  1.
          2    1    6    6  502    0 -0.60180613192E+03 -0.42213180376E+03  0.63331669251E+02  0.73781893476E+03  0.00000000000E+00 0. -1.
          1    1    5    5  503    0  0.13638510648E+03  0.53355584206E+02 -0.45600190303E+02  0.15338543930E+03  0.00000000000E+00 0. -1.
         -2    1    5    5    0  503  0.61416675434E+02  0.11393958383E+02 -0.84434159116E+02  0.10502836538E+03  0.00000000000E+00 0.  1.
         -1    1    6    6    0  502 -0.98684801436E+02 -0.39743843192E+02  0.24187954221E+02  0.10910233836E+03  0.00000000000E+00 0.  1.
<mgrwt>
<rscale>  0 0.18512989E+04</rscale>
<asrwt>0</asrwt>
<pdfrwt beam="1">  1        1 0.17790992E+00 0.18512989E+04</pdfrwt>
<pdfrwt beam="2">  1       -1 0.11398986E+00 0.18512989E+04</pdfrwt>
<totfact> 0.75792518E+00</totfact>
</mgrwt>
</event>
<event>
12    1  0.1960998E-007  0.1601129E+04  0.7818608E-02  0.8819855E-01
         -1   -1    0    0    0  501 -0.00000000000E+00  0.00000000000E+00  0.63014703255E+03  0.63014703255E+03  0.00000000000E+00 0.  1.
          1   -1    0    0  501    0  0.00000000000E+00 -0.00000000000E+00 -0.10170693951E+04  0.10170693951E+04  0.00000000000E+00 0. -1.
         23    2    1    2    0    0 -0.20743647404E+03 -0.26345738554E+03  0.30977601540E+03  0.46561039092E+03  0.91608796863E+02 0.  0.
        254    2    1    2    0    0  0.20743647404E+03  0.26345738554E+03 -0.69669837791E+03  0.11816060367E+04  0.89351245732E+03 0.  0.
        -24    2    4    4    0    0  0.44303151105E+03 -0.87878738856E+02 -0.57340225919E+03  0.73421825592E+03  0.79288737899E+02 0.  0.
         24    2    4    4    0    0 -0.23559503701E+03  0.35133612440E+03 -0.12329611872E+03  0.44738778077E+03  0.77535796356E+02 0.  0.
         13    1    3    3    0    0 -0.11470173215E+02 -0.51680013124E+01  0.45870857580E+02  0.47564784098E+02  0.00000000000E+00 0. -1.
        -13    1    3    3    0    0 -0.19596630082E+03 -0.25828938423E+03  0.26390515782E+03  0.41804560683E+03  0.00000000000E+00 0.  1.
          4    1    6    6  502    0 -0.59808701437E+02  0.13519327535E+03 -0.70688700264E+02  0.16386334188E+03  0.00000000000E+00 0. -1.
          1    1    5    5  503    0  0.13754893752E+03 -0.59027815732E+02 -0.22144082968E+03  0.26728268611E+03  0.00000000000E+00 0. -1.
         -2    1    5    5    0  503  0.30548257353E+03 -0.28850923124E+02 -0.35196142951E+03  0.46693556981E+03  0.00000000000E+00 0.  1.
         -3    1    6    6    0  502 -0.17578633557E+03  0.21614284905E+03 -0.52607418461E+02  0.28352443889E+03  0.00000000000E+00 0.  1.
<mgrwt>
<rscale>  0 0.16011287E+04</rscale>
<asrwt>0</asrwt>
<pdfrwt beam="1">  1        1 0.15647221E+00 0.16011287E+04</pdfrwt>
<pdfrwt beam="2">  1       -1 0.96945698E-01 0.16011287E+04</pdfrwt>
<totfact> 0.14404149E+01</totfact>
</mgrwt>
</event>
<event>
12    1  0.1960998E-007  0.1615919E+04  0.7818608E-02  0.8810828E-01
         -2   -1    0    0    0  501 -0.00000000000E+00  0.00000000000E+00  0.60731742435E+03  0.60731742435E+03  0.00000000000E+00 0.  1.
          2   -1    0    0  501    0  0.00000000000E+00 -0.00000000000E+00 -0.10748886687E+04  0.10748886687E+04  0.00000000000E+00 0. -1.
         23    2    1    2    0    0 -0.43378804384E+03  0.18252500208E+03  0.13894026271E+03  0.49926564811E+03  0.92056218782E+02 0.  0.
        254    2    1    2    0    0  0.43378804384E+03 -0.18252500208E+03 -0.60651150708E+03  0.11829404449E+04  0.90000246927E+03 0.  0.
        -24    2    4    4    0    0  0.62833875250E+03 -0.34119778157E+03 -0.30202143474E+03  0.78030178446E+03  0.80177389328E+02 0.  0.
         24    2    4    4    0    0 -0.19455070865E+03  0.15867277948E+03 -0.30449007234E+03  0.40263866048E+03  0.79853976577E+02 0.  0.
         11    1    3    3    0    0 -0.26412871623E+02  0.33483836270E+02 -0.32538836213E+01  0.42771425477E+02  0.00000000000E+00 0. -1.
        -11    1    3    3    0    0 -0.40737517222E+03  0.14904116581E+03  0.14219414633E+03  0.45649422264E+03  0.00000000000E+00 0.  1.
          4    1    6    6  502    0  0.17466827524E+01 -0.12705465192E+01  0.33841555528E+01  0.40146852804E+01  0.00000000000E+00 0. -1.
          1    1    5    5  503    0  0.23590635753E+03 -0.10577049380E+03 -0.14536014570E+03  0.29659531156E+03  0.00000000000E+00 0. -1.
         -2    1    5    5    0  503  0.39243239497E+03 -0.23542728777E+03 -0.15666128904E+03  0.48370647290E+03  0.00000000000E+00 0.  1.
         -3    1    6    6    0  502 -0.19629739140E+03  0.15994332600E+03 -0.30787422789E+03  0.39862397520E+03  0.00000000000E+00 0.  1.
<mgrwt>
<rscale>  0 0.16159191E+04</rscale>
<asrwt>0</asrwt>
<pdfrwt beam="1">  1        2 0.16536749E+00 0.16159191E+04</pdfrwt>
<pdfrwt beam="2">  1       -2 0.93433450E-01 0.16159191E+04</pdfrwt>
<totfact> 0.20960159E+01</totfact>
</mgrwt>
</event>
<event>
12    1  0.1960998E-007  0.1963420E+04  0.7818608E-02  0.8623916E-01
          1   -1    0    0  501    0  0.00000000000E+00  0.00000000000E+00  0.12182574221E+04  0.12182574221E+04  0.00000000000E+00 0. -1.
         -1   -1    0    0    0  501 -0.00000000000E+00 -0.00000000000E+00 -0.79109299599E+03  0.79109299599E+03  0.00000000000E+00 0.  1.
         23    2    1    2    0    0  0.54983699446E+03 -0.45026426308E+03  0.46688921761E+03  0.85516309579E+03  0.90883176597E+02 0.  0.
        254    2    1    2    0    0 -0.54983699446E+03  0.45026426308E+03 -0.39724791449E+02  0.11541873223E+04  0.90857673805E+03 0.  0.
        -24    2    4    4    0    0 -0.72720354543E+03  0.31700317942E+03  0.19606876241E+03  0.82097508851E+03  0.79000785565E+02 0.  0.
         24    2    4    4    0    0  0.17736655096E+03  0.13326108366E+03 -0.23579355386E+03  0.33321223383E+03  0.78831357442E+02 0.  0.
         13    1    3    3    0    0  0.10854133705E+03 -0.49462866032E+02  0.95495552562E+02  0.15279789764E+03  0.00000000000E+00 0. -1.
        -13    1    3    3    0    0  0.44129565741E+03 -0.40080139705E+03  0.37139366505E+03  0.70236519814E+03  0.00000000000E+00 0.  1.
          2    1    6    6  502    0  0.15593856228E+02  0.43636738156E+02 -0.24513449157E+02  0.52423682230E+02  0.00000000000E+00 0. -1.
          1    1    5    5  503    0 -0.10832622189E+03  0.46844304885E+02  0.75863242507E+00  0.11802345009E+03  0.00000000000E+00 0. -1.
         -2    1    5    5    0  503 -0.61887732354E+03  0.27015887454E+03  0.19531012999E+03  0.70295163842E+03  0.00000000000E+00 0.  1.
         -1    1    6    6    0  502  0.16177269473E+03  0.89624345503E+02 -0.21128010470E+03  0.28078855161E+03  0.00000000000E+00 0.  1.
<mgrwt>
<rscale>  0 0.19634204E+04</rscale>
<asrwt>0</asrwt>
<pdfrwt beam="1">  1        1 0.18742422E+00 0.19634204E+04</pdfrwt>
<pdfrwt beam="2">  1       -1 0.12170662E+00 0.19634204E+04</pdfrwt>
<totfact> 0.57664058E+00</totfact>
</mgrwt>
</event>
<event>
12    1  0.1960998E-007  0.1409533E+04  0.7818608E-02  0.8946947E-01
         -1   -1    0    0    0  501 -0.00000000000E+00  0.00000000000E+00  0.19073122214E+03  0.19073122214E+03  0.00000000000E+00 0.  1.
          1   -1    0    0  501    0  0.00000000000E+00 -0.00000000000E+00 -0.26041659162E+04  0.26041659162E+04  0.00000000000E+00 0. -1.
         23    2    1    2    0    0  0.70093361749E+02  0.33570182369E+03 -0.11660755386E+04  0.12185743444E+04  0.87077421868E+02 0.  0.
        254    2    1    2    0    0 -0.70093361749E+02 -0.33570182369E+03 -0.12473591554E+04  0.15763227939E+04  0.90071077161E+03 0.  0.
        -24    2    4    4    0    0  0.42379895261E+02  0.13075775183E+03 -0.10332626147E+04  0.10450397444E+04  0.74718078661E+02 0.  0.
         24    2    4    4    0    0 -0.11247325701E+03 -0.46645957552E+03 -0.21409654068E+03  0.53128304943E+03  0.78673888591E+02 0.  0.
         13    1    3    3    0    0  0.36899535506E+02  0.17522706504E+03 -0.45750568060E+03  0.49130189072E+03  0.00000000000E+00 0.  1.
        -13    1    3    3    0    0  0.33193826243E+02  0.16047475865E+03 -0.70856985801E+03  0.72727245372E+03  0.00000000000E+00 0. -1.
          2    1    6    6  502    0 -0.10806853237E+03 -0.40995208576E+03 -0.21331783466E+03  0.47459879782E+03  0.00000000000E+00 0. -1.
          3    1    5    5  503    0  0.46255318490E+02  0.83432621234E+02 -0.45850405265E+03  0.46832309688E+03  0.00000000000E+00 0. -1.
         -4    1    5    5    0  503 -0.38754232290E+01  0.47325130593E+02 -0.57475856208E+03  0.57671664756E+03  0.00000000000E+00 0.  1.
         -1    1    6    6    0  502 -0.44047246410E+01 -0.56507489755E+02 -0.77870602473E+00  0.56684251611E+02  0.00000000000E+00 0.  1.
<mgrwt>
<rscale>  0 0.14095329E+04</rscale>
<asrwt>0</asrwt>
<pdfrwt beam="1">  1        1 0.40064088E+00 0.14095329E+04</pdfrwt>
<pdfrwt beam="2">  1       -1 0.29343267E-01 0.14095329E+04</pdfrwt>
<totfact> 0.11895717E+01</totfact>
</mgrwt>
</event>
<event>
12    1  0.1960998E-007  0.1691993E+04  0.7818608E-02  0.8765944E-01
          1   -1    0    0  501    0  0.00000000000E+00  0.00000000000E+00  0.79075572556E+03  0.79075572556E+03  0.00000000000E+00 0. -1.
         -1   -1    0    0    0  501 -0.00000000000E+00 -0.00000000000E+00 -0.90509610116E+03  0.90509610116E+03  0.00000000000E+00 0.  1.
         23    2    1    2    0    0 -0.61159386158E+02  0.37834696721E+03  0.42981427323E+03  0.58281185306E+03  0.89679699352E+02 0.  0.
        254    2    1    2    0    0  0.61159386158E+02 -0.37834696721E+03 -0.54415464884E+03  0.11130399737E+04  0.89211367158E+03 0.  0.
        -24    2    4    4    0    0 -0.51010969101E+02 -0.40634145800E+03 -0.75313646491E+03  0.86101397886E+03  0.80093929534E+02 0.  0.
         24    2    4    4    0    0  0.11217035526E+03  0.27994490782E+02  0.20898181608E+03  0.25202599481E+03  0.80484920928E+02 0.  0.
         13    1    3    3    0    0 -0.58011294191E+02  0.24805540314E+03  0.22411336408E+03  0.33929867851E+03  0.00000000000E+00 0. -1.
        -13    1    3    3    0    0 -0.31480919666E+01  0.13029156408E+03  0.20570090915E+03  0.24351317455E+03  0.00000000000E+00 0.  1.
          2    1    6    6  502    0  0.96611031489E+02 -0.12255017410E+02  0.15258365014E+03  0.18101283697E+03  0.00000000000E+00 0. -1.
          1    1    5    5  503    0 -0.69602790258E+02 -0.27683477983E+03 -0.54348902128E+03  0.61389116298E+03  0.00000000000E+00 0. -1.
         -2    1    5    5    0  503  0.18591821157E+02 -0.12950667817E+03 -0.20964744363E+03  0.24712281587E+03  0.00000000000E+00 0.  1.
         -1    1    6    6    0  502  0.15559323770E+02  0.40249508192E+02  0.56398165939E+02  0.71013157845E+02  0.00000000000E+00 0.  1.
<mgrwt>
<rscale>  0 0.16919928E+04</rscale>
<asrwt>0</asrwt>
<pdfrwt beam="1">  1        1 0.12165473E+00 0.16919928E+04</pdfrwt>
<pdfrwt beam="2">  1       -1 0.13924555E+00 0.16919928E+04</pdfrwt>
<totfact> 0.91203663E+00</totfact>
</mgrwt>
</event>
<event>
12    1  0.1960998E-007  0.2724907E+04  0.7818608E-02  0.8326969E-01
          1   -1    0    0  501    0  0.00000000000E+00  0.00000000000E+00  0.13074995080E+04  0.13074995080E+04  0.00000000000E+00 0. -1.
         -1   -1    0    0    0  501 -0.00000000000E+00 -0.00000000000E+00 -0.14197169009E+04  0.14197169009E+04  0.00000000000E+00 0.  1.
         23    2    1    2    0    0  0.44221057323E+03  0.11325688005E+04 -0.50120268029E+02  0.12202172210E+04  0.90309170407E+02 0.  0.
        254    2    1    2    0    0 -0.44221057323E+03 -0.11325688005E+04 -0.62097124862E+02  0.15069991879E+04  0.88821631403E+03 0.  0.
        -24    2    4    4    0    0 -0.44984980151E+03 -0.36396503620E+03 -0.35149771394E+03  0.68185990196E+03  0.80912863591E+02 0.  0.
         24    2    4    4    0    0  0.76392282800E+01 -0.76860376431E+03  0.28940058907E+03  0.82513928597E+03  0.79322354764E+02 0.  0.
         11    1    3    3    0    0  0.45255547452E+02  0.11144517604E+03  0.22001505416E+02  0.12227901733E+03  0.00000000000E+00 0. -1.
        -11    1    3    3    0    0  0.39695502578E+03  0.10211236245E+04 -0.72121773445E+02  0.10979382037E+04  0.00000000000E+00 0.  1.
          2    1    6    6  502    0 -0.11420686938E+01 -0.30717634946E+03  0.15720647043E+03  0.34506881681E+03  0.00000000000E+00 0. -1.
          1    1    5    5  503    0 -0.33199550692E+03 -0.22095234435E+03 -0.24744679078E+03  0.46933023486E+03  0.00000000000E+00 0. -1.
         -2    1    5    5    0  503 -0.11785429459E+03 -0.14301269186E+03 -0.10405092315E+03  0.21252966709E+03  0.00000000000E+00 0.  1.
         -1    1    6    6    0  502  0.87812969738E+01 -0.46142741486E+03  0.13219411865E+03  0.48007046916E+03  0.00000000000E+00 0.  1.
<mgrwt>
<rscale>  0 0.27249067E+04</rscale>
<asrwt>0</asrwt>
<pdfrwt beam="1">  1        1 0.20115377E+00 0.27249067E+04</pdfrwt>
<pdfrwt beam="2">  1       -1 0.21841798E+00 0.27249067E+04</pdfrwt>
<totfact> 0.87793105E-01</totfact>
</mgrwt>
</event>
<event>
12    1  0.1960998E-007  0.1475451E+04  0.7818608E-02  0.8900944E-01
          2   -1    0    0  501    0  0.00000000000E+00  0.00000000000E+00  0.14162270216E+04  0.14162270216E+04  0.00000000000E+00 0. -1.
         -2   -1    0    0    0  501 -0.00000000000E+00 -0.00000000000E+00 -0.38428766161E+03  0.38428766161E+03  0.00000000000E+00 0.  1.
         23    2    1    2    0    0 -0.40188270379E+03  0.96290398642E+02  0.55921386220E+03  0.70118473682E+03  0.90323546170E+02 0.  0.
        254    2    1    2    0    0  0.40188270379E+03 -0.96290398642E+02  0.47272549777E+03  0.10993299464E+04  0.90237208859E+03 0.  0.
        -24    2    4    4    0    0 -0.28369071075E+03 -0.17211646669E+01  0.16130385529E+03  0.33613815259E+03  0.80539072019E+02 0.  0.
         24    2    4    4    0    0  0.68557341454E+03 -0.94569233975E+02  0.31142164247E+03  0.76319179377E+03  0.80771455029E+02 0.  0.
         11    1    3    3    0    0 -0.21694994307E+03  0.22821423346E+02  0.35025521731E+03  0.41263399329E+03  0.00000000000E+00 0. -1.
        -11    1    3    3    0    0 -0.18493276072E+03  0.73468975295E+02  0.20895864489E+03  0.28855074353E+03  0.00000000000E+00 0.  1.
          2    1    6    6  502    0  0.66090723686E+03 -0.75421756318E+02  0.30226617388E+03  0.73065152907E+03  0.00000000000E+00 0. -1.
          3    1    5    5  503    0 -0.19415967320E+03  0.15146380415E+02  0.14680995682E+03  0.24388635665E+03  0.00000000000E+00 0. -1.
         -4    1    5    5    0  503 -0.89531037551E+02 -0.16867545081E+02  0.14493898469E+02  0.92251795943E+02  0.00000000000E+00 0.  1.
         -1    1    6    6    0  502  0.24666177683E+02 -0.19147477657E+02  0.91554685870E+01  0.32540264706E+02  0.00000000000E+00 0.  1.
<mgrwt>
<rscale>  0 0.14754505E+04</rscale>
<asrwt>0</asrwt>
<pdfrwt beam="1">  1        2 0.21788108E+00 0.14754505E+04</pdfrwt>
<pdfrwt beam="2">  1       -2 0.59121179E-01 0.14754505E+04</pdfrwt>
<totfact> 0.36630476E+01</totfact>
</mgrwt>
</event>
<event>
12    1  0.1960998E-007  0.1908746E+04  0.7818608E-02  0.8650515E-01
          1   -1    0    0  501    0  0.00000000000E+00  0.00000000000E+00  0.87941190485E+03  0.87941190485E+03  0.00000000000E+00 0. -1.
         -1   -1    0    0    0  501 -0.00000000000E+00 -0.00000000000E+00 -0.10357236744E+04  0.10357236744E+04  0.00000000000E+00 0.  1.
         23    2    1    2    0    0  0.50722871428E+03  0.50093030189E+03  0.14536425115E+03  0.73330224873E+03  0.91593048583E+02 0.  0.
        254    2    1    2    0    0 -0.50722871428E+03 -0.50093030189E+03 -0.30167602068E+03  0.11818333305E+04  0.89303385361E+03 0.  0.
        -24    2    4    4    0    0  0.11296152055E+03 -0.49138715580E+03 -0.20368483668E+03  0.54912968924E+03  0.76382333688E+02 0.  0.
         24    2    4    4    0    0 -0.62019023483E+03 -0.95431460847E+01 -0.97991183998E+02  0.63270364126E+03  0.77360367769E+02 0.  0.
         13    1    3    3    0    0  0.21704082945E+03  0.25986798249E+03  0.35852013150E+02  0.34047533951E+03  0.00000000000E+00 0.  1.
        -13    1    3    3    0    0  0.29018788483E+03  0.24106231940E+03  0.10951223800E+03  0.39282690922E+03  0.00000000000E+00 0. -1.
          2    1    6    6  502    0 -0.47527795222E+03 -0.96288692890E+01 -0.41550287287E+02  0.47718788057E+03  0.00000000000E+00 0. -1.
          1    1    5    5  503    0  0.10163508010E+03 -0.44208906769E+03 -0.20662043360E+03  0.49846207164E+03  0.00000000000E+00 0. -1.
         -2    1    5    5    0  503  0.11326440455E+02 -0.49298088111E+02  0.29355969142E+01  0.50667617607E+02  0.00000000000E+00 0.  1.
         -1    1    6    6    0  502 -0.14491228261E+03  0.85723204280E-01 -0.56440896712E+02  0.15551576068E+03  0.00000000000E+00 0.  1.
<mgrwt>
<rscale>  0 0.19087459E+04</rscale>
<asrwt>0</asrwt>
<pdfrwt beam="1">  1        1 0.13529414E+00 0.19087459E+04</pdfrwt>
<pdfrwt beam="2">  1       -1 0.15934210E+00 0.19087459E+04</pdfrwt>
<totfact> 0.52302483E+00</totfact>
</mgrwt>
</event>
<event>
12    1  0.1960998E-007  0.2465077E+04  0.7818608E-02  0.8415534E-01
         -2   -1    0    0    0  501 -0.00000000000E+00  0.00000000000E+00  0.86452849403E+03  0.86452849403E+03  0.00000000000E+00 0.  1.
          2   -1    0    0  501    0  0.00000000000E+00 -0.00000000000E+00 -0.17572016337E+04  0.17572016337E+04  0.00000000000E+00 0. -1.
         23    2    1    2    0    0  0.23102598080E+03  0.10162010681E+04 -0.15152339778E+03  0.10569688849E+04  0.90478002660E+02 0.  0.
        254    2    1    2    0    0 -0.23102598080E+03 -0.10162010681E+04 -0.74114974191E+03  0.15647612429E+04  0.90174120057E+03 0.  0.
        -24    2    4    4    0    0 -0.48377194700E+03 -0.99507481815E+03 -0.58404975714E+03  0.12536888302E+04  0.80077299072E+02 0.  0.
         24    2    4    4    0    0  0.25274596619E+03 -0.21126249904E+02 -0.15709998477E+03  0.31107241265E+03  0.88084044168E+02 0.  0.
         11    1    3    3    0    0  0.14228868526E+03  0.78168712122E+03 -0.13253310759E+03  0.80550968340E+03  0.00000000000E+00 0.  1.
        -11    1    3    3    0    0  0.88737295541E+02  0.23451394683E+03 -0.18990290187E+02  0.25145920146E+03  0.00000000000E+00 0. -1.
          2    1    6    6  502    0  0.12853693570E+03  0.21423506913E+02 -0.43278021562E+02  0.13730876752E+03  0.00000000000E+00 0. -1.
          1    1    5    5  503    0 -0.44380829153E+03 -0.95312758406E+03 -0.55463520579E+03  0.11887128344E+04  0.00000000000E+00 0. -1.
         -2    1    5    5    0  503 -0.39963655463E+02 -0.41947234092E+02 -0.29414551356E+02  0.64975995855E+02  0.00000000000E+00 0.  1.
         -1    1    6    6    0  502  0.12420903050E+03 -0.42549756818E+02 -0.11382196321E+03  0.17376364513E+03  0.00000000000E+00 0.  1.
<mgrwt>
<rscale>  0 0.24650768E+04</rscale>
<asrwt>0</asrwt>
<pdfrwt beam="1">  1        2 0.27033871E+00 0.24650768E+04</pdfrwt>
<pdfrwt beam="2">  1       -2 0.13300438E+00 0.24650768E+04</pdfrwt>
<totfact> 0.33411994E+00</totfact>
</mgrwt>
</event>
<event>
12    1  0.1960998E-007  0.3290190E+04  0.7818608E-02  0.8165396E-01
         -2   -1    0    0    0  501 -0.00000000000E+00  0.00000000000E+00  0.75246873373E+03  0.75246873373E+03  0.00000000000E+00 0.  1.
          2   -1    0    0  501    0  0.00000000000E+00 -0.00000000000E+00 -0.35966120660E+04  0.35966120660E+04  0.00000000000E+00 0. -1.
         23    2    1    2    0    0  0.10670821332E+04  0.84681877278E+03 -0.42324224765E+03  0.14290607248E+04  0.85523342747E+02 0.  0.
        254    2    1    2    0    0 -0.10670821332E+04 -0.84681877278E+03 -0.24209010846E+04  0.29200200749E+04  0.89999381311E+03 0.  0.
        -24    2    4    4    0    0 -0.88708017443E+03 -0.40097384975E+03 -0.21498742598E+04  0.23615836668E+04  0.86178991168E+02 0.  0.
         24    2    4    4    0    0 -0.18000195873E+03 -0.44584492303E+03 -0.27102682484E+03  0.55843640810E+03  0.84954585337E+02 0.  0.
         13    1    3    3    0    0  0.50743572017E+03  0.43132054104E+03 -0.16870805475E+03  0.68701588553E+03  0.00000000000E+00 0. -1.
        -13    1    3    3    0    0  0.55964641299E+03  0.41549823174E+03 -0.25453419290E+03  0.74204483928E+03  0.00000000000E+00 0.  1.
          4    1    6    6  502    0 -0.40884223635E+02 -0.46315750470E+02 -0.58142076951E+02  0.84836133787E+02  0.00000000000E+00 0. -1.
          3    1    5    5  503    0 -0.10565212722E+03 -0.28574025047E+02 -0.29556240187E+03  0.31517610996E+03  0.00000000000E+00 0. -1.
         -4    1    5    5    0  503 -0.78142804721E+03 -0.37239982470E+03 -0.18543118579E+04  0.20464075569E+04  0.00000000000E+00 0.  1.
         -3    1    6    6    0  502 -0.13911773509E+03 -0.39952917256E+03 -0.21288474789E+03  0.47360027432E+03  0.00000000000E+00 0.  1.
<mgrwt>
<rscale>  0 0.32901903E+04</rscale>
<asrwt>0</asrwt>
<pdfrwt beam="1">  1        2 0.55332494E+00 0.32901903E+04</pdfrwt>
<pdfrwt beam="2">  1       -2 0.11576442E+00 0.32901903E+04</pdfrwt>
<totfact> 0.33617426E-01</totfact>
</mgrwt>
</event>
<event>
12    1  0.1960998E-007  0.1200899E+04  0.7818608E-02  0.9112070E-01
          2   -1    0    0  501    0  0.00000000000E+00  0.00000000000E+00  0.46348167919E+03  0.46348167919E+03  0.00000000000E+00 0. -1.
         -2   -1    0    0    0  501 -0.00000000000E+00 -0.00000000000E+00 -0.77789421998E+03  0.77789421998E+03  0.00000000000E+00 0.  1.
         23    2    1    2    0    0 -0.15430283326E+03 -0.19825121706E+03 -0.58978181589E+02  0.27341403502E+03  0.90354298331E+02 0.  0.
        254    2    1    2    0    0  0.15430283326E+03  0.19825121706E+03 -0.25543435920E+03  0.96796186415E+03  0.89921663083E+03 0.  0.
        -24    2    4    4    0    0 -0.10088695780E+03 -0.46172658775E+02 -0.50888793184E+03  0.52605401184E+03  0.73863411307E+02 0.  0.
         24    2    4    4    0    0  0.25518979106E+03  0.24442387583E+03  0.25345357264E+03  0.44190785231E+03  0.78606462291E+02 0.  0.
         11    1    3    3    0    0 -0.47356079603E+02 -0.70358503005E+01 -0.96639912140E+01  0.48841521179E+02  0.00000000000E+00 0.  1.
        -11    1    3    3    0    0 -0.10694675365E+03 -0.19121536676E+03 -0.49314190375E+02  0.22457251384E+03  0.00000000000E+00 0. -1.
          2    1    6    6  502    0  0.77453143226E+02  0.29086373367E+02  0.61070338122E+02  0.10283283867E+03  0.00000000000E+00 0. -1.
          3    1    5    5  503    0 -0.59447985574E+02 -0.33776566015E+01 -0.13636384759E+03  0.14879707820E+03  0.00000000000E+00 0. -1.
         -4    1    5    5    0  503 -0.41438972227E+02 -0.42795002173E+02 -0.37252408425E+03  0.37725693364E+03  0.00000000000E+00 0.  1.
         -1    1    6    6    0  502  0.17773664783E+03  0.21533750247E+03  0.19238323451E+03  0.33907501364E+03  0.00000000000E+00 0.  1.
<mgrwt>
<rscale>  0 0.12008992E+04</rscale>
<asrwt>0</asrwt>
<pdfrwt beam="1">  1        2 0.71304875E-01 0.12008992E+04</pdfrwt>
<pdfrwt beam="2">  1       -2 0.11967603E+00 0.12008992E+04</pdfrwt>
<totfact> 0.35450162E+01</totfact>
</mgrwt>
</event>
<event>
12    1  0.1960998E-007  0.2018223E+04  0.7818608E-02  0.8598148E-01
         -2   -1    0    0    0  501 -0.00000000000E+00  0.00000000000E+00  0.13720781962E+04  0.13720781962E+04  0.00000000000E+00 0.  1.
          2   -1    0    0  501    0  0.00000000000E+00 -0.00000000000E+00 -0.74216309742E+03  0.74216309742E+03  0.00000000000E+00 0. -1.
         23    2    1    2    0    0  0.20472917184E+03  0.77783678338E+03  0.23198715039E+03  0.84216311487E+03  0.92068337214E+02 0.  0.
        254    2    1    2    0    0 -0.20472917184E+03 -0.77783678338E+03  0.39792794837E+03  0.12720781787E+04  0.90160531572E+03 0.  0.
        -24    2    4    4    0    0 -0.48917556226E+03 -0.26053924439E+03  0.74638424552E+01  0.55997342042E+03  0.79630986764E+02 0.  0.
         24    2    4    4    0    0  0.28444639042E+03 -0.51729753899E+03  0.39046410591E+03  0.71210475832E+03  0.78259031064E+02 0.  0.
         11    1    3    3    0    0  0.16146011763E+03  0.46749816300E+03  0.11575878735E+03  0.50796062726E+03  0.00000000000E+00 0. -1.
        -11    1    3    3    0    0  0.43269054209E+02  0.31033862038E+03  0.11622836303E+03  0.33420248761E+03  0.00000000000E+00 0.  1.
          4    1    6    6  502    0  0.92965994139E+02 -0.11915118114E+03  0.71438548461E+02  0.16716203588E+03  0.00000000000E+00 0. -1.
          1    1    5    5  503    0 -0.15787033742E+03 -0.44317805048E+02  0.10954759624E+02  0.16433842533E+03  0.00000000000E+00 0. -1.
         -2    1    5    5    0  503 -0.33130522484E+03 -0.21622143934E+03 -0.34909171683E+01  0.39563499509E+03  0.00000000000E+00 0.  1.
         -1    1    6    6    0  502  0.19148039628E+03 -0.39814635785E+03  0.31902555745E+03  0.54494272244E+03  0.00000000000E+00 0.  1.
<mgrwt>
<rscale>  0 0.20182228E+04</rscale>
<asrwt>0</asrwt>
<pdfrwt beam="1">  1        2 0.11417894E+00 0.20182228E+04</pdfrwt>
<pdfrwt beam="2">  1       -2 0.21108895E+00 0.20182228E+04</pdfrwt>
<totfact> 0.39713910E+00</totfact>
</mgrwt>
</event>
<event>
12    1  0.1960998E-007  0.2376273E+04  0.7818608E-02  0.8448440E-01
         -2   -1    0    0    0  501 -0.00000000000E+00  0.00000000000E+00  0.70246061128E+03  0.70246061128E+03  0.00000000000E+00 0.  1.
          2   -1    0    0  501    0  0.00000000000E+00 -0.00000000000E+00 -0.20096045823E+04  0.20096045823E+04  0.00000000000E+00 0. -1.
         23    2    1    2    0    0  0.89759104844E+03 -0.38103225932E+03 -0.25071514069E+03  0.10110915213E+04  0.92696870246E+02 0.  0.
        254    2    1    2    0    0 -0.89759104844E+03  0.38103225932E+03 -0.10564288303E+04  0.17009736723E+04  0.90907331244E+03 0.  0.
        -24    2    4    4    0    0 -0.73438085097E+03  0.50831024277E+03 -0.35307966530E+03  0.96365938251E+03  0.79244042502E+02 0.  0.
         24    2    4    4    0    0 -0.16321019747E+03 -0.12727798345E+03 -0.70334916501E+03  0.73731428977E+03  0.78070867466E+02 0.  0.
         13    1    3    3    0    0  0.73891564049E+03 -0.30410719704E+03 -0.16892875053E+03  0.81670951618E+03  0.00000000000E+00 0. -1.
        -13    1    3    3    0    0  0.15867540795E+03 -0.76925062277E+02 -0.81786390152E+02  0.19438200510E+03  0.00000000000E+00 0.  1.
          4    1    6    6  502    0 -0.46032597113E+02 -0.25543251489E+02 -0.86630361835E+02  0.10137197485E+03  0.00000000000E+00 0. -1.
          3    1    5    5  503    0 -0.42722381214E+03  0.30319722418E+03 -0.16542887712E+03  0.54937733462E+03  0.00000000000E+00 0. -1.
         -2    1    5    5    0  503 -0.30715703883E+03  0.20511301860E+03 -0.18765078818E+03  0.41428204789E+03  0.00000000000E+00 0.  1.
         -3    1    6    6    0  502 -0.11717760036E+03 -0.10173473196E+03 -0.61671880317E+03  0.63594231491E+03  0.00000000000E+00 0.  1.
<mgrwt>
<rscale>  0 0.23762728E+04</rscale>
<asrwt>0</asrwt>
<pdfrwt beam="1">  1        2 0.30916993E+00 0.23762728E+04</pdfrwt>
<pdfrwt beam="2">  1       -2 0.10807087E+00 0.23762728E+04</pdfrwt>
<totfact> 0.40773364E+00</totfact>
</mgrwt>
</event>
<event>
12    1  0.1960998E-007  0.2020344E+04  0.7818608E-02  0.8597168E-01
         -2   -1    0    0    0  501 -0.00000000000E+00  0.00000000000E+00  0.35774650491E+03  0.35774650491E+03  0.00000000000E+00 0.  1.
          2   -1    0    0  501    0  0.00000000000E+00 -0.00000000000E+00 -0.28524330353E+04  0.28524330353E+04  0.00000000000E+00 0. -1.
         23    2    1    2    0    0  0.41282469583E+03  0.65508080387E+03 -0.63840616272E+03  0.10076604382E+04  0.90895770393E+02 0.  0.
        254    2    1    2    0    0 -0.41282469583E+03 -0.65508080387E+03 -0.18562803677E+04  0.22025191020E+04  0.89764051946E+03 0.  0.
        -24    2    4    4    0    0  0.15287639837E+03 -0.10756821836E+03 -0.20985177962E+02  0.20392805920E+03  0.78766495773E+02 0.  0.
         24    2    4    4    0    0 -0.56570109420E+03 -0.54751258551E+03 -0.18352951897E+04  0.19985910428E+04  0.79183102211E+02 0.  0.
         11    1    3    3    0    0  0.16075540270E+03  0.28639070544E+03 -0.32499906155E+03  0.46204580473E+03  0.00000000000E+00 0.  1.
        -11    1    3    3    0    0  0.25206929313E+03  0.36869009842E+03 -0.31340710117E+03  0.54561463349E+03  0.00000000000E+00 0. -1.
          2    1    6    6  502    0 -0.56333458874E+03 -0.54972445453E+03 -0.18321757147E+04  0.19940939508E+04  0.00000000000E+00 0. -1.
          3    1    5    5  503    0  0.15739605320E+03 -0.10236630657E+03 -0.32461584840E+02  0.19054168251E+03  0.00000000000E+00 0. -1.
         -4    1    5    5    0  503 -0.45196548314E+01 -0.52019117902E+01  0.11476406878E+02  0.13386376691E+02  0.00000000000E+00 0.  1.
         -1    1    6    6    0  502 -0.23665054636E+01  0.22118690279E+01 -0.31194750152E+01  0.44970920690E+01  0.00000000000E+00 0.  1.
<mgrwt>
<rscale>  0 0.20203445E+04</rscale>
<asrwt>0</asrwt>
<pdfrwt beam="1">  1        2 0.43883586E+00 0.20203445E+04</pdfrwt>
<pdfrwt beam="2">  1       -2 0.55037923E-01 0.20203445E+04</pdfrwt>
<totfact> 0.61972396E+00</totfact>
</mgrwt>
</event>
<event>
12    1  0.1960998E-007  0.2581298E+04  0.7818608E-02  0.8374582E-01
          2   -1    0    0  501    0  0.00000000000E+00  0.00000000000E+00  0.16050260532E+04  0.16050260532E+04  0.00000000000E+00 0. -1.
         -2   -1    0    0    0  501 -0.00000000000E+00 -0.00000000000E+00 -0.10378493605E+04  0.10378493605E+04  0.00000000000E+00 0.  1.
         23    2    1    2    0    0 -0.10402581352E+04 -0.30325807715E+03 -0.88012225370E+02  0.10907882765E+04  0.89277450157E+02 0.  0.
        254    2    1    2    0    0  0.10402581352E+04  0.30325807715E+03  0.65518891807E+03  0.15520871372E+04  0.89755195610E+03 0.  0.
        -24    2    4    4    0    0 -0.63019877111E+02  0.25753561773E+03  0.25637733869E+02  0.27859582746E+03  0.81622560411E+02 0.  0.
         24    2    4    4    0    0  0.11032780123E+04  0.45722459415E+02  0.62955118420E+03  0.12734913097E+04  0.78310323119E+02 0.  0.
         13    1    3    3    0    0 -0.77187146722E+03 -0.18413976009E+03 -0.69590040162E+02  0.79657754604E+03  0.00000000000E+00 0.  1.
        -13    1    3    3    0    0 -0.26838666799E+03 -0.11911831705E+03 -0.18422185208E+02  0.29421073046E+03  0.00000000000E+00 0. -1.
          2    1    6    6  502    0  0.21277965405E+03 -0.21824370003E+02  0.11708379593E+03  0.24384441674E+03  0.00000000000E+00 0. -1.
          1    1    5    5  503    0  0.17006695461E+02  0.57039753455E+02 -0.81991750095E+01  0.60083172649E+02  0.00000000000E+00 0. -1.
         -4    1    5    5    0  503 -0.80026572572E+02  0.20049586428E+03  0.33836908878E+02  0.21851265481E+03  0.00000000000E+00 0.  1.
         -1    1    6    6    0  502  0.89049835827E+03  0.67546829417E+02  0.51246738827E+03  0.10296468930E+04  0.00000000000E+00 0.  1.
<mgrwt>
<rscale>  0 0.25812983E+04</rscale>
<asrwt>0</asrwt>
<pdfrwt beam="1">  1        2 0.24692709E+00 0.25812983E+04</pdfrwt>
<pdfrwt beam="2">  1       -2 0.15966913E+00 0.25812983E+04</pdfrwt>
<totfact> 0.24869645E+00</totfact>
</mgrwt>
</event>
<event>
12    1  0.1960998E-007  0.2663067E+04  0.7818608E-02  0.8347089E-01
          2   -1    0    0  501    0  0.00000000000E+00  0.00000000000E+00  0.19384786032E+04  0.19384786032E+04  0.00000000000E+00 0. -1.
         -2   -1    0    0    0  501 -0.00000000000E+00 -0.00000000000E+00 -0.91462552805E+03  0.91462552805E+03  0.00000000000E+00 0.  1.
         23    2    1    2    0    0 -0.60490453853E+03 -0.86987908238E+03  0.10048265190E+04  0.14634935794E+04  0.97662710103E+02 0.  0.
        254    2    1    2    0    0  0.60490453853E+03  0.86987908238E+03  0.19026556214E+02  0.13896105519E+04  0.89891955004E+03 0.  0.
        -24    2    4    4    0    0  0.53095889626E+03  0.96218668868E+03 -0.20813723413E+03  0.11213426955E+04  0.79798240420E+02 0.  0.
         24    2    4    4    0    0  0.73945642269E+02 -0.92307606302E+02  0.22716379034E+03  0.26826785639E+03  0.79847372782E+02 0.  0.
         13    1    3    3    0    0 -0.16743302794E+03 -0.28502290163E+03  0.26255341268E+03  0.42214472377E+03  0.00000000000E+00 0. -1.
        -13    1    3    3    0    0 -0.43747151059E+03 -0.58485618075E+03  0.74227310631E+03  0.10413488556E+04  0.00000000000E+00 0.  1.
          2    1    6    6  502    0  0.58814169036E+02 -0.39845719189E+02  0.61924580991E+02  0.94241400393E+02  0.00000000000E+00 0. -1.
          1    1    5    5  503    0  0.52274756800E+03  0.93385327023E+03 -0.19067393630E+03  0.10870618658E+04  0.00000000000E+00 0. -1.
         -2    1    5    5    0  503  0.82113282615E+01  0.28333418449E+02 -0.17463297827E+02  0.34280829684E+02  0.00000000000E+00 0.  1.
         -1    1    6    6    0  502  0.15131473233E+02 -0.52461887112E+02  0.16523920935E+03  0.17402645600E+03  0.00000000000E+00 0.  1.
<mgrwt>
<rscale>  0 0.26630674E+04</rscale>
<asrwt>0</asrwt>
<pdfrwt beam="1">  1        2 0.29822748E+00 0.26630674E+04</pdfrwt>
<pdfrwt beam="2">  1       -2 0.14071162E+00 0.26630674E+04</pdfrwt>
<totfact> 0.22548898E+00</totfact>
</mgrwt>
</event>
<event>
12    1  0.1960998E-007  0.1452210E+04  0.7818608E-02  0.8916869E-01
          1   -1    0    0  501    0  0.00000000000E+00  0.00000000000E+00  0.19075600063E+04  0.19075600063E+04  0.00000000000E+00 0. -1.
         -1   -1    0    0    0  501 -0.00000000000E+00 -0.00000000000E+00 -0.27638911899E+03  0.27638911899E+03  0.00000000000E+00 0.  1.
         23    2    1    2    0    0  0.25259533367E+03  0.34602553080E+03  0.38902915387E+03  0.58571889843E+03  0.90470298203E+02 0.  0.
        254    2    1    2    0    0 -0.25259533367E+03 -0.34602553080E+03  0.12421417335E+04  0.15982302269E+04  0.90988224599E+03 0.  0.
        -24    2    4    4    0    0  0.32447236876E+03 -0.21131171258E+03  0.62105383989E+03  0.73619138410E+03  0.79592235943E+02 0.  0.
         24    2    4    4    0    0 -0.57706770243E+03 -0.13471381823E+03  0.62108789359E+03  0.86203884280E+03  0.78777210672E+02 0.  0.
         11    1    3    3    0    0  0.21547528768E+03  0.25308341250E+03  0.25759457620E+03  0.42051846448E+03  0.00000000000E+00 0. -1.
        -11    1    3    3    0    0  0.37120045993E+02  0.92942118308E+02  0.13143457767E+03  0.16520043395E+03  0.00000000000E+00 0.  1.
          4    1    6    6  502    0 -0.47992409999E+03 -0.14163571015E+03  0.52242868041E+03  0.72340828185E+03  0.00000000000E+00 0. -1.
          3    1    5    5  503    0  0.43708209297E+02 -0.39169186522E+01  0.46663741183E+02  0.64056651121E+02  0.00000000000E+00 0. -1.
         -4    1    5    5    0  503  0.28076415946E+03 -0.20739479392E+03  0.57439009870E+03  0.67213473298E+03  0.00000000000E+00 0.  1.
         -3    1    6    6    0  502 -0.97143602440E+02  0.69218919182E+01  0.98659213178E+02  0.13863056094E+03  0.00000000000E+00 0.  1.
<mgrwt>
<rscale>  0 0.14522105E+04</rscale>
<asrwt>0</asrwt>
<pdfrwt beam="1">  1        1 0.29347076E+00 0.14522105E+04</pdfrwt>
<pdfrwt beam="2">  1       -1 0.42521404E-01 0.14522105E+04</pdfrwt>
<totfact> 0.18204844E+01</totfact>
</mgrwt>
</event>
<event>
12    1  0.1960998E-007  0.2505634E+04  0.7818608E-02  0.8400981E-01
         -2   -1    0    0    0  501 -0.00000000000E+00  0.00000000000E+00  0.18497147281E+04  0.18497147281E+04  0.00000000000E+00 0.  1.
          2   -1    0    0  501    0  0.00000000000E+00 -0.00000000000E+00 -0.84853634691E+03  0.84853634691E+03  0.00000000000E+00 0. -1.
         23    2    1    2    0    0 -0.41769177242E+03 -0.81664512642E+03  0.10511276207E+04  0.13981108649E+04  0.92027367299E+02 0.  0.
        254    2    1    2    0    0  0.41769177242E+03  0.81664512642E+03 -0.49949239505E+02  0.13001402101E+04  0.92005106387E+03 0.  0.
        -24    2    4    4    0    0 -0.27653358062E+03  0.15250343825E+03 -0.81967870471E+02  0.33560601169E+03  0.78641867990E+02 0.  0.
         24    2    4    4    0    0  0.69422535304E+03  0.66414168817E+03  0.32018630965E+02  0.96453419841E+03  0.79170729508E+02 0.  0.
         13    1    3    3    0    0 -0.24702178668E+03 -0.45910311651E+03  0.52943199057E+03  0.74303005816E+03  0.00000000000E+00 0. -1.
        -13    1    3    3    0    0 -0.17066998574E+03 -0.35754200991E+03  0.52169563012E+03  0.65508080675E+03  0.00000000000E+00 0.  1.
          4    1    6    6  502    0  0.34512365687E+03  0.34448896844E+03  0.54471310728E+02  0.49066293074E+03  0.00000000000E+00 0. -1.
          3    1    5    5  503    0 -0.25094609926E+03  0.11054654329E+03 -0.82835971760E+02  0.28645467562E+03  0.00000000000E+00 0. -1.
         -4    1    5    5    0  503 -0.25587481357E+02  0.41956894960E+02  0.86810128929E+00  0.49151336062E+02  0.00000000000E+00 0.  1.
         -3    1    6    6    0  502  0.34910169616E+03  0.31965271973E+03 -0.22452679763E+02  0.47387126767E+03  0.00000000000E+00 0.  1.
<mgrwt>
<rscale>  0 0.25056338E+04</rscale>
<asrwt>0</asrwt>
<pdfrwt beam="1">  1        2 0.13054405E+00 0.25056338E+04</pdfrwt>
<pdfrwt beam="2">  1       -2 0.28457150E+00 0.25056338E+04</pdfrwt>
<totfact> 0.11201108E+00</totfact>
</mgrwt>
</event>
<event>
12    1  0.1960998E-007  0.4501006E+04  0.7818608E-02  0.7910461E-01
          2   -1    0    0  501    0  0.00000000000E+00  0.00000000000E+00  0.24181489033E+04  0.24181489033E+04  0.00000000000E+00 0. -1.
         -2   -1    0    0    0  501 -0.00000000000E+00 -0.00000000000E+00 -0.20944797139E+04  0.20944797139E+04  0.00000000000E+00 0.  1.
         23    2    1    2    0    0  0.13312979245E+04  0.15426473847E+04 -0.55923080015E+03  0.21149608710E+04  0.90583003224E+02 0.  0.
        254    2    1    2    0    0 -0.13312979245E+04 -0.15426473847E+04  0.88289998958E+03  0.23976677462E+04  0.90398180976E+03 0.  0.
        -24    2    4    4    0    0 -0.13710312713E+04 -0.14806546706E+04  0.61842757043E+03  0.21121204752E+04  0.80840840233E+02 0.  0.
         24    2    4    4    0    0  0.39733346840E+02 -0.61992714160E+02  0.26447241915E+03  0.28554727104E+03  0.78547743727E+02 0.  0.
         13    1    3    3    0    0  0.49508161636E+03  0.50808076771E+03 -0.19959859981E+03  0.73694740275E+03  0.00000000000E+00 0.  1.
        -13    1    3    3    0    0  0.83621630813E+03  0.10345666170E+04 -0.35963220034E+03  0.13780134682E+04  0.00000000000E+00 0. -1.
          2    1    6    6  502    0  0.25727424492E+02 -0.73907269803E+02  0.25053852571E+03  0.26247616609E+03  0.00000000000E+00 0. -1.
          1    1    5    5  503    0 -0.55786685893E+03 -0.57453403578E+03  0.20916749853E+03  0.82768099713E+03  0.00000000000E+00 0. -1.
         -2    1    5    5    0  503 -0.81316441240E+03 -0.90612063479E+03  0.40926007190E+03  0.12844394781E+04  0.00000000000E+00 0.  1.
         -1    1    6    6    0  502  0.14005922347E+02  0.11914555643E+02  0.13933893440E+02  0.23071104944E+02  0.00000000000E+00 0.  1.
<mgrwt>
<rscale>  0 0.45010060E+04</rscale>
<asrwt>0</asrwt>
<pdfrwt beam="1">  1        2 0.37202291E+00 0.45010060E+04</pdfrwt>
<pdfrwt beam="2">  1       -2 0.32222765E+00 0.45010060E+04</pdfrwt>
<totfact> 0.68212677E-02</totfact>
</mgrwt>
</event>
<event>
12    1  0.1960998E-007  0.1229826E+04  0.7818608E-02  0.9087143E-01
          1   -1    0    0  501    0  0.00000000000E+00  0.00000000000E+00  0.39136662315E+03  0.39136662315E+03  0.00000000000E+00 0. -1.
         -1   -1    0    0    0  501 -0.00000000000E+00 -0.00000000000E+00 -0.96614792165E+03  0.96614792165E+03  0.00000000000E+00 0.  1.
         23    2    1    2    0    0 -0.25815809319E+03  0.56391401419E+02 -0.20054316843E+03  0.34408914140E+03  0.91401223144E+02 0.  0.
        254    2    1    2    0    0  0.25815809319E+03 -0.56391401419E+02 -0.37423813007E+03  0.10134254034E+04  0.90396420229E+03 0.  0.
        -24    2    4    4    0    0  0.17183218630E+02 -0.41438397845E+03  0.20864744234E+02  0.42294793015E+03  0.80251289509E+02 0.  0.
         24    2    4    4    0    0  0.24097487456E+03  0.35799257703E+03 -0.39510287431E+03  0.59047747325E+03  0.79559975797E+02 0.  0.
         11    1    3    3    0    0 -0.15474504173E+03  0.39122649978E+02 -0.17362518044E+03  0.23584383173E+03  0.00000000000E+00 0.  1.
        -11    1    3    3    0    0 -0.10341305146E+03  0.17268751441E+02 -0.26917987988E+02  0.10824530967E+03  0.00000000000E+00 0. -1.
          2    1    6    6  502    0  0.23556004287E+03  0.32832149698E+03 -0.34189793419E+03  0.52931818086E+03  0.00000000000E+00 0. -1.
          3    1    5    5  503    0 -0.98959350696E+01 -0.32716306672E+03 -0.72424135067E+01  0.32739281346E+03  0.00000000000E+00 0. -1.
         -4    1    5    5    0  503  0.27079153699E+02 -0.87220911734E+02  0.28107157741E+02  0.95555116687E+02  0.00000000000E+00 0.  1.
         -1    1    6    6    0  502  0.54148316889E+01  0.29671080047E+02 -0.53204940112E+02  0.61159292391E+02  0.00000000000E+00 0.  1.
<mgrwt>
<rscale>  0 0.12298261E+04</rscale>
<asrwt>0</asrwt>
<pdfrwt beam="1">  1        1 0.60210251E-01 0.12298261E+04</pdfrwt>
<pdfrwt beam="2">  1       -1 0.14863814E+00 0.12298261E+04</pdfrwt>
<totfact> 0.21815060E+01</totfact>
</mgrwt>
</event>
<event>
12    1  0.1960998E-007  0.2282044E+04  0.7818608E-02  0.8485035E-01
          2   -1    0    0  501    0  0.00000000000E+00  0.00000000000E+00  0.27912572747E+04  0.27912572747E+04  0.00000000000E+00 0. -1.
         -2   -1    0    0    0  501 -0.00000000000E+00 -0.00000000000E+00 -0.46643189432E+03  0.46643189432E+03  0.00000000000E+00 0.  1.
         23    2    1    2    0    0 -0.44551022345E+03  0.76331570050E+03  0.15267861286E+04  0.17663323893E+04  0.87886343764E+02 0.  0.
        254    2    1    2    0    0  0.44551022345E+03 -0.76331570050E+03  0.79803925186E+03  0.14913567797E+04  0.89785754942E+03 0.  0.
        -24    2    4    4    0    0  0.99481309688E+02  0.32699705648E+02  0.57679114954E+03  0.59195356073E+03  0.82189939412E+02 0.  0.
         24    2    4    4    0    0  0.34602891377E+03 -0.79601540615E+03  0.22124810232E+03  0.89940321899E+03  0.81233561750E+02 0.  0.
         11    1    3    3    0    0 -0.33300596506E+03  0.49569011181E+03  0.99397944857E+03  0.11595675073E+04  0.00000000000E+00 0. -1.
        -11    1    3    3    0    0 -0.11250425839E+03  0.26762558869E+03  0.53280667999E+03  0.60676488207E+03  0.00000000000E+00 0.  1.
          4    1    6    6  502    0  0.17663918702E+03 -0.43342951423E+03  0.15946267353E+03  0.49446020107E+03  0.00000000000E+00 0. -1.
          1    1    5    5  503    0  0.74436873587E+02  0.57513458069E+02  0.34920312432E+03  0.36165103075E+03  0.00000000000E+00 0. -1.
         -2    1    5    5    0  503  0.25044436101E+02 -0.24813752421E+02  0.22758802522E+03  0.23030252998E+03  0.00000000000E+00 0.  1.
         -3    1    6    6    0  502  0.16938972675E+03 -0.36258589192E+03  0.61785428794E+02  0.40494301792E+03  0.00000000000E+00 0.  1.
<mgrwt>
<rscale>  0 0.22820442E+04</rscale>
<asrwt>0</asrwt>
<pdfrwt beam="1">  1        2 0.42942419E+00 0.22820442E+04</pdfrwt>
<pdfrwt beam="2">  1       -2 0.71758755E-01 0.22820442E+04</pdfrwt>
<totfact> 0.37429850E+00</totfact>
</mgrwt>
</event>
<event>
12    1  0.1960998E-007  0.2640036E+04  0.7818608E-02  0.8354728E-01
          2   -1    0    0  501    0  0.00000000000E+00  0.00000000000E+00  0.23409537606E+04  0.23409537606E+04  0.00000000000E+00 0. -1.
         -2   -1    0    0    0  501 -0.00000000000E+00 -0.00000000000E+00 -0.74433222108E+03  0.74433222108E+03  0.00000000000E+00 0.  1.
         23    2    1    2    0    0  0.32135190022E+03 -0.72577898021E+03 -0.29002639540E+03  0.85000994760E+03  0.91539221717E+02 0.  0.
        254    2    1    2    0    0 -0.32135190022E+03  0.72577898021E+03  0.18866479349E+04  0.22352760340E+04  0.89832975363E+03 0.  0.
        -24    2    4    4    0    0  0.48814851393E+02  0.61403347964E+03  0.16766183262E+04  0.17879858026E+04  0.80151198193E+02 0.  0.
         24    2    4    4    0    0 -0.37016675161E+03  0.11174550057E+03  0.21002960865E+03  0.44729023145E+03  0.80284704305E+02 0.  0.
         11    1    3    3    0    0  0.15543549670E+03 -0.39713629580E+03 -0.19986018758E+03  0.47097932615E+03  0.00000000000E+00 0.  1.
        -11    1    3    3    0    0  0.16591640352E+03 -0.32864268441E+03 -0.90166207817E+02  0.37903062146E+03  0.00000000000E+00 0. -1.
          4    1    6    6  502    0 -0.15210758428E+03  0.80624947820E+02  0.11718811151E+03  0.20825501887E+03  0.00000000000E+00 0. -1.
          3    1    5    5  503    0 -0.12603094674E+02  0.95030584887E+02  0.32508200960E+03  0.33892176534E+03  0.00000000000E+00 0. -1.
         -4    1    5    5    0  503  0.61417946067E+02  0.51900289475E+03  0.13515363166E+04  0.14490640372E+04  0.00000000000E+00 0.  1.
         -3    1    6    6    0  502 -0.21805916733E+03  0.31120552750E+02  0.92841497143E+02  0.23903521258E+03  0.00000000000E+00 0.  1.
<mgrwt>
<rscale>  0 0.26400358E+04</rscale>
<asrwt>0</asrwt>
<pdfrwt beam="1">  1        2 0.36014673E+00 0.26400358E+04</pdfrwt>
<pdfrwt beam="2">  1       -2 0.11451265E+00 0.26400358E+04</pdfrwt>
<totfact> 0.22566581E+00</totfact>
</mgrwt>
</event>
<event>
12    1  0.1960998E-007  0.2085184E+04  0.7818608E-02  0.8567798E-01
         -2   -1    0    0    0  501 -0.00000000000E+00  0.00000000000E+00  0.12918065722E+04  0.12918065722E+04  0.00000000000E+00 0.  1.
          2   -1    0    0  501    0  0.00000000000E+00 -0.00000000000E+00 -0.84145559101E+03  0.84145559101E+03  0.00000000000E+00 0. -1.
         23    2    1    2    0    0  0.70803293066E+02  0.56590770700E+03 -0.45556261616E+03  0.73556745294E+03  0.90871015315E+02 0.  0.
        254    2    1    2    0    0 -0.70803293066E+02 -0.56590770700E+03  0.90591359740E+03  0.13976947103E+04  0.89866924848E+03 0.  0.
        -24    2    4    4    0    0  0.70130010965E+02 -0.69368014086E+03  0.31022419092E+03  0.76700691943E+03  0.77137601396E+02 0.  0.
         24    2    4    4    0    0 -0.14093330403E+03  0.12777243386E+03  0.59568940647E+03  0.63068779089E+03  0.82056258483E+02 0.  0.
         13    1    3    3    0    0  0.13951070992E+02  0.35326633111E+03 -0.23874439028E+03  0.42660358293E+03  0.00000000000E+00 0.  1.
        -13    1    3    3    0    0  0.56852222075E+02  0.21264137589E+03 -0.21681822588E+03  0.30896387001E+03  0.00000000000E+00 0. -1.
          4    1    6    6  502    0 -0.55728528588E+02  0.94929684900E+01  0.11122090379E+03  0.12476327500E+03  0.00000000000E+00 0. -1.
          1    1    5    5  503    0  0.51997806419E+01 -0.34205622535E+02 -0.16157595516E+01  0.34636296146E+02  0.00000000000E+00 0. -1.
         -2    1    5    5    0  503  0.64930230323E+02 -0.65947451833E+03  0.31183995048E+03  0.73237062328E+03  0.00000000000E+00 0.  1.
         -3    1    6    6    0  502 -0.85204775443E+02  0.11827946537E+03  0.48446850268E+03  0.50592451589E+03  0.00000000000E+00 0.  1.
<mgrwt>
<rscale>  0 0.20851838E+04</rscale>
<asrwt>0</asrwt>
<pdfrwt beam="1">  1        2 0.12945471E+00 0.20851838E+04</pdfrwt>
<pdfrwt beam="2">  1       -2 0.19873947E+00 0.20851838E+04</pdfrwt>
<totfact> 0.40232425E+00</totfact>
</mgrwt>
</event>
<event>
12    1  0.1960998E-007  0.2004385E+04  0.7818608E-02  0.8604573E-01
         -2   -1    0    0    0  501 -0.00000000000E+00  0.00000000000E+00  0.33468300861E+03  0.33468300861E+03  0.00000000000E+00 0.  1.
          2   -1    0    0  501    0  0.00000000000E+00 -0.00000000000E+00 -0.30010196688E+04  0.30010196688E+04  0.00000000000E+00 0. -1.
         23    2    1    2    0    0  0.18435700380E+03 -0.75677196505E+03 -0.13477308934E+04  0.15593025743E+04  0.91403748956E+02 0.  0.
        254    2    1    2    0    0 -0.18435700380E+03  0.75677196505E+03 -0.13186057668E+04  0.17764001031E+04  0.90010268643E+03 0.  0.
        -24    2    4    4    0    0 -0.20551117358E+03  0.65197193019E+03 -0.30310916444E+03  0.75203512697E+03  0.79871311490E+02 0.  0.
         24    2    4    4    0    0  0.21154169785E+02  0.10480003486E+03 -0.10154966024E+04  0.10243649762E+04  0.81607038348E+02 0.  0.
         13    1    3    3    0    0  0.10292960370E+03 -0.37208839629E+03 -0.75547553221E+03  0.84840294538E+03  0.00000000000E+00 0.  1.
        -13    1    3    3    0    0  0.81427400098E+02 -0.38468356876E+03 -0.59225536117E+03  0.71089962892E+03  0.00000000000E+00 0. -1.
          4    1    6    6  502    0  0.24180179771E+02  0.59136731809E+02 -0.85742917637E+03  0.85980615642E+03  0.00000000000E+00 0. -1.
          1    1    5    5  503    0 -0.19470589401E+03  0.64742467336E+03 -0.30131488348E+03  0.74017548720E+03  0.00000000000E+00 0. -1.
         -2    1    5    5    0  503 -0.10805279572E+02  0.45472568279E+01 -0.17942809621E+01  0.11859639769E+02  0.00000000000E+00 0.  1.
         -3    1    6    6    0  502 -0.30260099862E+01  0.45663303054E+02 -0.15806742603E+03  0.16455881974E+03  0.00000000000E+00 0.  1.
<mgrwt>
<rscale>  0 0.20043855E+04</rscale>
<asrwt>0</asrwt>
<pdfrwt beam="1">  1        2 0.46169532E+00 0.20043855E+04</pdfrwt>
<pdfrwt beam="2">  1       -2 0.51489695E-01 0.20043855E+04</pdfrwt>
<totfact> 0.57673051E+00</totfact>
</mgrwt>
</event>
<event>
12    1  0.1960998E-007  0.5552715E+04  0.7818608E-02  0.7748477E-01
          1   -1    0    0  501    0  0.00000000000E+00  0.00000000000E+00  0.42542129015E+04  0.42542129015E+04  0.00000000000E+00 0. -1.
         -1   -1    0    0    0  501 -0.00000000000E+00 -0.00000000000E+00 -0.18118886824E+04  0.18118886824E+04  0.00000000000E+00 0.  1.
         23    2    1    2    0    0 -0.21535514462E+04 -0.15559699152E+04  0.64728380491E+03  0.27360788153E+04  0.91240072291E+02 0.  0.
        254    2    1    2    0    0  0.21535514462E+04  0.15559699152E+04  0.17950404143E+04  0.33300227686E+04  0.89891898511E+03 0.  0.
        -24    2    4    4    0    0  0.22036306954E+04  0.14550516300E+04  0.17895244511E+04  0.31909150488E+04  0.79859878854E+02 0.  0.
         24    2    4    4    0    0 -0.50079249116E+02  0.10091828521E+03  0.55159631883E+01  0.13910771977E+03  0.81413146164E+02 0.  0.
         13    1    3    3    0    0 -0.38291219038E+03 -0.26080522229E+03  0.14617268070E+03  0.48580609517E+03  0.00000000000E+00 0. -1.
        -13    1    3    3    0    0 -0.17706392559E+04 -0.12951646929E+04  0.50111112421E+03  0.22502727201E+04  0.00000000000E+00 0.  1.
          2    1    6    6  502    0 -0.50407129824E+02  0.11438283665E+03  0.13322505248E+01  0.12500434772E+03  0.00000000000E+00 0. -1.
          1    1    5    5  503    0  0.16264953740E+04  0.10430330532E+04  0.13381506182E+04  0.23503302383E+04  0.00000000000E+00 0. -1.
         -2    1    5    5    0  503  0.57713532132E+03  0.41201857681E+03  0.45137383282E+03  0.84058481054E+03  0.00000000000E+00 0.  1.
         -1    1    6    6    0  502  0.32788070814E+00 -0.13464551447E+02  0.41837126635E+01  0.14103372046E+02  0.00000000000E+00 0.  1.
<mgrwt>
<rscale>  0 0.55527147E+04</rscale>
<asrwt>0</asrwt>
<pdfrwt beam="1">  1        1 0.65449429E+00 0.55527147E+04</pdfrwt>
<pdfrwt beam="2">  1       -1 0.27875211E+00 0.55527147E+04</pdfrwt>
<totfact> 0.17534684E-03</totfact>
</mgrwt>
</event>
<event>
12    1  0.1960998E-007  0.1343355E+04  0.7818608E-02  0.8995873E-01
          2   -1    0    0  501    0  0.00000000000E+00  0.00000000000E+00  0.17008135939E+04  0.17008135939E+04  0.00000000000E+00 0. -1.
         -2   -1    0    0    0  501 -0.00000000000E+00 -0.00000000000E+00 -0.26525592419E+03  0.26525592419E+03  0.00000000000E+00 0.  1.
         23    2    1    2    0    0 -0.24131774188E+03  0.16709832981E+03  0.71339096919E+03  0.77681350342E+03  0.91413564705E+02 0.  0.
        254    2    1    2    0    0  0.24131774188E+03 -0.16709832981E+03  0.72216670058E+03  0.11892560147E+04  0.89813641544E+03 0.  0.
        -24    2    4    4    0    0 -0.30431023290E+03 -0.86640326902E+02  0.70909750404E+02  0.33211699880E+03  0.71848758452E+02 0.  0.
         24    2    4    4    0    0  0.54562797478E+03 -0.80458002905E+02  0.65125695017E+03  0.85713901592E+03  0.79801631297E+02 0.  0.
         13    1    3    3    0    0 -0.80969109051E+02  0.79491718837E+02  0.17788746618E+03  0.21099497768E+03  0.00000000000E+00 0.  1.
        -13    1    3    3    0    0 -0.16034863283E+03  0.87606610970E+02  0.53550350301E+03  0.56581852574E+03  0.00000000000E+00 0. -1.
          4    1    6    6  502    0  0.46447342595E+03 -0.46482639670E+02  0.57571914778E+03  0.74118063677E+03  0.00000000000E+00 0. -1.
          3    1    5    5  503    0 -0.20107039077E+03 -0.78680549419E+02  0.20312471867E+02  0.21686983980E+03  0.00000000000E+00 0. -1.
         -4    1    5    5    0  503 -0.10323984213E+03 -0.79597774831E+01  0.50597278537E+02  0.11524715899E+03  0.00000000000E+00 0.  1.
         -3    1    6    6    0  502  0.81154548834E+02 -0.33975363235E+02  0.75537802394E+02  0.11595837914E+03  0.00000000000E+00 0.  1.
<mgrwt>
<rscale>  0 0.13433553E+04</rscale>
<asrwt>0</asrwt>
<pdfrwt beam="1">  1        2 0.26166362E+00 0.13433553E+04</pdfrwt>
<pdfrwt beam="2">  1       -2 0.40808605E-01 0.13433553E+04</pdfrwt>
<totfact> 0.54430916E+01</totfact>
</mgrwt>
</event>
<event>
12    1  0.1960998E-007  0.4283870E+04  0.7818608E-02  0.7949607E-01
         -2   -1    0    0    0  501 -0.00000000000E+00  0.00000000000E+00  0.21431929201E+04  0.21431929201E+04  0.00000000000E+00 0.  1.
          2   -1    0    0  501    0  0.00000000000E+00 -0.00000000000E+00 -0.21406775709E+04  0.21406775709E+04  0.00000000000E+00 0. -1.
         23    2    1    2    0    0 -0.16703318458E+04 -0.11842099283E+04 -0.62189182384E+02  0.20505201420E+04  0.91671854525E+02 0.  0.
        254    2    1    2    0    0  0.16703318458E+04  0.11842099283E+04  0.64704531508E+02  0.22333503490E+04  0.88955352614E+03 0.  0.
        -24    2    4    4    0    0  0.63819211202E+03  0.91190948417E+02  0.29057201059E+03  0.71121684529E+03  0.76107468535E+02 0.  0.
         24    2    4    4    0    0  0.10321397337E+04  0.10930189799E+04 -0.22586747909E+03  0.15221335038E+04  0.76624831087E+02 0.  0.
         11    1    3    3    0    0 -0.15522867607E+04 -0.10701924053E+04 -0.59213198490E+02  0.18863754066E+04  0.00000000000E+00 0. -1.
        -11    1    3    3    0    0 -0.11804508507E+03 -0.11401752305E+03 -0.29759838945E+01  0.16414473538E+03  0.00000000000E+00 0.  1.
          2    1    6    6  502    0  0.92712731386E+03  0.94885395660E+03 -0.18896000206E+03  0.13399980483E+04  0.00000000000E+00 0. -1.
          3    1    5    5  503    0  0.55174739830E+03  0.97450683892E+02  0.27090025719E+03  0.62234136667E+03  0.00000000000E+00 0. -1.
         -4    1    5    5    0  503  0.86444713719E+02 -0.62597354756E+01  0.19671753407E+02  0.88875478622E+02  0.00000000000E+00 0.  1.
         -1    1    6    6    0  502  0.10501241988E+03  0.14416502330E+03 -0.36907477031E+02  0.18213545545E+03  0.00000000000E+00 0.  1.
<mgrwt>
<rscale>  0 0.42838698E+04</rscale>
<asrwt>0</asrwt>
<pdfrwt beam="1">  1        2 0.32933501E+00 0.42838698E+04</pdfrwt>
<pdfrwt beam="2">  1       -2 0.32972199E+00 0.42838698E+04</pdfrwt>
<totfact> 0.89594481E-02</totfact>
</mgrwt>
</event>
<event>
12    1  0.1960998E-007  0.4113135E+04  0.7818608E-02  0.7982105E-01
          2   -1    0    0  501    0  0.00000000000E+00  0.00000000000E+00  0.24718224407E+04  0.24718224407E+04  0.00000000000E+00 0. -1.
         -2   -1    0    0    0  501 -0.00000000000E+00 -0.00000000000E+00 -0.17110732121E+04  0.17110732121E+04  0.00000000000E+00 0.  1.
         23    2    1    2    0    0 -0.15051638493E+04  0.33866892820E+03  0.15866492422E+04  0.22149404360E+04  0.91051969467E+02 0.  0.
        254    2    1    2    0    0  0.15051638493E+04 -0.33866892820E+03 -0.82590001370E+03  0.19679552168E+04  0.90028997906E+03 0.  0.
        -24    2    4    4    0    0  0.60955819308E+03  0.26906421783E+03 -0.14345065407E+03  0.68633355333E+03  0.80739780808E+02 0.  0.
         24    2    4    4    0    0  0.89560565623E+03 -0.60773314604E+03 -0.68244935963E+03  0.12816216634E+04  0.73265895793E+02 0.  0.
         13    1    3    3    0    0 -0.36217147970E+03  0.57623341593E+02  0.33343334363E+03  0.49564748042E+03  0.00000000000E+00 0. -1.
        -13    1    3    3    0    0 -0.11429923696E+04  0.28104558661E+03  0.12532158986E+04  0.17192929556E+04  0.00000000000E+00 0.  1.
          2    1    6    6  502    0  0.15640718821E+03 -0.14022799788E+03 -0.12471858588E+03  0.24429864015E+03  0.00000000000E+00 0. -1.
          1    1    5    5  503    0  0.17756721572E+03  0.11925182284E+03 -0.49586950670E+02  0.21956770944E+03  0.00000000000E+00 0. -1.
         -2    1    5    5    0  503  0.43199097736E+03  0.14981239500E+03 -0.93863703399E+02  0.46676584390E+03  0.00000000000E+00 0.  1.
         -1    1    6    6    0  502  0.73919846802E+03 -0.46750514816E+03 -0.55773077374E+03  0.10373230233E+04  0.00000000000E+00 0.  1.
<mgrwt>
<rscale>  0 0.41131347E+04</rscale>
<asrwt>0</asrwt>
<pdfrwt beam="1">  1        2 0.38028037E+00 0.41131347E+04</pdfrwt>
<pdfrwt beam="2">  1       -2 0.26324203E+00 0.41131347E+04</pdfrwt>
<totfact> 0.15060753E-01</totfact>
</mgrwt>
</event>
<event>
12    1  0.1960998E-007  0.1724024E+04  0.7818608E-02  0.8747780E-01
          1   -1    0    0  501    0  0.00000000000E+00  0.00000000000E+00  0.18806682788E+04  0.18806682788E+04  0.00000000000E+00 0. -1.
         -1   -1    0    0    0  501 -0.00000000000E+00 -0.00000000000E+00 -0.39510681584E+03  0.39510681584E+03  0.00000000000E+00 0.  1.
         23    2    1    2    0    0 -0.80863249921E+02  0.61278248036E+03  0.44896491171E+03  0.76940045499E+03  0.91467670610E+02 0.  0.
        254    2    1    2    0    0  0.80863249921E+02 -0.61278248036E+03  0.10365965512E+04  0.15063746396E+04  0.90143824608E+03 0.  0.
        -24    2    4    4    0    0 -0.36109539339E+03 -0.78547900581E+02  0.24262387259E+03  0.44912364122E+03  0.79284586968E+02 0.  0.
         24    2    4    4    0    0  0.44195864332E+03 -0.53423457978E+03  0.79397267864E+03  0.10572509984E+04  0.81566111834E+02 0.  0.
         13    1    3    3    0    0  0.10577258064E+02  0.11922380819E+03  0.57199116112E+02  0.13265720377E+03  0.00000000000E+00 0. -1.
        -13    1    3    3    0    0 -0.91440507985E+02  0.49355867217E+03  0.39176579560E+03  0.63674325122E+03  0.00000000000E+00 0.  1.
          4    1    6    6  502    0  0.41075487146E+02 -0.84295896724E+02  0.82823661759E+02  0.12511096193E+03  0.00000000000E+00 0. -1.
          1    1    5    5  503    0 -0.22124925037E+03 -0.44344677335E+02  0.19273521191E+03  0.29675670693E+03  0.00000000000E+00 0. -1.
         -2    1    5    5    0  503 -0.13984614302E+03 -0.34203223247E+02  0.49888660681E+02  0.15236693428E+03  0.00000000000E+00 0.  1.
         -3    1    6    6    0  502  0.40088315617E+03 -0.44993868306E+03  0.71114901689E+03  0.93214003649E+03  0.00000000000E+00 0.  1.
<mgrwt>
<rscale>  0 0.17240242E+04</rscale>
<asrwt>0</asrwt>
<pdfrwt beam="1">  1        1 0.28933358E+00 0.17240242E+04</pdfrwt>
<pdfrwt beam="2">  1       -1 0.60785665E-01 0.17240242E+04</pdfrwt>
<totfact> 0.93612253E+00</totfact>
</mgrwt>
</event>
<event>
12    1  0.1960998E-007  0.1268954E+04  0.7818608E-02  0.9054554E-01
          1   -1    0    0  501    0  0.00000000000E+00  0.00000000000E+00  0.31210140268E+03  0.31210140268E+03  0.00000000000E+00 0. -1.
         -1   -1    0    0    0  501 -0.00000000000E+00 -0.00000000000E+00 -0.12898405895E+04  0.12898405895E+04  0.00000000000E+00 0.  1.
         23    2    1    2    0    0  0.40466830528E+02 -0.27764338174E+03 -0.98351074322E+02  0.31109736572E+03  0.91570876068E+02 0.  0.
        254    2    1    2    0    0 -0.40466830528E+02  0.27764338174E+03 -0.87938811250E+03  0.12908446265E+04  0.90234859421E+03 0.  0.
        -24    2    4    4    0    0  0.20108113488E+03  0.49777544642E+03 -0.29870303222E+03  0.61963614432E+03  0.80693444769E+02 0.  0.
         24    2    4    4    0    0 -0.24154796541E+03 -0.22013206468E+03 -0.58068508028E+03  0.67120848215E+03  0.80759634448E+02 0.  0.
         11    1    3    3    0    0 -0.18212335270E+02 -0.17870168328E+03 -0.68581158469E+02  0.19227416899E+03  0.00000000000E+00 0. -1.
        -11    1    3    3    0    0  0.58679165798E+02 -0.98941698458E+02 -0.29769915853E+02  0.11882319674E+03  0.00000000000E+00 0.  1.
          4    1    6    6  502    0 -0.15432321207E+03 -0.18252865151E+03 -0.45144335484E+03  0.51081646903E+03  0.00000000000E+00 0. -1.
          1    1    5    5  503    0  0.14107007891E+03  0.39639230218E+03 -0.26442141427E+03  0.49693692629E+03  0.00000000000E+00 0. -1.
         -2    1    5    5    0  503  0.60011055975E+02  0.10138314424E+03 -0.34281617949E+02  0.12269921803E+03  0.00000000000E+00 0.  1.
         -3    1    6    6    0  502 -0.87224753340E+02 -0.37603413175E+02 -0.12924172544E+03  0.16039201312E+03  0.00000000000E+00 0.  1.
<mgrwt>
<rscale>  0 0.12689540E+04</rscale>
<asrwt>0</asrwt>
<pdfrwt beam="1">  1        1 0.48015601E-01 0.12689540E+04</pdfrwt>
<pdfrwt beam="2">  1       -1 0.19843701E+00 0.12689540E+04</pdfrwt>
<totfact> 0.12651588E+01</totfact>
</mgrwt>
</event>
<event>
12    1  0.1960998E-007  0.1207365E+04  0.7818608E-02  0.9106434E-01
         -1   -1    0    0    0  501 -0.00000000000E+00  0.00000000000E+00  0.12351683634E+04  0.12351683634E+04  0.00000000000E+00 0.  1.
          1   -1    0    0  501    0  0.00000000000E+00 -0.00000000000E+00 -0.29504682741E+03  0.29504682741E+03  0.00000000000E+00 0. -1.
         23    2    1    2    0    0 -0.16308701226E+03  0.19417309832E+03  0.16768963410E+03  0.31734603515E+03  0.91039150710E+02 0.  0.
        254    2    1    2    0    0  0.16308701226E+03 -0.19417309832E+03  0.77243190189E+03  0.12128691557E+04  0.90005554273E+03 0.  0.
        -24    2    4    4    0    0  0.21947826704E+02  0.94848885372E+01  0.91335309806E+03  0.91712779795E+03  0.79610588786E+02 0.  0.
         24    2    4    4    0    0  0.14113918556E+03 -0.20365798686E+03 -0.14092119617E+03  0.29574135770E+03  0.78786558578E+02 0.  0.
         13    1    3    3    0    0 -0.67466091638E+01  0.35082005115E+02 -0.38893586904E+01  0.35935928110E+02  0.00000000000E+00 0. -1.
        -13    1    3    3    0    0 -0.15634040310E+03  0.15909109320E+03  0.17157899279E+03  0.28141010704E+03  0.00000000000E+00 0.  1.
          4    1    6    6  502    0  0.14478599727E+03 -0.20571688276E+03 -0.14460801433E+03  0.29016184909E+03  0.00000000000E+00 0. -1.
          1    1    5    5  503    0 -0.15035099898E+02 -0.13115736210E+02  0.64407264397E+03  0.64438160082E+03  0.00000000000E+00 0. -1.
         -2    1    5    5    0  503  0.36982926602E+02  0.22600624747E+02  0.26928045409E+03  0.27274619714E+03  0.00000000000E+00 0.  1.
         -3    1    6    6    0  502 -0.36468117183E+01  0.20588959050E+01  0.36868181658E+01  0.55795086024E+01  0.00000000000E+00 0.  1.
<mgrwt>
<rscale>  0 0.12073649E+04</rscale>
<asrwt>0</asrwt>
<pdfrwt beam="1">  1        1 0.45391820E-01 0.12073649E+04</pdfrwt>
<pdfrwt beam="2">  1       -1 0.19002590E+00 0.12073649E+04</pdfrwt>
<totfact> 0.15657142E+01</totfact>
</mgrwt>
</event>
<event>
12    1  0.1960998E-007  0.2627022E+04  0.7818608E-02  0.8359080E-01
         -1   -1    0    0    0  501 -0.00000000000E+00  0.00000000000E+00  0.22663229356E+04  0.22663229356E+04  0.00000000000E+00 0.  1.
          1   -1    0    0  501    0  0.00000000000E+00 -0.00000000000E+00 -0.76128184371E+03  0.76128184371E+03  0.00000000000E+00 0. -1.
         23    2    1    2    0    0 -0.30067784472E+03 -0.11127570488E+04  0.78027960831E+03  0.13952075123E+04  0.95563169520E+02 0.  0.
        254    2    1    2    0    0  0.30067784472E+03  0.11127570488E+04  0.72476148354E+03  0.16323972669E+04  0.90044778482E+03 0.  0.
        -24    2    4    4    0    0 -0.22010970307E+03  0.69012145293E+03  0.14643459656E+03  0.74338204884E+03  0.80360925125E+02 0.  0.
         24    2    4    4    0    0  0.52078754779E+03  0.42263559586E+03  0.57832688698E+03  0.88901521811E+03  0.77753154331E+02 0.  0.
         11    1    3    3    0    0 -0.13904379581E+03 -0.53360378892E+03  0.43064959136E+03  0.69966081157E+03  0.00000000000E+00 0.  1.
        -11    1    3    3    0    0 -0.16163404891E+03 -0.57915325986E+03  0.34963001694E+03  0.69554670075E+03  0.00000000000E+00 0. -1.
          2    1    6    6  502    0  0.27232530482E+03  0.26981098850E+03  0.33740862103E+03  0.51068935636E+03  0.00000000000E+00 0. -1.
          1    1    5    5  503    0 -0.14495526749E+03  0.55866443559E+03  0.12354021478E+03  0.59023738092E+03  0.00000000000E+00 0. -1.
         -2    1    5    5    0  503 -0.75154435580E+02  0.13145701734E+03  0.22894381783E+02  0.15314466792E+03  0.00000000000E+00 0.  1.
         -1    1    6    6    0  502  0.24846224297E+03  0.15282460736E+03  0.24091826595E+03  0.37832586175E+03  0.00000000000E+00 0.  1.
<mgrwt>
<rscale>  0 0.26270215E+04</rscale>
<asrwt>0</asrwt>
<pdfrwt beam="1">  1        1 0.11712028E+00 0.26270215E+04</pdfrwt>
<pdfrwt beam="2">  1       -1 0.34866506E+00 0.26270215E+04</pdfrwt>
<totfact> 0.33339969E-01</totfact>
</mgrwt>
</event>
<event>
12    1  0.1960998E-007  0.2408634E+04  0.7818608E-02  0.8436278E-01
          1   -1    0    0  501    0  0.00000000000E+00  0.00000000000E+00  0.16782625651E+04  0.16782625651E+04  0.00000000000E+00 0. -1.
         -1   -1    0    0    0  501 -0.00000000000E+00 -0.00000000000E+00 -0.86421513950E+03  0.86421513950E+03  0.00000000000E+00 0.  1.
         23    2    1    2    0    0  0.50825576104E+03  0.19108139920E+03  0.12794186857E+04  0.13927846408E+04  0.90004791556E+02 0.  0.
        254    2    1    2    0    0 -0.50825576104E+03 -0.19108139920E+03 -0.46537126007E+03  0.11496930639E+04  0.90021536958E+03 0.  0.
        -24    2    4    4    0    0  0.20061528098E+02  0.13882558917E+03 -0.49544435132E+03  0.52105356219E+03  0.79728917638E+02 0.  0.
         24    2    4    4    0    0 -0.52831728914E+03 -0.32990698837E+03  0.30073091251E+02  0.62863950166E+03  0.79532718122E+02 0.  0.
         13    1    3    3    0    0  0.12472437639E+03  0.37207383512E+02  0.21995979052E+03  0.25558338933E+03  0.00000000000E+00 0.  1.
        -13    1    3    3    0    0  0.38353138465E+03  0.15387401569E+03  0.10594588952E+04  0.11372012514E+04  0.00000000000E+00 0. -1.
          2    1    6    6  502    0 -0.43833277156E+03 -0.29415474697E+03  0.48379374518E+02  0.53009734735E+03  0.00000000000E+00 0. -1.
          1    1    5    5  503    0 -0.22829880649E+02  0.10106878570E+03 -0.34005886890E+03  0.35549421544E+03  0.00000000000E+00 0. -1.
         -2    1    5    5    0  503  0.42891408747E+02  0.37756803463E+02 -0.15538548241E+03  0.16555934675E+03  0.00000000000E+00 0.  1.
         -3    1    6    6    0  502 -0.89984517583E+02 -0.35752241399E+02 -0.18306283267E+02  0.98542154313E+02  0.00000000000E+00 0.  1.
<mgrwt>
<rscale>  0 0.24086344E+04</rscale>
<asrwt>0</asrwt>
<pdfrwt beam="1">  1        1 0.25819424E+00 0.24086344E+04</pdfrwt>
<pdfrwt beam="2">  1       -1 0.13295618E+00 0.24086344E+04</pdfrwt>
<totfact> 0.21152085E+00</totfact>
</mgrwt>
</event>
<event>
12    1  0.1960998E-007  0.2890208E+04  0.7818608E-02  0.8275797E-01
         -1   -1    0    0    0  501 -0.00000000000E+00  0.00000000000E+00  0.98337384212E+03  0.98337384212E+03  0.00000000000E+00 0.  1.
          1   -1    0    0  501    0  0.00000000000E+00 -0.00000000000E+00 -0.21236334043E+04  0.21236334043E+04  0.00000000000E+00 0. -1.
         23    2    1    2    0    0 -0.50084887471E+03  0.12024579750E+04 -0.46515982732E+03  0.13861975931E+04  0.91735081002E+02 0.  0.
        254    2    1    2    0    0  0.50084887471E+03 -0.12024579750E+04 -0.67509973488E+03  0.17208096534E+04  0.89926160490E+03 0.  0.
        -24    2    4    4    0    0  0.43109570055E+03 -0.19125015994E+03  0.36491517080E+02  0.47977063482E+03  0.80175460758E+02 0.  0.
         24    2    4    4    0    0  0.69753174162E+02 -0.10112078151E+04 -0.71159125196E+03  0.12410390185E+04  0.80056137012E+02 0.  0.
         11    1    3    3    0    0 -0.24589414835E+03  0.69077453385E+03 -0.23575512751E+03  0.77020378404E+03  0.00000000000E+00 0. -1.
        -11    1    3    3    0    0 -0.25495472636E+03  0.51168344118E+03 -0.22940469981E+03  0.61599380904E+03  0.00000000000E+00 0.  1.
          4    1    6    6  502    0  0.75234560451E+02 -0.63774368872E+03 -0.47749770993E+03  0.80023828612E+03  0.00000000000E+00 0. -1.
          1    1    5    5  503    0  0.30760509319E+03 -0.17057321848E+03  0.43230485224E+02  0.35437972723E+03  0.00000000000E+00 0. -1.
         -2    1    5    5    0  503  0.12349060736E+03 -0.20676941453E+02 -0.67389681439E+01  0.12539090758E+03  0.00000000000E+00 0.  1.
         -3    1    6    6    0  502 -0.54813862885E+01 -0.37346412638E+03 -0.23409354203E+03  0.44080073242E+03  0.00000000000E+00 0.  1.
<mgrwt>
<rscale>  0 0.28902080E+04</rscale>
<asrwt>0</asrwt>
<pdfrwt beam="1">  1        1 0.32671283E+00 0.28902080E+04</pdfrwt>
<pdfrwt beam="2">  1       -1 0.15128828E+00 0.28902080E+04</pdfrwt>
<totfact> 0.71915973E-01</totfact>
</mgrwt>
</event>
<event>
12    1  0.1960998E-007  0.2173946E+04  0.7818608E-02  0.8529351E-01
          1   -1    0    0  501    0  0.00000000000E+00  0.00000000000E+00  0.18919008460E+04  0.18919008460E+04  0.00000000000E+00 0. -1.
         -1   -1    0    0    0  501 -0.00000000000E+00 -0.00000000000E+00 -0.62450988247E+03  0.62450988247E+03  0.00000000000E+00 0.  1.
         23    2    1    2    0    0 -0.52310977814E+03  0.67983657100E+03  0.84685428450E+03  0.12086314756E+04  0.88353049152E+02 0.  0.
        254    2    1    2    0    0  0.52310977814E+03 -0.67983657100E+03  0.42053667901E+03  0.13077792529E+04  0.89309230913E+03 0.  0.
        -24    2    4    4    0    0  0.77020507055E+03 -0.49194537114E+03  0.30383165909E+03  0.96636739102E+03  0.79537151504E+02 0.  0.
         24    2    4    4    0    0 -0.24709529241E+03 -0.18789119986E+03  0.11670501992E+03  0.34141186186E+03  0.81134525543E+02 0.  0.
         13    1    3    3    0    0 -0.14209396673E+03  0.12962829275E+03  0.21037591373E+03  0.28504774116E+03  0.00000000000E+00 0. -1.
        -13    1    3    3    0    0 -0.38101581141E+03  0.55020827825E+03  0.63647837078E+03  0.92358373441E+03  0.00000000000E+00 0.  1.
          4    1    6    6  502    0 -0.20992158284E+03 -0.18411211095E+03  0.11997207819E+03  0.30390399781E+03  0.00000000000E+00 0. -1.
          3    1    5    5  503    0  0.63470340331E+03 -0.38126881593E+03  0.27039712375E+03  0.78824420373E+03  0.00000000000E+00 0. -1.
         -4    1    5    5    0  503  0.13550166724E+03 -0.11067655521E+03  0.33434535346E+02  0.17812318729E+03  0.00000000000E+00 0.  1.
         -3    1    6    6    0  502 -0.37173709567E+02 -0.37790889018E+01 -0.32670582729E+01  0.37507864050E+02  0.00000000000E+00 0.  1.
<mgrwt>
<rscale>  0 0.21739464E+04</rscale>
<asrwt>0</asrwt>
<pdfrwt beam="1">  1        1 0.29106167E+00 0.21739464E+04</pdfrwt>
<pdfrwt beam="2">  1       -1 0.96078444E-01 0.21739464E+04</pdfrwt>
<totfact> 0.33652348E+00</totfact>
</mgrwt>
</event>
<event>
12    1  0.1960998E-007  0.1287371E+04  0.7818608E-02  0.9039640E-01
         -1   -1    0    0    0  501 -0.00000000000E+00  0.00000000000E+00  0.39617344647E+03  0.39617344647E+03  0.00000000000E+00 0.  1.
          1   -1    0    0  501    0  0.00000000000E+00 -0.00000000000E+00 -0.10458330754E+04  0.10458330754E+04  0.00000000000E+00 0. -1.
         23    2    1    2    0    0 -0.18159976564E+03 -0.20220508893E+03 -0.35501034376E+03  0.45596226143E+03  0.89464332538E+02 0.  0.
        254    2    1    2    0    0  0.18159976564E+03  0.20220508893E+03 -0.29464928520E+03  0.98604426047E+03  0.90088828911E+03 0.  0.
        -24    2    4    4    0    0 -0.24868636024E+02 -0.93692363308E+02  0.27794060166E+03  0.30468857305E+03  0.78660285357E+02 0.  0.
         24    2    4    4    0    0  0.20646840167E+03  0.29589745224E+03 -0.57258988686E+03  0.68135568742E+03  0.78752086430E+02 0.  0.
         11    1    3    3    0    0 -0.78139416088E+02 -0.14231773443E+03 -0.16507066415E+03  0.23153494346E+03  0.00000000000E+00 0.  1.
        -11    1    3    3    0    0 -0.10346034956E+03 -0.59887354503E+02 -0.18993967961E+03  0.22442731797E+03  0.00000000000E+00 0. -1.
          4    1    6    6  502    0  0.12433051961E+03  0.21926021944E+03 -0.34192090881E+03  0.42478586349E+03  0.00000000000E+00 0. -1.
          1    1    5    5  503    0  0.25771965817E+02 -0.20466865734E+02  0.48805641236E+02  0.58864908320E+02  0.00000000000E+00 0. -1.
         -2    1    5    5    0  503 -0.50640601841E+02 -0.73225497574E+02  0.22913496043E+03  0.24582366473E+03  0.00000000000E+00 0.  1.
         -3    1    6    6    0  502  0.82137882054E+02  0.76637232803E+02 -0.23066897805E+03  0.25656982394E+03  0.00000000000E+00 0.  1.
<mgrwt>
<rscale>  0 0.12873714E+04</rscale>
<asrwt>0</asrwt>
<pdfrwt beam="1">  1        1 0.16089740E+00 0.12873714E+04</pdfrwt>
<pdfrwt beam="2">  1       -1 0.60949760E-01 0.12873714E+04</pdfrwt>
<totfact> 0.37431414E+01</totfact>
</mgrwt>
</event>
<event>
12    1  0.1960998E-007  0.4084524E+04  0.7818608E-02  0.7987709E-01
          1   -1    0    0  501    0  0.00000000000E+00  0.00000000000E+00  0.19884180184E+04  0.19884180184E+04  0.00000000000E+00 0. -1.
         -1   -1    0    0    0  501 -0.00000000000E+00 -0.00000000000E+00 -0.20975643770E+04  0.20975643770E+04  0.00000000000E+00 0.  1.
         23    2    1    2    0    0 -0.53399590363E+03 -0.18570331454E+04 -0.25418025713E+03  0.19511708619E+04  0.93468716635E+02 0.  0.
        254    2    1    2    0    0  0.53399590363E+03  0.18570331454E+04  0.14503389860E+03  0.21348115335E+04  0.89591390407E+03 0.  0.
        -24    2    4    4    0    0  0.53229318170E+03  0.18702872591E+04 -0.25219891755E+02  0.19460240776E+04  0.71156200774E+02 0.  0.
         24    2    4    4    0    0  0.17027219318E+01 -0.13254113696E+02  0.17025379036E+03  0.18878745586E+03  0.80472228536E+02 0.  0.
         11    1    3    3    0    0 -0.15904723924E+02 -0.44288903139E+02  0.78928754755E+01  0.47715455229E+02  0.00000000000E+00 0. -1.
        -11    1    3    3    0    0 -0.51809117971E+03 -0.18127442423E+04 -0.26207313260E+03  0.19034554067E+04  0.00000000000E+00 0.  1.
          4    1    6    6  502    0  0.31170220971E+02 -0.30377223115E+01  0.14588255131E+03  0.14920633100E+03  0.00000000000E+00 0. -1.
          3    1    5    5  503    0  0.47855008883E+03  0.16593245875E+04 -0.44008962414E+02  0.17275141281E+04  0.00000000000E+00 0. -1.
         -4    1    5    5    0  503  0.53743092864E+02  0.21096267165E+03  0.18789070659E+02  0.21850994951E+03  0.00000000000E+00 0.  1.
         -3    1    6    6    0  502 -0.29467499039E+02 -0.10216391385E+02  0.24371239047E+02  0.39581124861E+02  0.00000000000E+00 0.  1.
<mgrwt>
<rscale>  0 0.40845244E+04</rscale>
<asrwt>0</asrwt>
<pdfrwt beam="1">  1        1 0.30591047E+00 0.40845244E+04</pdfrwt>
<pdfrwt beam="2">  1       -1 0.32270221E+00 0.40845244E+04</pdfrwt>
<totfact> 0.55420548E-02</totfact>
</mgrwt>
</event>
<event>
12    1  0.1960998E-007  0.1904379E+04  0.7818608E-02  0.8652680E-01
         -1   -1    0    0    0  501 -0.00000000000E+00  0.00000000000E+00  0.10949179983E+04  0.10949179983E+04  0.00000000000E+00 0.  1.
          1   -1    0    0  501    0  0.00000000000E+00 -0.00000000000E+00 -0.82806620402E+03  0.82806620402E+03  0.00000000000E+00 0. -1.
         23    2    1    2    0    0  0.14757604988E+03 -0.71572382093E+03  0.54732251202E+02  0.73691225310E+03  0.77490458080E+02 0.  0.
        254    2    1    2    0    0 -0.14757604988E+03  0.71572382093E+03  0.21211954310E+03  0.11860719492E+04  0.90979815886E+03 0.  0.
        -24    2    4    4    0    0 -0.12965062528E+03  0.91797594181E+03  0.88906597382E+02  0.93493054838E+03  0.81863501329E+02 0.  0.
         24    2    4    4    0    0 -0.17925424597E+02 -0.20225212087E+03  0.12321294572E+03  0.25114140087E+03  0.81629234909E+02 0.  0.
         13    1    3    3    0    0  0.98810029005E+02 -0.33170903380E+03  0.50593135423E+02  0.34979132392E+03  0.00000000000E+00 0.  1.
        -13    1    3    3    0    0  0.48766020875E+02 -0.38401478713E+03  0.41391157784E+01  0.38712092918E+03  0.00000000000E+00 0. -1.
          2    1    6    6  502    0 -0.34971395000E+02 -0.12072804738E+03  0.36442976422E+02  0.13086768288E+03  0.00000000000E+00 0. -1.
          3    1    5    5  503    0 -0.13643622278E+03  0.88772516721E+03  0.95573589616E+02  0.90321931247E+03  0.00000000000E+00 0. -1.
         -4    1    5    5    0  503  0.67855974970E+01  0.30250774597E+02 -0.66669922340E+01  0.31711235904E+02  0.00000000000E+00 0.  1.
         -3    1    6    6    0  502  0.17045970403E+02 -0.81524073493E+02  0.86769969298E+02  0.12027371798E+03  0.00000000000E+00 0.  1.
<mgrwt>
<rscale>  0 0.19043787E+04</rscale>
<asrwt>0</asrwt>
<pdfrwt beam="1">  1        1 0.12739480E+00 0.19043787E+04</pdfrwt>
<pdfrwt beam="2">  1       -1 0.16844892E+00 0.19043787E+04</pdfrwt>
<totfact> 0.49399181E+00</totfact>
</mgrwt>
</event>
<event>
12    1  0.1960998E-007  0.1441060E+04  0.7818608E-02  0.8924622E-01
          2   -1    0    0  501    0  0.00000000000E+00  0.00000000000E+00  0.89300298604E+03  0.89300298604E+03  0.00000000000E+00 0. -1.
         -2   -1    0    0    0  501 -0.00000000000E+00 -0.00000000000E+00 -0.58136836269E+03  0.58136836269E+03  0.00000000000E+00 0.  1.
         23    2    1    2    0    0 -0.25253419319E+03 -0.32062534655E+03  0.23551207172E+03  0.47991301905E+03  0.90974932501E+02 0.  0.
        254    2    1    2    0    0  0.25253419319E+03  0.32062534655E+03  0.76122551627E+02  0.99445832968E+03  0.90364738423E+03 0.  0.
        -24    2    4    4    0    0 -0.19702571733E+03  0.89020142406E+02 -0.28614403316E+03  0.36727144028E+03  0.79159232484E+02 0.  0.
         24    2    4    4    0    0  0.44955991052E+03  0.23160520415E+03  0.36226658479E+03  0.62718688940E+03  0.79882614157E+02 0.  0.
         13    1    3    3    0    0 -0.12323975184E+02 -0.50706020073E+02  0.55672532754E+02  0.76304729468E+02  0.00000000000E+00 0. -1.
        -13    1    3    3    0    0 -0.24021021801E+03 -0.26991932648E+03  0.17983953896E+03  0.40360828958E+03  0.00000000000E+00 0.  1.
          2    1    6    6  502    0  0.39480202102E+03  0.17116693164E+03  0.29956758056E+03  0.52431621147E+03  0.00000000000E+00 0. -1.
          3    1    5    5  503    0 -0.11182441454E+03  0.58871851506E+02 -0.10296648799E+03  0.16301132549E+03  0.00000000000E+00 0. -1.
         -4    1    5    5    0  503 -0.85201302788E+02  0.30148290900E+02 -0.18317754517E+03  0.20426011479E+03  0.00000000000E+00 0.  1.
         -1    1    6    6    0  502  0.54757889504E+02  0.60438272509E+02  0.62699004233E+02  0.10287067793E+03  0.00000000000E+00 0.  1.
<mgrwt>
<rscale>  0 0.14410603E+04</rscale>
<asrwt>0</asrwt>
<pdfrwt beam="1">  1        2 0.13738507E+00 0.14410603E+04</pdfrwt>
<pdfrwt beam="2">  1       -2 0.89441287E-01 0.14410603E+04</pdfrwt>
<totfact> 0.30850384E+01</totfact>
</mgrwt>
</event>
<event>
12    1  0.1960998E-007  0.2397832E+04  0.7818608E-02  0.8440316E-01
          2   -1    0    0  501    0  0.00000000000E+00  0.00000000000E+00  0.89503706778E+03  0.89503706778E+03  0.00000000000E+00 0. -1.
         -2   -1    0    0    0  501 -0.00000000000E+00 -0.00000000000E+00 -0.16059660071E+04  0.16059660071E+04  0.00000000000E+00 0.  1.
         23    2    1    2    0    0 -0.95037518017E+03  0.36282117724E+03 -0.45864758816E+03  0.11196615733E+04  0.91827222637E+02 0.  0.
        254    2    1    2    0    0  0.95037518017E+03 -0.36282117724E+03 -0.25228135111E+03  0.13813415016E+04  0.89978123679E+03 0.  0.
        -24    2    4    4    0    0  0.41717889043E+03  0.28703248065E+03 -0.60377248928E+02  0.51529908985E+03  0.73904453469E+02 0.  0.
         24    2    4    4    0    0  0.53319628973E+03 -0.64985365790E+03 -0.19190410218E+03  0.86604241170E+03  0.81204768176E+02 0.  0.
         11    1    3    3    0    0 -0.73802282085E+03  0.30859811935E+03 -0.32851564629E+03  0.86477338837E+03  0.00000000000E+00 0. -1.
        -11    1    3    3    0    0 -0.21235235931E+03  0.54223057890E+02 -0.13013194187E+03  0.25488818491E+03  0.00000000000E+00 0.  1.
          2    1    6    6  502    0  0.58819219873E+02 -0.67232916296E+02  0.46061616527E+01  0.89449328590E+02  0.00000000000E+00 0. -1.
          1    1    5    5  503    0  0.12774246540E+03  0.13066214315E+03 -0.18380395382E+02  0.18365340197E+03  0.00000000000E+00 0. -1.
         -2    1    5    5    0  503  0.28943642503E+03  0.15637033750E+03 -0.41996853546E+02  0.33164568788E+03  0.00000000000E+00 0.  1.
         -1    1    6    6    0  502  0.47437706986E+03 -0.58262074160E+03 -0.19651026383E+03  0.77659308311E+03  0.00000000000E+00 0.  1.
<mgrwt>
<rscale>  0 0.23978316E+04</rscale>
<asrwt>0</asrwt>
<pdfrwt beam="1">  1        2 0.13769801E+00 0.23978316E+04</pdfrwt>
<pdfrwt beam="2">  1       -2 0.24707169E+00 0.23978316E+04</pdfrwt>
<totfact> 0.17800304E+00</totfact>
</mgrwt>
</event>
<event>
12    1  0.1960998E-007  0.3029934E+04  0.7818608E-02  0.8235234E-01
         -2   -1    0    0    0  501 -0.00000000000E+00  0.00000000000E+00  0.31880030346E+04  0.31880030346E+04  0.00000000000E+00 0.  1.
          2   -1    0    0  501    0  0.00000000000E+00 -0.00000000000E+00 -0.71992562020E+03  0.71992562020E+03  0.00000000000E+00 0. -1.
         23    2    1    2    0    0  0.89701258236E+02 -0.13607974684E+04  0.86142425882E+03  0.16156871924E+04  0.92613629000E+02 0.  0.
        254    2    1    2    0    0 -0.89701258236E+02  0.13607974684E+04  0.16066531556E+04  0.22922414624E+04  0.90178738844E+03 0.  0.
        -24    2    4    4    0    0 -0.45370775471E+03  0.45699047666E+03  0.53240752426E+03  0.83978371450E+03  0.84189624131E+02 0.  0.
         24    2    4    4    0    0  0.36400649647E+03  0.90380699172E+03  0.10742456313E+04  0.14524577479E+04  0.79132959479E+02 0.  0.
         13    1    3    3    0    0  0.23030198847E+02 -0.77851102299E+03  0.53406286598E+03  0.94436907393E+03  0.00000000000E+00 0.  1.
        -13    1    3    3    0    0  0.66671059389E+02 -0.58228644540E+03  0.32736139284E+03  0.67131811846E+03  0.00000000000E+00 0. -1.
          2    1    6    6  502    0  0.13115331753E+03  0.27276938496E+03  0.38012741427E+03  0.48590243995E+03  0.00000000000E+00 0. -1.
          1    1    5    5  503    0 -0.73306255730E+01  0.20819763390E+02  0.48838713432E+01  0.22606477351E+02  0.00000000000E+00 0. -1.
         -4    1    5    5    0  503 -0.44637712914E+03  0.43617071327E+03  0.52752365291E+03  0.81717723715E+03  0.00000000000E+00 0.  1.
         -1    1    6    6    0  502  0.23285317894E+03  0.63103760676E+03  0.69411821703E+03  0.96655530793E+03  0.00000000000E+00 0.  1.
<mgrwt>
<rscale>  0 0.30299340E+04</rscale>
<asrwt>0</asrwt>
<pdfrwt beam="1">  1        2 0.11075779E+00 0.30299340E+04</pdfrwt>
<pdfrwt beam="2">  1       -2 0.49046200E+00 0.30299340E+04</pdfrwt>
<totfact> 0.63736360E-02</totfact>
</mgrwt>
</event>
<event>
12    1  0.1960998E-007  0.1702296E+04  0.7818608E-02  0.8760056E-01
         -1   -1    0    0    0  501 -0.00000000000E+00  0.00000000000E+00  0.19878900183E+03  0.19878900183E+03  0.00000000000E+00 0.  1.
          1   -1    0    0  501    0  0.00000000000E+00 -0.00000000000E+00 -0.36443324141E+04  0.36443324141E+04  0.00000000000E+00 0. -1.
         23    2    1    2    0    0  0.72499666022E+01 -0.19972576248E+03  0.52131673503E+02  0.22603451518E+03  0.91820196355E+02 0.  0.
        254    2    1    2    0    0 -0.72499666022E+01  0.19972576248E+03 -0.34976750858E+04  0.36170869008E+04  0.89980203366E+03 0.  0.
        -24    2    4    4    0    0 -0.24266287932E+03 -0.26550945105E+03 -0.18719204036E+04  0.19079004074E+04  0.81347560412E+02 0.  0.
         24    2    4    4    0    0  0.23541291272E+03  0.46523521352E+03 -0.16257546822E+04  0.17091864933E+04  0.79856991268E+02 0.  0.
         13    1    3    3    0    0 -0.30969271136E+02 -0.53083810483E+02 -0.99739132135E+01  0.62261269140E+02  0.00000000000E+00 0. -1.
        -13    1    3    3    0    0  0.38219237738E+02 -0.14664195199E+03  0.62105586716E+02  0.16377324604E+03  0.00000000000E+00 0.  1.
          4    1    6    6  502    0  0.12453335323E+03  0.27949600743E+03 -0.10674618791E+04  0.11104510064E+04  0.00000000000E+00 0. -1.
          3    1    5    5  503    0 -0.15623064939E+03 -0.16907108732E+03 -0.98292134980E+03  0.10095184140E+04  0.00000000000E+00 0. -1.
         -4    1    5    5    0  503 -0.86432229935E+02 -0.96438363728E+02 -0.88899905380E+03  0.89838199338E+03  0.00000000000E+00 0.  1.
         -3    1    6    6    0  502  0.11087955949E+03  0.18573920609E+03 -0.55829280310E+03  0.59873548699E+03  0.00000000000E+00 0.  1.
<mgrwt>
<rscale>  0 0.17022963E+04</rscale>
<asrwt>0</asrwt>
<pdfrwt beam="1">  1        1 0.56066647E+00 0.17022963E+04</pdfrwt>
<pdfrwt beam="2">  1       -1 0.30582927E-01 0.17022963E+04</pdfrwt>
<totfact> 0.18148071E+00</totfact>
</mgrwt>
</event>
<event>
12    1  0.1960998E-007  0.2919564E+04  0.7818608E-02  0.8267080E-01
         -2   -1    0    0    0  501 -0.00000000000E+00  0.00000000000E+00  0.25561289412E+04  0.25561289412E+04  0.00000000000E+00 0. -1.
          2   -1    0    0  501    0  0.00000000000E+00 -0.00000000000E+00 -0.83366797996E+03  0.83366797996E+03  0.00000000000E+00 0.  1.
         23    2    1    2    0    0 -0.11699908044E+04  0.55183058958E+03  0.47945971185E+03  0.13828910146E+04  0.95448734752E+02 0.  0.
        254    2    1    2    0    0  0.11699908044E+04 -0.55183058958E+03  0.12430012494E+04  0.20069059066E+04  0.89956863543E+03 0.  0.
        -24    2    4    4    0    0 -0.12151314297E+03 -0.27620433777E+02  0.25991414771E+03  0.29891230397E+03  0.79150925496E+02 0.  0.
         24    2    4    4    0    0  0.12915039474E+04 -0.52421015580E+03  0.98308710170E+03  0.17079936026E+04  0.89460401854E+02 0.  0.
         11    1    3    3    0    0 -0.48736560779E+03  0.25926708275E+03  0.24614427588E+03  0.60442672046E+03  0.00000000000E+00 0.  1.
        -11    1    3    3    0    0 -0.68262519661E+03  0.29256350683E+03  0.23331543597E+03  0.77846429413E+03  0.00000000000E+00 0. -1.
          2    1    6    6  502    0  0.64606848565E+03 -0.27218379910E+03  0.54793598454E+03  0.88978781280E+03  0.00000000000E+00 0. -1.
          1    1    5    5  503    0 -0.30504204345E+02  0.72828748642E+01  0.13922402654E+02  0.34312971959E+02  0.00000000000E+00 0. -1.
         -2    1    5    5    0  503 -0.91008938630E+02 -0.34903308642E+02  0.24599174506E+03  0.26459933201E+03  0.00000000000E+00 0.  1.
         -1    1    6    6    0  502  0.64543546172E+03 -0.25202635670E+03  0.43515111716E+03  0.81820578981E+03  0.00000000000E+00 0.  1.
<mgrwt>
<rscale>  0 0.29195636E+04</rscale>
<asrwt>0</asrwt>
<pdfrwt beam="1">  1        2 0.12825661E+00 0.29195636E+04</pdfrwt>
<pdfrwt beam="2">  1       -2 0.39325060E+00 0.29195636E+04</pdfrwt>
<totfact> 0.23056557E-01</totfact>
</mgrwt>
</event>
<event>
12    1  0.1960998E-007  0.2410663E+04  0.7818608E-02  0.8435522E-01
         -2   -1    0    0    0  501 -0.00000000000E+00  0.00000000000E+00  0.10098394440E+04  0.10098394440E+04  0.00000000000E+00 0.  1.
          2   -1    0    0  501    0  0.00000000000E+00 -0.00000000000E+00 -0.14386685877E+04  0.14386685877E+04  0.00000000000E+00 0. -1.
         23    2    1    2    0    0 -0.29898008978E+03  0.45229554598E+03 -0.10784856698E+04  0.12104092720E+04  0.89436629195E+02 0.  0.
        254    2    1    2    0    0  0.29898008978E+03 -0.45229554598E+03  0.64965652616E+03  0.12380987597E+04  0.90381114279E+03 0.  0.
        -24    2    4    4    0    0  0.60234103773E+03 -0.19152690716E+03  0.31487534927E+03  0.71073223140E+03  0.80601099702E+02 0.  0.
         24    2    4    4    0    0 -0.30336094796E+03 -0.26076863883E+03  0.33478117689E+03  0.52736652831E+03  0.77516908128E+02 0.  0.
         13    1    3    3    0    0 -0.10373019854E+02  0.42409653722E+01 -0.57987031367E+01  0.12617855850E+02  0.00000000000E+00 0.  1.
        -13    1    3    3    0    0 -0.28860706992E+03  0.44805458061E+03 -0.10726869667E+04  0.11977914161E+04  0.00000000000E+00 0. -1.
          4    1    6    6  502    0 -0.14011741334E+03 -0.71119074112E+02  0.12312261685E+03  0.19962462524E+03  0.00000000000E+00 0. -1.
          1    1    5    5  503    0  0.20058892526E+03 -0.89812124043E+02  0.76928487157E+02  0.23285215631E+03  0.00000000000E+00 0. -1.
         -2    1    5    5    0  503  0.40175211248E+03 -0.10171478311E+03  0.23794686211E+03  0.47788007509E+03  0.00000000000E+00 0.  1.
         -3    1    6    6    0  502 -0.16324353462E+03 -0.18964956471E+03  0.21165856004E+03  0.32774190307E+03  0.00000000000E+00 0.  1.
<mgrwt>
<rscale>  0 0.24106632E+04</rscale>
<asrwt>0</asrwt>
<pdfrwt beam="1">  1        2 0.22133363E+00 0.24106632E+04</pdfrwt>
<pdfrwt beam="2">  1       -2 0.15535991E+00 0.24106632E+04</pdfrwt>
<totfact> 0.33714962E+00</totfact>
</mgrwt>
</event>
<event>
12    1  0.1960998E-007  0.2690153E+04  0.7818608E-02  0.8338207E-01
          2   -1    0    0  501    0  0.00000000000E+00  0.00000000000E+00  0.27682940211E+04  0.27682940211E+04  0.00000000000E+00 0. -1.
         -2   -1    0    0    0  501 -0.00000000000E+00 -0.00000000000E+00 -0.65355426715E+03  0.65355426715E+03  0.00000000000E+00 0.  1.
         23    2    1    2    0    0 -0.75872825540E+03  0.92038367216E+03  0.98444254548E+03  0.15493329912E+04  0.92362994913E+02 0.  0.
        254    2    1    2    0    0  0.75872825540E+03 -0.92038367216E+03  0.11302972085E+04  0.18725152970E+04  0.89775669790E+03 0.  0.
        -24    2    4    4    0    0  0.93922830018E+03 -0.87273490571E+03  0.92616701440E+03  0.15837131568E+04  0.80907410542E+02 0.  0.
         24    2    4    4    0    0 -0.18050004478E+03 -0.47648766454E+02  0.20413019406E+03  0.28880214019E+03  0.82987161301E+02 0.  0.
         11    1    3    3    0    0 -0.23978576239E+03  0.36045299665E+03  0.35210303964E+03  0.55803236928E+03  0.00000000000E+00 0.  1.
        -11    1    3    3    0    0 -0.51894249300E+03  0.55993067551E+03  0.63233950584E+03  0.99130062195E+03  0.00000000000E+00 0. -1.
          2    1    6    6  502    0 -0.48888148690E+02  0.23871065775E+00  0.10790153020E+02  0.50065312016E+02  0.00000000000E+00 0. -1.
          1    1    5    5  503    0  0.79478005619E+03 -0.71156181865E+03  0.79759599950E+03  0.13319740755E+04  0.00000000000E+00 0. -1.
         -2    1    5    5    0  503  0.14444824399E+03 -0.16117308705E+03  0.12857101490E+03  0.25173908130E+03  0.00000000000E+00 0.  1.
         -1    1    6    6    0  502 -0.13161189609E+03 -0.47887477111E+02  0.19334004104E+03  0.23873682818E+03  0.00000000000E+00 0.  1.
<mgrwt>
<rscale>  0 0.26901527E+04</rscale>
<asrwt>0</asrwt>
<pdfrwt beam="1">  1        2 0.42589138E+00 0.26901527E+04</pdfrwt>
<pdfrwt beam="2">  1       -2 0.10054681E+00 0.26901527E+04</pdfrwt>
<totfact> 0.17295635E+00</totfact>
</mgrwt>
</event>
<event>
12    1  0.1960998E-007  0.2557456E+04  0.7818608E-02  0.8382798E-01
          1   -1    0    0  501    0  0.00000000000E+00  0.00000000000E+00  0.12322684041E+04  0.12322684041E+04  0.00000000000E+00 0. -1.
         -1   -1    0    0    0  501 -0.00000000000E+00 -0.00000000000E+00 -0.13269388637E+04  0.13269388637E+04  0.00000000000E+00 0.  1.
         23    2    1    2    0    0  0.45771886021E+03 -0.98837083812E+03 -0.29357535181E+03  0.11318127628E+04  0.91815979632E+02 0.  0.
        254    2    1    2    0    0 -0.45771886021E+03  0.98837083812E+03  0.19890489218E+03  0.14273945051E+04  0.90083763706E+03 0.  0.
        -24    2    4    4    0    0 -0.59041658815E+03  0.73147638893E+03 -0.16289734506E+03  0.95761128083E+03  0.82670218480E+02 0.  0.
         24    2    4    4    0    0  0.13269772794E+03  0.25689444919E+03  0.36180223724E+03  0.46978322424E+03  0.78689096352E+02 0.  0.
         11    1    3    3    0    0  0.40846582225E+03 -0.81554609784E+03 -0.22493743806E+03  0.93944484495E+03  0.00000000000E+00 0.  1.
        -11    1    3    3    0    0  0.49253037957E+02 -0.17282474028E+03 -0.68637913744E+02  0.19236791781E+03  0.00000000000E+00 0. -1.
          2    1    6    6  502    0  0.49829189220E+01  0.81089334603E+02  0.11713627491E+03  0.14255250460E+03  0.00000000000E+00 0. -1.
          3    1    5    5  503    0 -0.85504679004E+02  0.13940097540E+03 -0.49441411555E+01  0.16360967760E+03  0.00000000000E+00 0. -1.
         -4    1    5    5    0  503 -0.50491190915E+03  0.59207541353E+03 -0.15795320390E+03  0.79400160323E+03  0.00000000000E+00 0.  1.
         -1    1    6    6    0  502  0.12771480902E+03  0.17580511459E+03  0.24466596233E+03  0.32723071965E+03  0.00000000000E+00 0.  1.
<mgrwt>
<rscale>  0 0.25574556E+04</rscale>
<asrwt>0</asrwt>
<pdfrwt beam="1">  1        1 0.18957975E+00 0.25574556E+04</pdfrwt>
<pdfrwt beam="2">  1       -1 0.20414444E+00 0.25574556E+04</pdfrwt>
<totfact> 0.12611501E+00</totfact>
</mgrwt>
</event>
<event>
12    1  0.1960998E-007  0.3683781E+04  0.7818608E-02  0.8071566E-01
          1   -1    0    0  501    0  0.00000000000E+00  0.00000000000E+00  0.27067403566E+04  0.27067403566E+04  0.00000000000E+00 0. -1.
         -1   -1    0    0    0  501 -0.00000000000E+00 -0.00000000000E+00 -0.12533749699E+04  0.12533749699E+04  0.00000000000E+00 0.  1.
         23    2    1    2    0    0 -0.57736949087E+03 -0.64642598529E+03 -0.92648222713E+03  0.12719027654E+04  0.90251004998E+02 0.  0.
        254    2    1    2    0    0  0.57736949087E+03  0.64642598529E+03  0.23798476138E+04  0.26882125612E+04  0.90088291453E+03 0.  0.
        -24    2    4    4    0    0  0.43247180538E+03 -0.12584490870E+03  0.78300255983E+03  0.90664893867E+03  0.77784868651E+02 0.  0.
         24    2    4    4    0    0  0.14489768549E+03  0.77227089399E+03  0.15968450540E+04  0.17815636225E+04  0.81591308863E+02 0.  0.
         13    1    3    3    0    0 -0.27560753180E+03 -0.27590173414E+03 -0.35940161573E+03  0.53033084002E+03  0.00000000000E+00 0. -1.
        -13    1    3    3    0    0 -0.30176195908E+03 -0.37052425115E+03 -0.56708061140E+03  0.74157192534E+03  0.00000000000E+00 0.  1.
          2    1    6    6  502    0  0.60715582426E+02  0.52628075723E+03  0.10900491618E+04  0.12119674057E+04  0.00000000000E+00 0. -1.
          1    1    5    5  503    0  0.26324635971E+03 -0.36654782943E+02  0.45493290791E+03  0.52688344984E+03  0.00000000000E+00 0. -1.
         -2    1    5    5    0  503  0.16922544567E+03 -0.89190125759E+02  0.32806965192E+03  0.37976548883E+03  0.00000000000E+00 0.  1.
         -1    1    6    6    0  502  0.84182103065E+02  0.24599013677E+03  0.50679589221E+03  0.56959621682E+03  0.00000000000E+00 0.  1.
<mgrwt>
<rscale>  0 0.36837810E+04</rscale>
<asrwt>0</asrwt>
<pdfrwt beam="1">  1        1 0.41642159E+00 0.36837810E+04</pdfrwt>
<pdfrwt beam="2">  1       -1 0.19282692E+00 0.36837810E+04</pdfrwt>
<totfact> 0.13161636E-01</totfact>
</mgrwt>
</event>
<event>
12    1  0.1960998E-007  0.1552774E+04  0.7818608E-02  0.8850098E-01
          2   -1    0    0  501    0  0.00000000000E+00  0.00000000000E+00  0.10743999633E+04  0.10743999633E+04  0.00000000000E+00 0.  1.
         -2   -1    0    0    0  501 -0.00000000000E+00 -0.00000000000E+00 -0.56103558131E+03  0.56103558131E+03  0.00000000000E+00 0. -1.
         23    2    1    2    0    0  0.24157457360E+03  0.44390234582E+03  0.20201632574E+03  0.55222965565E+03  0.93484915758E+02 0.  0.
        254    2    1    2    0    0 -0.24157457360E+03 -0.44390234582E+03  0.31134805627E+03  0.10832058890E+04  0.90608488484E+03 0.  0.
        -24    2    4    4    0    0 -0.16013989532E+03 -0.55476159757E+03  0.54670255818E+03  0.79920313648E+03  0.80229358839E+02 0.  0.
         24    2    4    4    0    0 -0.81434678286E+02  0.11085925175E+03 -0.23535450192E+03  0.28400275250E+03  0.79652001397E+02 0.  0.
         11    1    3    3    0    0  0.15465742665E+03  0.35836810187E+03  0.13449266388E+03  0.41283761056E+03  0.00000000000E+00 0.  1.
        -11    1    3    3    0    0  0.86917146952E+02  0.85534243957E+02  0.67523661867E+02  0.13939204509E+03  0.00000000000E+00 0. -1.
          2    1    6    6  502    0 -0.12303496452E+02  0.62905352642E+02 -0.15469944500E+03  0.16745261330E+03  0.00000000000E+00 0. -1.
          1    1    5    5  503    0 -0.11417810563E+03 -0.34288789189E+03  0.38996636149E+03  0.53167895323E+03  0.00000000000E+00 0. -1.
         -2    1    5    5    0  503 -0.45961789693E+02 -0.21187370568E+03  0.15673619669E+03  0.26752418325E+03  0.00000000000E+00 0.  1.
         -1    1    6    6    0  502 -0.69131181835E+02  0.47953899105E+02 -0.80655056918E+02  0.11655013920E+03  0.00000000000E+00 0.  1.
<mgrwt>
<rscale>  0 0.15527738E+04</rscale>
<asrwt>0</asrwt>
<pdfrwt beam="1">  1        2 0.16529230E+00 0.15527738E+04</pdfrwt>
<pdfrwt beam="2">  1       -2 0.86313166E-01 0.15527738E+04</pdfrwt>
<totfact> 0.25308142E+01</totfact>
</mgrwt>
</event>
<event>
12    1  0.1960998E-007  0.2682495E+04  0.7818608E-02  0.8340707E-01
          2   -1    0    0  501    0  0.00000000000E+00  0.00000000000E+00  0.19109754232E+04  0.19109754232E+04  0.00000000000E+00 0. -1.
         -2   -1    0    0    0  501 -0.00000000000E+00 -0.00000000000E+00 -0.94137537327E+03  0.94137537327E+03  0.00000000000E+00 0.  1.
         23    2    1    2    0    0 -0.33698254359E+03  0.11302306304E+04  0.58588094732E+03  0.13199920625E+04  0.90244379154E+02 0.  0.
        254    2    1    2    0    0  0.33698254359E+03 -0.11302306304E+04  0.38371910258E+03  0.15323587340E+04  0.89994690254E+03 0.  0.
        -24    2    4    4    0    0  0.30011188730E+03 -0.12670254445E+04  0.40628448266E+03  0.13662322579E+04  0.78120931371E+02 0.  0.
         24    2    4    4    0    0  0.36870656295E+02  0.13679481411E+03 -0.22565380080E+02  0.16612647603E+03  0.83764808823E+02 0.  0.
         13    1    3    3    0    0 -0.20191138845E+03  0.81678761487E+03  0.42671931486E+03  0.94339789605E+03  0.00000000000E+00 0. -1.
        -13    1    3    3    0    0 -0.13507115514E+03  0.31344301551E+03  0.15916163245E+03  0.37659416640E+03  0.00000000000E+00 0.  1.
          4    1    6    6  502    0  0.26733614901E+02  0.52066315212E+02  0.30135999647E+02  0.65831343752E+02  0.00000000000E+00 0. -1.
          1    1    5    5  503    0  0.41186875383E+02 -0.20064687793E+03  0.93507889502E+02  0.22516494782E+03  0.00000000000E+00 0. -1.
         -2    1    5    5    0  503  0.25892501191E+03 -0.10663785666E+04  0.31277659316E+03  0.11410673101E+04  0.00000000000E+00 0.  1.
         -3    1    6    6    0  502  0.10137041394E+02  0.84728498902E+02 -0.52701379727E+02  0.10029513228E+03  0.00000000000E+00 0.  1.
<mgrwt>
<rscale>  0 0.26824953E+04</rscale>
<asrwt>0</asrwt>
<pdfrwt beam="1">  1        2 0.29399622E+00 0.26824953E+04</pdfrwt>
<pdfrwt beam="2">  1       -2 0.14482698E+00 0.26824953E+04</pdfrwt>
<totfact> 0.21625381E+00</totfact>
</mgrwt>
</event>
<event>
12    1  0.1960998E-007  0.2722338E+04  0.7818608E-02  0.8327793E-01
         -1   -1    0    0    0  501 -0.00000000000E+00  0.00000000000E+00  0.11297760822E+04  0.11297760822E+04  0.00000000000E+00 0.  1.
          1   -1    0    0  501    0  0.00000000000E+00 -0.00000000000E+00 -0.16399546907E+04  0.16399546907E+04  0.00000000000E+00 0. -1.
         23    2    1    2    0    0 -0.10583288350E+04 -0.57701941193E+03 -0.34005804879E+03  0.12559851441E+04  0.94063175627E+02 0.  0.
        254    2    1    2    0    0  0.10583288350E+04  0.57701941193E+03 -0.17012055968E+03  0.15137456287E+04  0.89970745186E+03 0.  0.
        -24    2    4    4    0    0  0.18646843510E+03  0.30783722601E+03 -0.42400774277E+03  0.56334432728E+03  0.89666215142E+02 0.  0.
         24    2    4    4    0    0  0.87186039989E+03  0.26918218592E+03  0.25388718309E+03  0.95040130145E+03  0.78767543636E+02 0.  0.
         11    1    3    3    0    0 -0.67346962063E+03 -0.31585674699E+03 -0.20100550742E+03  0.77053879107E+03  0.00000000000E+00 0. -1.
        -11    1    3    3    0    0 -0.38485921436E+03 -0.26116266494E+03 -0.13905254136E+03  0.48544635306E+03  0.00000000000E+00 0.  1.
          2    1    6    6  502    0  0.19433593582E+03  0.88613999578E+02  0.79179696793E+02  0.22779008156E+03  0.00000000000E+00 0. -1.
          1    1    5    5  503    0  0.15296533763E+02  0.40751074597E+00 -0.48055406498E+01  0.16038803918E+02  0.00000000000E+00 0. -1.
         -2    1    5    5    0  503  0.17117190134E+03  0.30742971527E+03 -0.41920220212E+03  0.54730552336E+03  0.00000000000E+00 0.  1.
         -1    1    6    6    0  502  0.67752446407E+03  0.18056818634E+03  0.17470748630E+03  0.72261121989E+03  0.00000000000E+00 0.  1.
<mgrwt>
<rscale>  0 0.27223384E+04</rscale>
<asrwt>0</asrwt>
<pdfrwt beam="1">  1        1 0.25230072E+00 0.27223384E+04</pdfrwt>
<pdfrwt beam="2">  1       -1 0.17381170E+00 0.27223384E+04</pdfrwt>
<totfact> 0.10535101E+00</totfact>
</mgrwt>
</event>
<event>
12    1  0.1960998E-007  0.3452982E+04  0.7818608E-02  0.8125024E-01
          2   -1    0    0  501    0  0.00000000000E+00  0.00000000000E+00  0.23817689619E+04  0.23817689619E+04  0.00000000000E+00 0. -1.
         -2   -1    0    0    0  501 -0.00000000000E+00 -0.00000000000E+00 -0.12514949389E+04  0.12514949389E+04  0.00000000000E+00 0.  1.
         23    2    1    2    0    0  0.50107699065E+03 -0.14892439218E+04  0.88685449564E+03  0.18065178111E+04  0.89833713422E+02 0.  0.
        254    2    1    2    0    0 -0.50107699065E+03  0.14892439218E+04  0.24341952738E+03  0.18267460898E+04  0.89934565163E+03 0.  0.
        -24    2    4    4    0    0 -0.26138080455E+03 -0.21374907963E+02  0.90301305369E+02  0.28750555301E+03  0.75685570483E+02 0.  0.
         24    2    4    4    0    0 -0.23969618610E+03  0.15106188298E+04  0.15311822201E+03  0.15392405368E+04  0.79954547857E+02 0.  0.
         11    1    3    3    0    0  0.25631359507E+03 -0.76873267631E+03  0.50878823579E+03  0.95682394175E+03  0.00000000000E+00 0. -1.
        -11    1    3    3    0    0  0.24476339559E+03 -0.72051124550E+03  0.37806625986E+03  0.84969386931E+03  0.00000000000E+00 0.  1.
          2    1    6    6  502    0 -0.67613555414E+02  0.66307410883E+03  0.52709359571E+02  0.66859340654E+03  0.00000000000E+00 0. -1.
          3    1    5    5  503    0 -0.25422466258E+03 -0.12193603179E+02  0.98875369230E+02  0.27304798417E+03  0.00000000000E+00 0. -1.
         -4    1    5    5    0  503 -0.71561419785E+01 -0.91813047846E+01 -0.85740638604E+01  0.14457568836E+02  0.00000000000E+00 0.  1.
         -1    1    6    6    0  502 -0.17208263069E+03  0.84754472093E+03  0.10040886244E+03  0.87064713026E+03  0.00000000000E+00 0.  1.
<mgrwt>
<rscale>  0 0.34529824E+04</rscale>
<asrwt>0</asrwt>
<pdfrwt beam="1">  1        2 0.36642599E+00 0.34529824E+04</pdfrwt>
<pdfrwt beam="2">  1       -2 0.19253768E+00 0.34529824E+04</pdfrwt>
<totfact> 0.50064748E-01</totfact>
</mgrwt>
</event>
<event>
12    1  0.1960998E-007  0.1829073E+04  0.7818608E-02  0.8690990E-01
          1   -1    0    0  501    0  0.00000000000E+00  0.00000000000E+00  0.17457297646E+04  0.17457297646E+04  0.00000000000E+00 0. -1.
         -1   -1    0    0    0  501 -0.00000000000E+00 -0.00000000000E+00 -0.47909860202E+03  0.47909860202E+03  0.00000000000E+00 0.  1.
         23    2    1    2    0    0 -0.17285359243E+03 -0.22644715641E+03 -0.28185755716E+03  0.41084484520E+03  0.90515883907E+02 0.  0.
        254    2    1    2    0    0  0.17285359243E+03  0.22644715641E+03  0.15484887197E+04  0.18139835214E+04  0.90086748291E+03 0.  0.
        -24    2    4    4    0    0  0.35553359948E+03  0.44847354988E+03  0.13104252191E+04  0.14320993511E+04  0.78496058921E+02 0.  0.
         24    2    4    4    0    0 -0.18268000705E+03 -0.22202639347E+03  0.23806350067E+03  0.38188417035E+03  0.80582782506E+02 0.  0.
         11    1    3    3    0    0 -0.11131425643E+03 -0.75417024838E+02 -0.10792892306E+03  0.17241590342E+03  0.00000000000E+00 0. -1.
        -11    1    3    3    0    0 -0.61539335995E+02 -0.15103013157E+03 -0.17392863410E+03  0.23842894178E+03  0.00000000000E+00 0.  1.
          4    1    6    6  502    0 -0.54366906179E+01 -0.45516672710E+02  0.19908090638E+02  0.49976566232E+02  0.00000000000E+00 0. -1.
          1    1    5    5  503    0  0.51663925261E+02  0.91812263211E+02  0.30933153503E+03  0.32677920897E+03  0.00000000000E+00 0. -1.
         -2    1    5    5    0  503  0.30386967422E+03  0.35666128667E+03  0.10010936840E+04  0.11053201421E+04  0.00000000000E+00 0.  1.
         -3    1    6    6    0  502 -0.17724331643E+03 -0.17650972076E+03  0.21815541003E+03  0.33190760412E+03  0.00000000000E+00 0.  1.
<mgrwt>
<rscale>  0 0.18290726E+04</rscale>
<asrwt>0</asrwt>
<pdfrwt beam="1">  1        1 0.26857381E+00 0.18290726E+04</pdfrwt>
<pdfrwt beam="2">  1       -1 0.73707478E-01 0.18290726E+04</pdfrwt>
<totfact> 0.77405304E+00</totfact>
</mgrwt>
</event>
<event>
12    1  0.1960998E-007  0.1845850E+04  0.7818608E-02  0.8682290E-01
         -2   -1    0    0    0  501 -0.00000000000E+00  0.00000000000E+00  0.31046712135E+03  0.31046712135E+03  0.00000000000E+00 0.  1.
          2   -1    0    0  501    0  0.00000000000E+00 -0.00000000000E+00 -0.27435773503E+04  0.27435773503E+04  0.00000000000E+00 0. -1.
         23    2    1    2    0    0 -0.46396395707E+03 -0.52209992230E+03 -0.86750833834E+03  0.11172609862E+04  0.88603114323E+02 0.  0.
        254    2    1    2    0    0  0.46396395707E+03  0.52209992230E+03 -0.15656018906E+04  0.19367834855E+04  0.90120480874E+03 0.  0.
        -24    2    4    4    0    0  0.11838725983E+03 -0.23389526020E+03 -0.21285023522E+03  0.34702786654E+03  0.80003634196E+02 0.  0.
         24    2    4    4    0    0  0.34557669724E+03  0.75599518251E+03 -0.13527516554E+04  0.15897556189E+04  0.80211701470E+02 0.  0.
         11    1    3    3    0    0 -0.28917236638E+03 -0.27432992382E+03 -0.44814400347E+03  0.59975879521E+03  0.00000000000E+00 0.  1.
        -11    1    3    3    0    0 -0.17479159070E+03 -0.24776999849E+03 -0.41936433486E+03  0.51750219099E+03  0.00000000000E+00 0. -1.
          2    1    6    6  502    0  0.22716936258E+02  0.11209537143E+03 -0.16864823295E+03  0.20377354579E+03  0.00000000000E+00 0. -1.
          1    1    5    5  503    0  0.53109344378E+02 -0.33646782979E+02 -0.58810266902E+02  0.86089232533E+02  0.00000000000E+00 0. -1.
         -2    1    5    5    0  503  0.65277915454E+02 -0.20024847723E+03 -0.15403996832E+03  0.26093863401E+03  0.00000000000E+00 0.  1.
         -1    1    6    6    0  502  0.32285976098E+03  0.64389981108E+03 -0.11841034225E+04  0.13859820731E+04  0.00000000000E+00 0.  1.
<mgrwt>
<rscale>  0 0.18458500E+04</rscale>
<asrwt>0</asrwt>
<pdfrwt beam="1">  1        2 0.42208883E+00 0.18458500E+04</pdfrwt>
<pdfrwt beam="2">  1       -2 0.47764171E-01 0.18458500E+04</pdfrwt>
<totfact> 0.97895269E+00</totfact>
</mgrwt>
</event>
<event>
12    1  0.1960998E-007  0.1632463E+04  0.7818608E-02  0.8800849E-01
         -1   -1    0    0    0  501 -0.00000000000E+00  0.00000000000E+00  0.63230963957E+03  0.63230963957E+03  0.00000000000E+00 0.  1.
          1   -1    0    0  501    0  0.00000000000E+00 -0.00000000000E+00 -0.10536515298E+04  0.10536515298E+04  0.00000000000E+00 0. -1.
         23    2    1    2    0    0 -0.98022650951E+02  0.46068436980E+03 -0.46491787341E+03  0.66800332518E+03  0.90781522091E+02 0.  0.
        254    2    1    2    0    0  0.98022650951E+02 -0.46068436980E+03  0.43575983151E+02  0.10179578442E+04  0.90138825021E+03 0.  0.
        -24    2    4    4    0    0  0.10984424475E+02  0.25976906417E+03 -0.62668644767E+02  0.27929729884E+03  0.80492222122E+02 0.  0.
         24    2    4    4    0    0  0.87038226476E+02 -0.72045343397E+03  0.10624462792E+03  0.73866054537E+03  0.87764895798E+02 0.  0.
         13    1    3    3    0    0 -0.42698105616E+02  0.21825827839E+03 -0.28287166029E+03  0.35982798738E+03  0.00000000000E+00 0. -1.
        -13    1    3    3    0    0 -0.55324545334E+02  0.24242609141E+03 -0.18204621313E+03  0.30817533780E+03  0.00000000000E+00 0.  1.
          2    1    6    6  502    0  0.44881024163E+02 -0.57043093210E+03  0.56000418158E+02  0.57492764889E+03  0.00000000000E+00 0. -1.
          1    1    5    5  503    0 -0.13732930522E+02  0.15439343676E+03 -0.71505608213E+02  0.17070143146E+03  0.00000000000E+00 0. -1.
         -2    1    5    5    0  503  0.24717354996E+02  0.10537562741E+03  0.88369634465E+01  0.10859586739E+03  0.00000000000E+00 0.  1.
         -1    1    6    6    0  502  0.42157202313E+02 -0.15002250188E+03  0.50244209760E+02  0.16373289648E+03  0.00000000000E+00 0.  1.
<mgrwt>
<rscale>  0 0.16324632E+04</rscale>
<asrwt>0</asrwt>
<pdfrwt beam="1">  1        1 0.16210023E+00 0.16324632E+04</pdfrwt>
<pdfrwt beam="2">  1       -1 0.97278408E-01 0.16324632E+04</pdfrwt>
<totfact> 0.13358120E+01</totfact>
</mgrwt>
</event>
<event>
12    1  0.1960998E-007  0.2761390E+04  0.7818608E-02  0.8315356E-01
         -1   -1    0    0    0  501 -0.00000000000E+00  0.00000000000E+00  0.19138581619E+04  0.19138581619E+04  0.00000000000E+00 0. -1.
          1   -1    0    0  501    0  0.00000000000E+00 -0.00000000000E+00 -0.99606075883E+03  0.99606075883E+03  0.00000000000E+00 0.  1.
         23    2    1    2    0    0  0.39396401190E+03 -0.94623327227E+03  0.11323712836E+04  0.15292337186E+04  0.75670297512E+02 0.  0.
        254    2    1    2    0    0 -0.39396401190E+03  0.94623327227E+03 -0.21457388060E+03  0.13806852021E+04  0.89982477672E+03 0.  0.
        -24    2    4    4    0    0 -0.38759467532E+03 -0.13312243868E+02 -0.10846230405E+03  0.41183963575E+03  0.86261034092E+02 0.  0.
         24    2    4    4    0    0 -0.63693365733E+01  0.95954551614E+03 -0.10611157654E+03  0.96884556633E+03  0.81448749069E+02 0.  0.
         11    1    3    3    0    0  0.11803757669E+03 -0.24610742515E+03  0.34752459276E+03  0.44189939669E+03  0.00000000000E+00 0.  1.
        -11    1    3    3    0    0  0.27592643520E+03 -0.70012584712E+03  0.78484669089E+03  0.10873343219E+04  0.00000000000E+00 0. -1.
          2    1    6    6  502    0  0.29307947267E+02  0.73327134670E+03 -0.86527969087E+02  0.73894039888E+03  0.00000000000E+00 0. -1.
          3    1    5    5  503    0 -0.30396785748E+03  0.11601618648E+01 -0.11876260922E+03  0.32634699586E+03  0.00000000000E+00 0. -1.
         -4    1    5    5    0  503 -0.83626817841E+02 -0.14472405733E+02  0.10300305165E+02  0.85492639896E+02  0.00000000000E+00 0.  1.
         -1    1    6    6    0  502 -0.35677283840E+02  0.22627416944E+03 -0.19583607456E+02  0.22990516744E+03  0.00000000000E+00 0.  1.
<mgrwt>
<rscale>  0 0.27613902E+04</rscale>
<asrwt>0</asrwt>
<pdfrwt beam="1">  1        1 0.15324012E+00 0.27613902E+04</pdfrwt>
<pdfrwt beam="2">  1       -1 0.29443972E+00 0.27613902E+04</pdfrwt>
<totfact> 0.47493010E-01</totfact>
</mgrwt>
</event>
<event>
12    1  0.1960998E-007  0.2515552E+04  0.7818608E-02  0.8397466E-01
          1   -1    0    0  501    0  0.00000000000E+00  0.00000000000E+00  0.13394900147E+04  0.13394900147E+04  0.00000000000E+00 0. -1.
         -1   -1    0    0    0  501 -0.00000000000E+00 -0.00000000000E+00 -0.11810468333E+04  0.11810468333E+04  0.00000000000E+00 0.  1.
         23    2    1    2    0    0  0.71914505931E+03 -0.72139915204E+03 -0.33240836859E+03  0.10755267517E+04  0.93145677905E+02 0.  0.
        254    2    1    2    0    0 -0.71914505931E+03  0.72139915204E+03  0.49085155005E+03  0.14450100963E+04  0.89974028541E+03 0.  0.
        -24    2    4    4    0    0  0.46438036095E+02  0.86042723928E+02 -0.19604530791E+03  0.23361187939E+03  0.81122782884E+02 0.  0.
         24    2    4    4    0    0 -0.76558309540E+03  0.63535642811E+03  0.68689685795E+03  0.12113982169E+04  0.76570749272E+02 0.  0.
         11    1    3    3    0    0  0.20945703817E+02 -0.33231049326E+02 -0.30573945762E+02  0.49777417643E+02  0.00000000000E+00 0.  1.
        -11    1    3    3    0    0  0.69819935549E+03 -0.68816810271E+03 -0.30183442283E+03  0.10257493341E+04  0.00000000000E+00 0. -1.
          2    1    6    6  502    0 -0.28609668414E+03  0.28501035327E+03  0.28834553287E+03  0.49621100398E+03  0.00000000000E+00 0. -1.
          1    1    5    5  503    0  0.12209288999E+02  0.16465052125E+02  0.23207655232E+01  0.20628878592E+02  0.00000000000E+00 0. -1.
         -2    1    5    5    0  503  0.34228747096E+02  0.69577671802E+02 -0.19836607343E+03  0.21298300080E+03  0.00000000000E+00 0.  1.
         -1    1    6    6    0  502 -0.47948641127E+03  0.35034607484E+03  0.39855132508E+03  0.71518721288E+03  0.00000000000E+00 0.  1.
<mgrwt>
<rscale>  0 0.25155520E+04</rscale>
<asrwt>0</asrwt>
<pdfrwt beam="1">  1        1 0.20607539E+00 0.25155520E+04</pdfrwt>
<pdfrwt beam="2">  1       -1 0.18169951E+00 0.25155520E+04</pdfrwt>
<totfact> 0.15220657E+00</totfact>
</mgrwt>
</event>
<event>
12    1  0.1960998E-007  0.3220853E+04  0.7818608E-02  0.8183331E-01
          2   -1    0    0  501    0  0.00000000000E+00  0.00000000000E+00  0.51928908521E+04  0.51928908521E+04  0.00000000000E+00 0.  1.
         -2   -1    0    0    0  501 -0.00000000000E+00 -0.00000000000E+00 -0.49942784957E+03  0.49942784957E+03  0.00000000000E+00 0. -1.
         23    2    1    2    0    0  0.84586962485E+03  0.93000493631E+03  0.76319765636E+03  0.14735419369E+04  0.91926999922E+02 0.  0.
        254    2    1    2    0    0 -0.84586962485E+03 -0.93000493631E+03  0.39302653461E+04  0.42187767647E+04  0.87788786065E+03 0.  0.
        -24    2    4    4    0    0 -0.93400359510E+03 -0.98148385410E+03  0.31837279422E+04  0.34610639359E+04  0.84656286754E+02 0.  0.
         24    2    4    4    0    0  0.88133970250E+02  0.51478917788E+02  0.74653740392E+03  0.75771282884E+03  0.79955986878E+02 0.  0.
         13    1    3    3    0    0  0.49874863388E+03  0.52034040620E+03  0.38874939930E+03  0.81892028524E+03  0.00000000000E+00 0. -1.
        -13    1    3    3    0    0  0.34712099096E+03  0.40966453011E+03  0.37444825706E+03  0.65462165165E+03  0.00000000000E+00 0.  1.
          4    1    6    6  502    0  0.77637226246E+02  0.27350871632E+02  0.69489717634E+03  0.69975545354E+03  0.00000000000E+00 0. -1.
          3    1    5    5  503    0 -0.46225764683E+03 -0.46751698016E+03  0.14418305048E+04  0.15846543672E+04  0.00000000000E+00 0. -1.
         -4    1    5    5    0  503 -0.47174594827E+03 -0.51396687394E+03  0.17418974374E+04  0.18764095687E+04  0.00000000000E+00 0.  1.
         -3    1    6    6    0  502  0.10496744004E+02  0.24128046156E+02  0.51640227585E+02  0.57957375294E+02  0.00000000000E+00 0.  1.
<mgrwt>
<rscale>  0 0.32208535E+04</rscale>
<asrwt>0</asrwt>
<pdfrwt beam="1">  1        2 0.79890625E+00 0.32208535E+04</pdfrwt>
<pdfrwt beam="2">  1       -2 0.76835057E-01 0.32208535E+04</pdfrwt>
<totfact> 0.23903246E-02</totfact>
</mgrwt>
</event>
<event>
12    1  0.1960998E-007  0.3073317E+04  0.7818608E-02  0.8223099E-01
          1   -1    0    0  501    0  0.00000000000E+00  0.00000000000E+00  0.19838313397E+04  0.19838313397E+04  0.00000000000E+00 0. -1.
         -1   -1    0    0    0  501 -0.00000000000E+00 -0.00000000000E+00 -0.11902824289E+04  0.11902824289E+04  0.00000000000E+00 0.  1.
         23    2    1    2    0    0 -0.88158739924E+03 -0.10213826064E+04  0.76857243048E+03  0.15552705809E+04  0.88001294057E+02 0.  0.
        254    2    1    2    0    0  0.88158739924E+03  0.10213826064E+04  0.24976480374E+02  0.16188431877E+04  0.89420952280E+03 0.  0.
        -24    2    4    4    0    0  0.54955927069E+03  0.10335527208E+04  0.26388274413E+03  0.12020466526E+04  0.70960788514E+02 0.  0.
         24    2    4    4    0    0  0.33202812855E+03 -0.12170114477E+02 -0.23890626375E+03  0.41679653513E+03  0.79071859739E+02 0.  0.
         11    1    3    3    0    0 -0.18030051851E+03 -0.26057538547E+03  0.16222774217E+03  0.35598546153E+03  0.00000000000E+00 0.  1.
        -11    1    3    3    0    0 -0.70128688073E+03 -0.76080722090E+03  0.60634468831E+03  0.11992851193E+04  0.00000000000E+00 0. -1.
          2    1    6    6  502    0  0.30386625428E+02  0.16892974734E+02 -0.45644008924E+02  0.57376782334E+02  0.00000000000E+00 0. -1.
          1    1    5    5  503    0  0.19869709900E+03  0.30534490575E+03  0.89109801211E+02  0.37504213802E+03  0.00000000000E+00 0. -1.
         -2    1    5    5    0  503  0.35086217169E+03  0.72820781510E+03  0.17477294292E+03  0.82700451454E+03  0.00000000000E+00 0.  1.
         -1    1    6    6    0  502  0.30164150312E+03 -0.29063089211E+02 -0.19326225483E+03  0.35941975280E+03  0.00000000000E+00 0.  1.
<mgrwt>
<rscale>  0 0.30733172E+04</rscale>
<asrwt>0</asrwt>
<pdfrwt beam="1">  1        1 0.30520482E+00 0.30733172E+04</pdfrwt>
<pdfrwt beam="2">  1       -1 0.18312037E+00 0.30733172E+04</pdfrwt>
<totfact> 0.51095007E-01</totfact>
</mgrwt>
</event>
<event>
12    1  0.1960998E-007  0.2743814E+04  0.7818608E-02  0.8320927E-01
         -2   -1    0    0    0  501 -0.00000000000E+00  0.00000000000E+00  0.10102135318E+04  0.10102135318E+04  0.00000000000E+00 0.  1.
          2   -1    0    0  501    0  0.00000000000E+00 -0.00000000000E+00 -0.18630995987E+04  0.18630995987E+04  0.00000000000E+00 0. -1.
         23    2    1    2    0    0 -0.11668609818E+04  0.20939537043E+03 -0.68121007924E+02  0.11911641028E+04  0.93917389447E+02 0.  0.
        254    2    1    2    0    0  0.11668609818E+04 -0.20939537043E+03 -0.78476505895E+03  0.16821490277E+04  0.89908741612E+03 0.  0.
        -24    2    4    4    0    0 -0.79136311929E+02  0.13092911206E+03 -0.97560829560E+01  0.17354625457E+03  0.81351908826E+02 0.  0.
         24    2    4    4    0    0  0.12459972937E+04 -0.34032448249E+03 -0.77500897599E+03  0.15086027732E+04  0.83146888391E+02 0.  0.
         11    1    3    3    0    0 -0.10558751270E+04  0.21673475784E+03 -0.66167406142E+02  0.10799186843E+04  0.00000000000E+00 0.  1.
        -11    1    3    3    0    0 -0.11098585482E+03 -0.73393874094E+01 -0.19536017820E+01  0.11124541850E+03  0.00000000000E+00 0. -1.
          2    1    6    6  502    0  0.25376812367E+03 -0.61249262705E+02 -0.11963589088E+03  0.28716280949E+03  0.00000000000E+00 0. -1.
          3    1    5    5  503    0 -0.29702186749E+02 -0.26670623337E+01  0.53532230659E+01  0.30298351711E+02  0.00000000000E+00 0. -1.
         -4    1    5    5    0  503 -0.49434125180E+02  0.13359617439E+03 -0.15109306022E+02  0.14324790286E+03  0.00000000000E+00 0.  1.
         -1    1    6    6    0  502  0.99222917005E+03 -0.27907521978E+03 -0.65537308511E+03  0.12214399637E+04  0.00000000000E+00 0.  1.
<mgrwt>
<rscale>  0 0.27438137E+04</rscale>
<asrwt>0</asrwt>
<pdfrwt beam="1">  1        2 0.28663070E+00 0.27438137E+04</pdfrwt>
<pdfrwt beam="2">  1       -2 0.15541747E+00 0.27438137E+04</pdfrwt>
<totfact> 0.18967337E+00</totfact>
</mgrwt>
</event>
<event>
12    1  0.1960998E-007  0.2743922E+04  0.7818608E-02  0.8320893E-01
          1   -1    0    0  501    0  0.00000000000E+00  0.00000000000E+00  0.11690135045E+04  0.11690135045E+04  0.00000000000E+00 0. -1.
         -1   -1    0    0    0  501 -0.00000000000E+00 -0.00000000000E+00 -0.16101408368E+04  0.16101408368E+04  0.00000000000E+00 0.  1.
         23    2    1    2    0    0  0.10354896983E+04 -0.39555375992E+03 -0.71900367024E+03  0.13241515002E+04  0.87802195130E+02 0.  0.
        254    2    1    2    0    0 -0.10354896983E+04  0.39555375992E+03  0.27787633794E+03  0.14550028411E+04  0.90061996218E+03 0.  0.
        -24    2    4    4    0    0 -0.95937082412E+03 -0.47175832014E+02  0.25995902320E+03  0.99825912536E+03  0.79527670082E+02 0.  0.
         24    2    4    4    0    0 -0.76118874183E+02  0.44272959194E+03  0.17917314738E+02  0.45674371579E+03  0.80561884064E+02 0.  0.
         11    1    3    3    0    0  0.10470512338E+03 -0.60484867105E+02 -0.55928210211E+02  0.13322742476E+03  0.00000000000E+00 0. -1.
        -11    1    3    3    0    0  0.93078457492E+03 -0.33506889282E+03 -0.66307546002E+03  0.11909240755E+04  0.00000000000E+00 0.  1.
          4    1    6    6  502    0  0.16703981325E+02  0.95782191383E+02  0.23260639574E+01  0.97255651516E+02  0.00000000000E+00 0. -1.
          1    1    5    5  503    0 -0.25750171183E+03  0.12783968116E+02  0.95102418843E+02  0.27479998454E+03  0.00000000000E+00 0. -1.
         -2    1    5    5    0  503 -0.70186911230E+03 -0.59959800131E+02  0.16485660436E+03  0.72345914082E+03  0.00000000000E+00 0.  1.
         -3    1    6    6    0  502 -0.92822855507E+02  0.34694740055E+03  0.15591250780E+02  0.35948806428E+03  0.00000000000E+00 0.  1.
<mgrwt>
<rscale>  0 0.27439216E+04</rscale>
<asrwt>0</asrwt>
<pdfrwt beam="1">  1        1 0.17984823E+00 0.27439216E+04</pdfrwt>
<pdfrwt beam="2">  1       -1 0.24771397E+00 0.27439216E+04</pdfrwt>
<totfact> 0.70686917E-01</totfact>
</mgrwt>
</event>
<event>
12    1  0.1960998E-007  0.2238652E+04  0.7818608E-02  0.8502510E-01
         -2   -1    0    0    0  501 -0.00000000000E+00  0.00000000000E+00  0.80597574701E+03  0.80597574701E+03  0.00000000000E+00 0.  1.
          2   -1    0    0  501    0  0.00000000000E+00 -0.00000000000E+00 -0.15545020079E+04  0.15545020079E+04  0.00000000000E+00 0. -1.
         23    2    1    2    0    0 -0.86203914148E+03 -0.33158805105E+03 -0.12000898317E+03  0.93592833285E+03  0.92182271378E+02 0.  0.
        254    2    1    2    0    0  0.86203914148E+03  0.33158805105E+03 -0.62851727776E+03  0.14245494221E+04  0.88388063139E+03 0.  0.
        -24    2    4    4    0    0  0.94403323403E+03  0.46786668795E+02 -0.35277400508E+03  0.10120905217E+04  0.80560449571E+02 0.  0.
         24    2    4    4    0    0 -0.81994092556E+02  0.28480138225E+03 -0.27574327268E+03  0.41245890045E+03  0.79076757539E+02 0.  0.
         11    1    3    3    0    0 -0.38365631405E+03 -0.12427264748E+03 -0.11854189501E+02  0.40345554901E+03  0.00000000000E+00 0. -1.
        -11    1    3    3    0    0 -0.47838282743E+03 -0.20731540357E+03 -0.10815479366E+03  0.53247278384E+03  0.00000000000E+00 0.  1.
          4    1    6    6  502    0 -0.81598664940E+02  0.14336379922E+03 -0.15811617678E+03  0.22849999213E+03  0.00000000000E+00 0. -1.
          3    1    5    5  503    0  0.17206575561E+02  0.12295336571E+02 -0.75196366132E+01  0.22445188320E+02  0.00000000000E+00 0. -1.
         -4    1    5    5    0  503  0.92682665847E+03  0.34491332224E+02 -0.34525436846E+03  0.98964533334E+03  0.00000000000E+00 0.  1.
         -3    1    6    6    0  502 -0.39542761594E+00  0.14143758303E+03 -0.11762709590E+03  0.18395890831E+03  0.00000000000E+00 0.  1.
<mgrwt>
<rscale>  0 0.22386522E+04</rscale>
<asrwt>0</asrwt>
<pdfrwt beam="1">  1        2 0.23915415E+00 0.22386522E+04</pdfrwt>
<pdfrwt beam="2">  1       -2 0.12399627E+00 0.22386522E+04</pdfrwt>
<totfact> 0.52734613E+00</totfact>
</mgrwt>
</event>
<event>
12    1  0.1960998E-007  0.1516135E+04  0.7818608E-02  0.8873794E-01
          2   -1    0    0  501    0  0.00000000000E+00  0.00000000000E+00  0.84504697143E+03  0.84504697143E+03  0.00000000000E+00 0.  1.
         -2   -1    0    0    0  501 -0.00000000000E+00 -0.00000000000E+00 -0.68004059242E+03  0.68004059242E+03  0.00000000000E+00 0. -1.
         23    2    1    2    0    0  0.30157902875E+03  0.36336644119E+03 -0.60512434355E+02  0.48402797697E+03  0.87385620182E+02 0.  0.
        254    2    1    2    0    0 -0.30157902875E+03 -0.36336644119E+03  0.22551881337E+03  0.10410595869E+04  0.89997847034E+03 0.  0.
        -24    2    4    4    0    0 -0.10879790041E+03  0.10883164084E+03  0.44767152889E+03  0.47916886219E+03  0.74240767315E+02 0.  0.
         24    2    4    4    0    0 -0.19278112834E+03 -0.47219808204E+03 -0.22215271552E+03  0.56189072469E+03  0.78954197794E+02 0.  0.
         11    1    3    3    0    0  0.14553597914E+03  0.10945939368E+03 -0.18113030192E+02  0.18300317470E+03  0.00000000000E+00 0.  1.
        -11    1    3    3    0    0  0.15604304961E+03  0.25390704751E+03 -0.42399404163E+02  0.30102480227E+03  0.00000000000E+00 0. -1.
          2    1    6    6  502    0 -0.90454138433E+02 -0.31394508816E+03 -0.15710670501E+03  0.36252722146E+03  0.00000000000E+00 0. -1.
          1    1    5    5  503    0 -0.98687057807E+02  0.52030743618E+02  0.26267707658E+03  0.28538672047E+03  0.00000000000E+00 0. -1.
         -2    1    5    5    0  503 -0.10110842599E+02  0.56800897225E+02  0.18499445231E+03  0.19378214172E+03  0.00000000000E+00 0.  1.
         -1    1    6    6    0  502 -0.10232698991E+03 -0.15825299387E+03 -0.65046010506E+02  0.19936350322E+03  0.00000000000E+00 0.  1.
<mgrwt>
<rscale>  0 0.15161349E+04</rscale>
<asrwt>0</asrwt>
<pdfrwt beam="1">  1        2 0.13000723E+00 0.15161349E+04</pdfrwt>
<pdfrwt beam="2">  1       -2 0.10462163E+00 0.15161349E+04</pdfrwt>
<totfact> 0.22896609E+01</totfact>
</mgrwt>
</event>
<event>
12    1  0.1960998E-007  0.1737578E+04  0.7818608E-02  0.8740218E-01
         -1   -1    0    0    0  501 -0.00000000000E+00  0.00000000000E+00  0.10575542138E+04  0.10575542138E+04  0.00000000000E+00 0.  1.
          1   -1    0    0  501    0  0.00000000000E+00 -0.00000000000E+00 -0.71371688908E+03  0.71371688908E+03  0.00000000000E+00 0. -1.
         23    2    1    2    0    0  0.32476254768E+03 -0.53257726580E+03  0.17087955177E+02  0.63047362574E+03  0.89976319815E+02 0.  0.
        254    2    1    2    0    0 -0.32476254768E+03  0.53257726580E+03  0.32674936954E+03  0.11407974771E+04  0.89752129609E+03 0.  0.
        -24    2    4    4    0    0  0.31879201929E+02  0.37587172443E+03  0.55871362667E+03  0.67911688159E+03  0.82115683609E+02 0.  0.
         24    2    4    4    0    0 -0.35664174961E+03  0.15670554136E+03 -0.23196425713E+03  0.46168059554E+03  0.87129739241E+02 0.  0.
         13    1    3    3    0    0  0.20162521843E+03 -0.25047146191E+03  0.25489317349E+02  0.32254982133E+03  0.00000000000E+00 0. -1.
        -13    1    3    3    0    0  0.12313732925E+03 -0.28210580388E+03 -0.84013621721E+01  0.30792380442E+03  0.00000000000E+00 0.  1.
          2    1    6    6  502    0 -0.25787324631E+03  0.70619076946E+02 -0.14188963947E+03  0.30268520773E+03  0.00000000000E+00 0. -1.
          3    1    5    5  503    0  0.52481822237E+02  0.34280557775E+03  0.50997205408E+03  0.61671833258E+03  0.00000000000E+00 0. -1.
         -4    1    5    5    0  503 -0.20602620308E+02  0.33066146686E+02  0.48741572588E+02  0.62398549010E+02  0.00000000000E+00 0.  1.
         -1    1    6    6    0  502 -0.98768503303E+02  0.86086464417E+02 -0.90074617661E+02  0.15899538782E+03  0.00000000000E+00 0.  1.
<mgrwt>
<rscale>  0 0.17375780E+04</rscale>
<asrwt>0</asrwt>
<pdfrwt beam="1">  1        1 0.10980260E+00 0.17375780E+04</pdfrwt>
<pdfrwt beam="2">  1       -1 0.16270065E+00 0.17375780E+04</pdfrwt>
<totfact> 0.69954922E+00</totfact>
</mgrwt>
</event>
<event>
12    1  0.1960998E-007  0.2113888E+04  0.7818608E-02  0.8555150E-01
          2   -1    0    0  501    0  0.00000000000E+00  0.00000000000E+00  0.78724565495E+03  0.78724565495E+03  0.00000000000E+00 0. -1.
         -2   -1    0    0    0  501 -0.00000000000E+00 -0.00000000000E+00 -0.14190368768E+04  0.14190368768E+04  0.00000000000E+00 0.  1.
         23    2    1    2    0    0 -0.35643815901E+03  0.34096421742E+03  0.47914278072E+03  0.69404862964E+03  0.93919844680E+02 0.  0.
        254    2    1    2    0    0  0.35643815901E+03 -0.34096421742E+03 -0.11109340025E+04  0.15122339021E+04  0.89965118676E+03 0.  0.
        -24    2    4    4    0    0  0.63623644687E+03 -0.19527638075E+03 -0.90508157138E+03  0.11270195694E+04  0.89837507474E+02 0.  0.
         24    2    4    4    0    0 -0.27979828786E+03 -0.14568783668E+03 -0.20585243116E+03  0.38521433269E+03  0.80640133002E+02 0.  0.
         13    1    3    3    0    0 -0.17904750293E+03  0.17419514598E+03  0.30737731313E+03  0.39608429635E+03  0.00000000000E+00 0.  1.
        -13    1    3    3    0    0 -0.17739065608E+03  0.16676907145E+03  0.17176546759E+03  0.29796433329E+03  0.00000000000E+00 0. -1.
          4    1    6    6  502    0 -0.52506088523E+02 -0.60790154935E+02 -0.73266779816E+02  0.10872144818E+03  0.00000000000E+00 0. -1.
          1    1    5    5  503    0  0.14233528159E+03 -0.58556805047E+01 -0.20123804048E+03  0.24655703258E+03  0.00000000000E+00 0. -1.
         -2    1    5    5    0  503  0.49390116528E+03 -0.18942070024E+03 -0.70384353091E+03  0.88046253682E+03  0.00000000000E+00 0.  1.
         -3    1    6    6    0  502 -0.22729219933E+03 -0.84897681741E+02 -0.13258565135E+03  0.27649288451E+03  0.00000000000E+00 0.  1.
<mgrwt>
<rscale>  0 0.21138880E+04</rscale>
<asrwt>0</asrwt>
<pdfrwt beam="1">  1        2 0.12111472E+00 0.21138880E+04</pdfrwt>
<pdfrwt beam="2">  1       -2 0.21831336E+00 0.21138880E+04</pdfrwt>
<totfact> 0.32799794E+00</totfact>
</mgrwt>
</event>
<event>
12    1  0.1960998E-007  0.1757551E+04  0.7818608E-02  0.8729205E-01
         -2   -1    0    0    0  501 -0.00000000000E+00  0.00000000000E+00  0.60568508874E+03  0.60568508874E+03  0.00000000000E+00 0.  1.
          2   -1    0    0  501    0  0.00000000000E+00 -0.00000000000E+00 -0.12749959500E+04  0.12749959500E+04  0.00000000000E+00 0. -1.
         23    2    1    2    0    0 -0.34813514091E+03  0.52653790353E+03 -0.10854609154E+03  0.64530978649E+03  0.78754214835E+02 0.  0.
        254    2    1    2    0    0  0.34813514091E+03 -0.52653790353E+03 -0.56076476969E+03  0.12353712522E+04  0.90180084482E+03 0.  0.
        -24    2    4    4    0    0  0.29214359486E+03  0.12460507381E+03  0.57735717922E+02  0.33203859126E+03  0.77729714562E+02 0.  0.
         24    2    4    4    0    0  0.55991546049E+02 -0.65114297734E+03 -0.61850048761E+03  0.90333266096E+03  0.79654334572E+02 0.  0.
         11    1    3    3    0    0 -0.14337556451E+03  0.19283941956E+03 -0.50595608497E+01  0.24035222776E+03  0.00000000000E+00 0.  1.
        -11    1    3    3    0    0 -0.20475957640E+03  0.33369848398E+03 -0.10348653069E+03  0.40495755873E+03  0.00000000000E+00 0. -1.
          2    1    6    6  502    0  0.69978507277E+02 -0.35164041303E+03 -0.34008441417E+03  0.49417140783E+03  0.00000000000E+00 0. -1.
          1    1    5    5  503    0  0.46596164252E+02  0.33684835282E+02  0.39109532812E+02  0.69537228933E+02  0.00000000000E+00 0. -1.
         -2    1    5    5    0  503  0.24554743061E+03  0.90920238527E+02  0.18626185110E+02  0.26250136233E+03  0.00000000000E+00 0.  1.
         -1    1    6    6    0  502 -0.13986961228E+02 -0.29950256431E+03 -0.27841607345E+03  0.40916125313E+03  0.00000000000E+00 0.  1.
<mgrwt>
<rscale>  0 0.17575506E+04</rscale>
<asrwt>0</asrwt>
<pdfrwt beam="1">  1        2 0.19615322E+00 0.17575506E+04</pdfrwt>
<pdfrwt beam="2">  1       -2 0.93182321E-01 0.17575506E+04</pdfrwt>
<totfact> 0.15793566E+01</totfact>
</mgrwt>
</event>
<event>
12    1  0.1960998E-007  0.2811922E+04  0.7818608E-02  0.8299576E-01
         -1   -1    0    0    0  501 -0.00000000000E+00  0.00000000000E+00  0.11051259255E+04  0.11051259255E+04  0.00000000000E+00 0.  1.
          1   -1    0    0  501    0  0.00000000000E+00 -0.00000000000E+00 -0.17886893915E+04  0.17886893915E+04  0.00000000000E+00 0. -1.
         23    2    1    2    0    0 -0.77068655392E+03  0.75916438233E+02  0.71571973238E+03  0.10586013149E+04  0.93064163331E+02 0.  0.
        254    2    1    2    0    0  0.77068655392E+03 -0.75916438233E+02 -0.13992831984E+04  0.18352140021E+04  0.90016437066E+03 0.  0.
        -24    2    4    4    0    0  0.20997061266E+03  0.34348607605E+03 -0.84273104955E+03  0.93739045665E+03  0.80217851614E+02 0.  0.
         24    2    4    4    0    0  0.56071594126E+03 -0.41940251429E+03 -0.55655214881E+03  0.89782354542E+03  0.77691625017E+02 0.  0.
         13    1    3    3    0    0 -0.62054106984E+03  0.64523515884E+02  0.62346189186E+03  0.88200863605E+03  0.00000000000E+00 0.  1.
        -13    1    3    3    0    0 -0.15014548408E+03  0.11392922348E+02  0.92257840523E+02  0.17659267881E+03  0.00000000000E+00 0. -1.
          4    1    6    6  502    0  0.19335410097E+03 -0.11582464571E+03 -0.14373298561E+03  0.26732064654E+03  0.00000000000E+00 0. -1.
          3    1    5    5  503    0  0.13036498368E+02  0.71483125096E+02 -0.18823226784E+03  0.20177010215E+03  0.00000000000E+00 0. -1.
         -4    1    5    5    0  503  0.19693411429E+03  0.27200295096E+03 -0.65449878171E+03  0.73562035451E+03  0.00000000000E+00 0.  1.
         -3    1    6    6    0  502  0.36736184029E+03 -0.30357786858E+03 -0.41281916320E+03  0.63050289888E+03  0.00000000000E+00 0.  1.
<mgrwt>
<rscale>  0 0.28119225E+04</rscale>
<asrwt>0</asrwt>
<pdfrwt beam="1">  1        1 0.27518298E+00 0.28119225E+04</pdfrwt>
<pdfrwt beam="2">  1       -1 0.17001937E+00 0.28119225E+04</pdfrwt>
<totfact> 0.88219588E-01</totfact>
</mgrwt>
</event>
<event>
12    1  0.1960998E-007  0.2014039E+04  0.7818608E-02  0.8600085E-01
         -2   -1    0    0    0  501 -0.00000000000E+00  0.00000000000E+00  0.54232602155E+03  0.54232602155E+03  0.00000000000E+00 0.  1.
          2   -1    0    0  501    0  0.00000000000E+00 -0.00000000000E+00 -0.18698864301E+04  0.18698864301E+04  0.00000000000E+00 0. -1.
         23    2    1    2    0    0 -0.41417871051E+03 -0.33702340951E+03 -0.12491619685E+04  0.13615159303E+04  0.90505370779E+02 0.  0.
        254    2    1    2    0    0  0.41417871051E+03  0.33702340951E+03 -0.78398440007E+02  0.10506965213E+04  0.90149214178E+03 0.  0.
        -24    2    4    4    0    0  0.64953019176E+03  0.21549633616E+03 -0.24066492614E+03  0.72974201106E+03  0.79219032642E+02 0.  0.
         24    2    4    4    0    0 -0.23535148125E+03  0.12152707335E+03  0.16226648613E+03  0.32095451025E+03  0.80760360608E+02 0.  0.
         13    1    3    3    0    0 -0.21261585985E+03 -0.15916590822E+03 -0.73142613133E+03  0.77815388953E+03  0.00000000000E+00 0. -1.
        -13    1    3    3    0    0 -0.20156285066E+03 -0.17785750129E+03 -0.51773583721E+03  0.58336204082E+03  0.00000000000E+00 0.  1.
          4    1    6    6  502    0  0.28676411758E+01  0.15696150233E+02  0.60805682395E+01  0.17075298187E+02  0.00000000000E+00 0. -1.
          1    1    5    5  503    0  0.40840534471E+03  0.14071835314E+03 -0.19164927970E+03  0.47257383223E+03  0.00000000000E+00 0. -1.
         -2    1    5    5    0  503  0.24112484705E+03  0.74777983016E+02 -0.49015646436E+02  0.25716817884E+03  0.00000000000E+00 0.  1.
         -3    1    6    6    0  502 -0.23821912242E+03  0.10583092311E+03  0.15618591789E+03  0.30387921206E+03  0.00000000000E+00 0.  1.
<mgrwt>
<rscale>  0 0.20140388E+04</rscale>
<asrwt>0</asrwt>
<pdfrwt beam="1">  1        2 0.28767483E+00 0.20140388E+04</pdfrwt>
<pdfrwt beam="2">  1       -2 0.83434774E-01 0.20140388E+04</pdfrwt>
<totfact> 0.92043130E+00</totfact>
</mgrwt>
</event>
<event>
12    1  0.1960998E-007  0.3438579E+04  0.7818608E-02  0.8128502E-01
          1   -1    0    0  501    0  0.00000000000E+00  0.00000000000E+00  0.32966415666E+04  0.32966415666E+04  0.00000000000E+00 0. -1.
         -1   -1    0    0    0  501 -0.00000000000E+00 -0.00000000000E+00 -0.89665663523E+03  0.89665663523E+03  0.00000000000E+00 0.  1.
         23    2    1    2    0    0  0.33899699667E+03  0.11159628848E+04  0.24548265415E+04  0.27193097648E+04  0.90444037965E+02 0.  0.
        254    2    1    2    0    0 -0.33899699667E+03 -0.11159628848E+04 -0.54841610121E+02  0.14739884370E+04  0.89963447367E+03 0.  0.
        -24    2    4    4    0    0 -0.39003854113E+03 -0.10736173285E+04 -0.32035397625E+03  0.11890367177E+04  0.79983837769E+02 0.  0.
         24    2    4    4    0    0  0.51041544461E+02 -0.42345556375E+02  0.26551236613E+03  0.28495171937E+03  0.79386903193E+02 0.  0.
         11    1    3    3    0    0  0.52016784234E+02  0.26791236795E+03  0.51491138805E+03  0.58276626557E+03  0.00000000000E+00 0. -1.
        -11    1    3    3    0    0  0.28698021243E+03  0.84805051688E+03  0.19399151534E+04  0.21365434992E+04  0.00000000000E+00 0.  1.
          4    1    6    6  502    0  0.51643574155E+02 -0.47984455878E+02  0.11888235950E+03  0.13821209122E+03  0.00000000000E+00 0. -1.
          1    1    5    5  503    0 -0.11657872530E+03 -0.22787613296E+03 -0.61292373764E+02  0.26320122767E+03  0.00000000000E+00 0. -1.
         -2    1    5    5    0  503 -0.27345981583E+03 -0.84574119550E+03 -0.25906160249E+03  0.92583548999E+03  0.00000000000E+00 0.  1.
         -3    1    6    6    0  502 -0.60202969400E+00  0.56388995021E+01  0.14663000663E+03  0.14673962816E+03  0.00000000000E+00 0.  1.
<mgrwt>
<rscale>  0 0.34385785E+04</rscale>
<asrwt>0</asrwt>
<pdfrwt beam="1">  1        1 0.50717562E+00 0.34385785E+04</pdfrwt>
<pdfrwt beam="2">  1       -1 0.13794718E+00 0.34385785E+04</pdfrwt>
<totfact> 0.12818348E-01</totfact>
</mgrwt>
</event>
<event>
12    1  0.1960998E-007  0.1705101E+04  0.7818608E-02  0.8758461E-01
          2   -1    0    0  501    0  0.00000000000E+00  0.00000000000E+00  0.15469725574E+04  0.15469725574E+04  0.00000000000E+00 0. -1.
         -2   -1    0    0    0  501 -0.00000000000E+00 -0.00000000000E+00 -0.46984809221E+03  0.46984809221E+03  0.00000000000E+00 0.  1.
         23    2    1    2    0    0 -0.51790644005E+03 -0.31324444049E+03  0.47073664803E+03  0.77437451991E+03  0.10823005658E+03 0.  0.
        254    2    1    2    0    0  0.51790644005E+03  0.31324444049E+03  0.60638781711E+03  0.12424461297E+04  0.89978721941E+03 0.  0.
        -24    2    4    4    0    0  0.15817414849E+03  0.14000666092E+02 -0.22422780887E+03  0.28587130484E+03  0.78925361963E+02 0.  0.
         24    2    4    4    0    0  0.35973229156E+03  0.29924377440E+03  0.83061562597E+03  0.95657482481E+03  0.78478782180E+02 0.  0.
         13    1    3    3    0    0 -0.37667790809E+03 -0.25102675600E+03  0.40214216207E+03  0.60549070776E+03  0.00000000000E+00 0. -1.
        -13    1    3    3    0    0 -0.14122853196E+03 -0.62217684489E+02  0.68594485968E+02  0.16888381215E+03  0.00000000000E+00 0.  1.
          2    1    6    6  502    0  0.80743191289E+02  0.32353863728E+02  0.18262848013E+03  0.20228543495E+03  0.00000000000E+00 0. -1.
          3    1    5    5  503    0  0.78416959743E+02  0.46288110457E+02 -0.10814405321E+03  0.14137519227E+03  0.00000000000E+00 0. -1.
         -4    1    5    5    0  503  0.79757188744E+02 -0.32287444365E+02 -0.11608375566E+03  0.14449611257E+03  0.00000000000E+00 0.  1.
         -1    1    6    6    0  502  0.27898910027E+03  0.26688991067E+03  0.64798714584E+03  0.75428938986E+03  0.00000000000E+00 0.  1.
<mgrwt>
<rscale>  0 0.17051007E+04</rscale>
<asrwt>0</asrwt>
<pdfrwt beam="1">  1        2 0.23799578E+00 0.17051007E+04</pdfrwt>
<pdfrwt beam="2">  1       -2 0.72284323E-01 0.17051007E+04</pdfrwt>
<totfact> 0.19678728E+01</totfact>
</mgrwt>
</event>
<event>
12    1  0.1960998E-007  0.2508928E+04  0.7818608E-02  0.8399812E-01
         -1   -1    0    0    0  501 -0.00000000000E+00  0.00000000000E+00  0.16501477964E+04  0.16501477964E+04  0.00000000000E+00 0.  1.
          1   -1    0    0  501    0  0.00000000000E+00 -0.00000000000E+00 -0.95365965552E+03  0.95365965552E+03  0.00000000000E+00 0. -1.
         23    2    1    2    0    0  0.42733474418E+03  0.82934416716E+03  0.88815591360E+03  0.12918618453E+04  0.98282090517E+02 0.  0.
        254    2    1    2    0    0 -0.42733474418E+03 -0.82934416716E+03 -0.19166777276E+03  0.13119456066E+04  0.90224054901E+03 0.  0.
        -24    2    4    4    0    0 -0.37254441267E+03 -0.94516924339E+03 -0.36448335582E+03  0.10824727531E+04  0.82249051290E+02 0.  0.
         24    2    4    4    0    0 -0.54790331513E+02  0.11582507623E+03  0.17281558305E+03  0.22947285348E+03  0.79844448937E+02 0.  0.
         13    1    3    3    0    0  0.32178787777E+03  0.54299374730E+03  0.63523785200E+03  0.89549806057E+03  0.00000000000E+00 0.  1.
        -13    1    3    3    0    0  0.10554686642E+03  0.28635041986E+03  0.25291806161E+03  0.39636378474E+03  0.00000000000E+00 0. -1.
          2    1    6    6  502    0 -0.18009534335E+01 -0.55463488306E+01 -0.50528871027E+01  0.77160279091E+01  0.00000000000E+00 0. -1.
          1    1    5    5  503    0 -0.48449114922E+02 -0.17654012505E+03 -0.39771291276E+02  0.18733789819E+03  0.00000000000E+00 0. -1.
         -2    1    5    5    0  503 -0.32409529775E+03 -0.76862911835E+03 -0.32471206454E+03  0.89513485490E+03  0.00000000000E+00 0.  1.
         -1    1    6    6    0  502 -0.52989378080E+02  0.12137142506E+03  0.17786847016E+03  0.22175682557E+03  0.00000000000E+00 0.  1.
<mgrwt>
<rscale>  0 0.25089276E+04</rscale>
<asrwt>0</asrwt>
<pdfrwt beam="1">  1        1 0.14671687E+00 0.25089276E+04</pdfrwt>
<pdfrwt beam="2">  1       -1 0.25386889E+00 0.25089276E+04</pdfrwt>
<totfact> 0.96130638E-01</totfact>
</mgrwt>
</event>
<event>
12    1  0.2175243E-007  0.3089257E+04  0.7818608E-02  0.8218692E-01
          1   -1    0    0  501    0  0.00000000000E+00  0.00000000000E+00  0.35968361347E+04  0.35968361347E+04  0.00000000000E+00 0. -1.
         -1   -1    0    0    0  501 -0.00000000000E+00 -0.00000000000E+00 -0.66332656030E+03  0.66332656030E+03  0.00000000000E+00 0.  1.
         23    2    1    2    0    0  0.88955103942E+03 -0.10441722412E+04  0.88076882710E+03  0.16327214157E+04  0.91808352572E+02 0.  0.
        254    2    1    2    0    0 -0.88955103942E+03  0.10441722412E+04  0.20527407473E+04  0.26274412793E+04  0.89894737293E+03 0.  0.
        -24    2    4    4    0    0 -0.10123623776E+04  0.62410847050E+03  0.15749371221E+04  0.19751683666E+04  0.80462238004E+02 0.  0.
         24    2    4    4    0    0  0.12281133813E+03  0.42006377070E+03  0.47780362523E+03  0.65227291261E+03  0.75016344900E+02 0.  0.
         13    1    3    3    0    0  0.51569083064E+03 -0.54834406029E+03  0.51447433852E+03  0.91175769054E+03  0.00000000000E+00 0. -1.
        -13    1    3    3    0    0  0.37386020879E+03 -0.49582818090E+03  0.36629448857E+03  0.72096372520E+03  0.00000000000E+00 0.  1.
          2    1    6    6  502    0 -0.10261105828E+02  0.34464608647E+02  0.34127464736E+02  0.49576036462E+02  0.00000000000E+00 0. -1.
          1    1    5    5  503    0 -0.12409494342E+03  0.51872094377E+02  0.20258116474E+03  0.24316537061E+03  0.00000000000E+00 0. -1.
         -2    1    5    5    0  503 -0.88826743413E+03  0.57223637612E+03  0.13723559573E+04  0.17320029960E+04  0.00000000000E+00 0.  1.
         -1    1    6    6    0  502  0.13307244396E+03  0.38559916205E+03  0.44367616050E+03  0.60269687614E+03  0.00000000000E+00 0.  1.
<mgrwt>
<rscale>  0 0.30892568E+04</rscale>
<asrwt>0</asrwt>
<pdfrwt beam="1">  1        1 0.55335940E+00 0.30892568E+04</pdfrwt>
<pdfrwt beam="2">  1       -1 0.10205024E+00 0.30892568E+04</pdfrwt>
<totfact> 0.16057274E-01</totfact>
</mgrwt>
</event>
<event>
12    1  0.1960998E-007  0.1228586E+04  0.7818608E-02  0.9088197E-01
         -1   -1    0    0    0  501 -0.00000000000E+00  0.00000000000E+00  0.35103347101E+03  0.35103347101E+03  0.00000000000E+00 0.  1.
          1   -1    0    0  501    0  0.00000000000E+00 -0.00000000000E+00 -0.10749848027E+04  0.10749848027E+04  0.00000000000E+00 0. -1.
         23    2    1    2    0    0 -0.10225321399E+03 -0.76730193239E+02 -0.44908509995E+03  0.47557289496E+03  0.90271308295E+02 0.  0.
        254    2    1    2    0    0  0.10225321399E+03  0.76730193239E+02 -0.27486623172E+03  0.95044537873E+03  0.90080615578E+03 0.  0.
        -24    2    4    4    0    0 -0.35523184438E+03  0.21012825436E+03 -0.73683081876E+02  0.42673213460E+03  0.79546034482E+02 0.  0.
         24    2    4    4    0    0  0.45748505837E+03 -0.13339806112E+03 -0.20118314985E+03  0.52371324413E+03  0.81934613920E+02 0.  0.
         11    1    3    3    0    0 -0.98323536965E+02 -0.37903244256E+02 -0.22935598319E+03  0.25240511261E+03  0.00000000000E+00 0.  1.
        -11    1    3    3    0    0 -0.39296770259E+01 -0.38826948982E+02 -0.21972911676E+03  0.22316778235E+03  0.00000000000E+00 0. -1.
          4    1    6    6  502    0  0.25346240289E+03 -0.83212811655E+02 -0.69228214697E+02  0.27560861274E+03  0.00000000000E+00 0. -1.
          3    1    5    5  503    0 -0.35491153198E+03  0.21080519307E+03 -0.79910269374E+02  0.42046007671E+03  0.00000000000E+00 0. -1.
         -4    1    5    5    0  503 -0.32031240106E+00 -0.67693870245E+00  0.62271874981E+01  0.62720578901E+01  0.00000000000E+00 0.  1.
         -3    1    6    6    0  502  0.20402265547E+03 -0.50185249470E+02 -0.13195493515E+03  0.24810463140E+03  0.00000000000E+00 0.  1.
<mgrwt>
<rscale>  0 0.12285856E+04</rscale>
<asrwt>0</asrwt>
<pdfrwt beam="1">  1        1 0.16538228E+00 0.12285856E+04</pdfrwt>
<pdfrwt beam="2">  1       -1 0.54005149E-01 0.12285856E+04</pdfrwt>
<totfact> 0.45272946E+01</totfact>
</mgrwt>
</event>
<event>
12    1  0.1960998E-007  0.1768201E+04  0.7818608E-02  0.8723395E-01
          1   -1    0    0  501    0  0.00000000000E+00  0.00000000000E+00  0.10474936213E+04  0.10474936213E+04  0.00000000000E+00 0. -1.
         -1   -1    0    0    0  501 -0.00000000000E+00 -0.00000000000E+00 -0.74619382368E+03  0.74619382368E+03  0.00000000000E+00 0.  1.
         23    2    1    2    0    0 -0.55419434349E+02 -0.55390683901E+03  0.45569581856E+03  0.72517206890E+03  0.91278422729E+02 0.  0.
        254    2    1    2    0    0  0.55419434349E+02  0.55390683901E+03 -0.15439602092E+03  0.10685153761E+04  0.89888980287E+03 0.  0.
        -24    2    4    4    0    0  0.46298520009E+03  0.37750589157E+03 -0.12904748820E+03  0.61633772823E+03  0.79705378425E+02 0.  0.
         24    2    4    4    0    0 -0.40756576574E+03  0.17640094744E+03 -0.25348532713E+02  0.45217764788E+03  0.81209171125E+02 0.  0.
         11    1    3    3    0    0 -0.61937615574E+02 -0.37350526442E+03  0.35216659105E+03  0.51707229536E+03  0.00000000000E+00 0. -1.
        -11    1    3    3    0    0  0.65181812244E+01 -0.18040157459E+03  0.10352922751E+03  0.20809977354E+03  0.00000000000E+00 0.  1.
          2    1    6    6  502    0 -0.33975523033E+03  0.16523584246E+03 -0.45564070024E+02  0.38054248731E+03  0.00000000000E+00 0. -1.
          1    1    5    5  503    0  0.19357334592E+03  0.12263557584E+03 -0.77526737642E+02  0.24191014812E+03  0.00000000000E+00 0. -1.
         -2    1    5    5    0  503  0.26941185417E+03  0.25487031573E+03 -0.51520750561E+02  0.37442758011E+03  0.00000000000E+00 0.  1.
         -1    1    6    6    0  502 -0.67810535409E+02  0.11165104976E+02  0.20215537311E+02  0.71635160573E+02  0.00000000000E+00 0.  1.
<mgrwt>
<rscale>  0 0.17682005E+04</rscale>
<asrwt>0</asrwt>
<pdfrwt beam="1">  1        1 0.16115287E+00 0.17682005E+04</pdfrwt>
<pdfrwt beam="2">  1       -1 0.11479905E+00 0.17682005E+04</pdfrwt>
<totfact> 0.90673487E+00</totfact>
</mgrwt>
</event>
<event>
12    1  0.1960998E-007  0.1580925E+04  0.7818608E-02  0.8832353E-01
         -1   -1    0    0    0  501 -0.00000000000E+00  0.00000000000E+00  0.65468722604E+03  0.65468722604E+03  0.00000000000E+00 0.  1.
          1   -1    0    0  501    0  0.00000000000E+00 -0.00000000000E+00 -0.95439569451E+03  0.95439569451E+03  0.00000000000E+00 0. -1.
         23    2    1    2    0    0 -0.44483050810E+03 -0.13680280310E+03 -0.35845114160E+03  0.59480040361E+03  0.93333334606E+02 0.  0.
        254    2    1    2    0    0  0.44483050810E+03  0.13680280310E+03  0.58742673127E+02  0.10142825169E+04  0.89929368653E+03 0.  0.
        -24    2    4    4    0    0  0.67977089527E+03 -0.69756409172E+02  0.68787975024E+02  0.69137216846E+03  0.79430870217E+02 0.  0.
         24    2    4    4    0    0 -0.23494038717E+03  0.20655921227E+03 -0.10045301897E+02  0.32291034847E+03  0.79413420525E+02 0.  0.
         11    1    3    3    0    0 -0.18648195446E+03 -0.10573047667E+03 -0.15656149953E+03  0.26545424497E+03  0.00000000000E+00 0.  1.
        -11    1    3    3    0    0 -0.25834855364E+03 -0.31072326429E+02 -0.20188964207E+03  0.32934615864E+03  0.00000000000E+00 0. -1.
          4    1    6    6  502    0 -0.40079311861E+02  0.65099317501E+01  0.13150044026E+02  0.42680840064E+02  0.00000000000E+00 0. -1.
          1    1    5    5  503    0  0.50781673944E+02  0.40646887757E+00 -0.15017494905E+02  0.52957235376E+02  0.00000000000E+00 0. -1.
         -2    1    5    5    0  503  0.62898922133E+03 -0.70162878049E+02  0.83805469929E+02  0.63841493309E+03  0.00000000000E+00 0.  1.
         -3    1    6    6    0  502 -0.19486107531E+03  0.20004928052E+03 -0.23195345923E+02  0.28022950841E+03  0.00000000000E+00 0.  1.
<mgrwt>
<rscale>  0 0.15809246E+04</rscale>
<asrwt>0</asrwt>
<pdfrwt beam="1">  1        1 0.14683011E+00 0.15809246E+04</pdfrwt>
<pdfrwt beam="2">  1       -1 0.10072111E+00 0.15809246E+04</pdfrwt>
<totfact> 0.14817077E+01</totfact>
</mgrwt>
</event>
<event>
12    1  0.1960998E-007  0.5658302E+04  0.7818608E-02  0.7734275E-01
          2   -1    0    0  501    0  0.00000000000E+00  0.00000000000E+00  0.30095586259E+04  0.30095586259E+04  0.00000000000E+00 0. -1.
         -2   -1    0    0    0  501 -0.00000000000E+00 -0.00000000000E+00 -0.26595577513E+04  0.26595577513E+04  0.00000000000E+00 0.  1.
         23    2    1    2    0    0  0.90368907831E+03  0.20389401079E+04  0.17942416387E+04  0.28638317806E+04  0.91097175743E+02 0.  0.
        254    2    1    2    0    0 -0.90368907831E+03 -0.20389401079E+04 -0.14442407641E+04  0.28052845966E+04  0.89992197955E+03 0.  0.
        -24    2    4    4    0    0 -0.68770661064E+03 -0.76591637357E+03 -0.29246253842E+03  0.10731177583E+04  0.80492939256E+02 0.  0.
         24    2    4    4    0    0 -0.21598246767E+03 -0.12730237343E+04 -0.11517782257E+04  0.17321668383E+04  0.81061827217E+02 0.  0.
         11    1    3    3    0    0  0.41876236793E+03  0.89308694836E+03  0.74211399249E+03  0.12343821920E+04  0.00000000000E+00 0.  1.
        -11    1    3    3    0    0  0.48492671039E+03  0.11458531595E+04  0.10521276462E+04  0.16294495885E+04  0.00000000000E+00 0. -1.
          2    1    6    6  502    0 -0.13549085541E+03 -0.74245544205E+03 -0.72477176952E+03  0.10463708584E+04  0.00000000000E+00 0. -1.
          3    1    5    5  503    0 -0.13532416171E+03 -0.20171477492E+03 -0.67370975090E+02  0.25207206796E+03  0.00000000000E+00 0. -1.
         -4    1    5    5    0  503 -0.55238244893E+03 -0.56420159866E+03 -0.22509156333E+03  0.82104569039E+03  0.00000000000E+00 0.  1.
         -1    1    6    6    0  502 -0.80491612261E+02 -0.53056829228E+03 -0.42700645619E+03  0.68579597989E+03  0.00000000000E+00 0.  1.
<mgrwt>
<rscale>  0 0.56583019E+04</rscale>
<asrwt>0</asrwt>
<pdfrwt beam="1">  1        2 0.46300902E+00 0.56583019E+04</pdfrwt>
<pdfrwt beam="2">  1       -2 0.40916273E+00 0.56583019E+04</pdfrwt>
<totfact> 0.76786711E-03</totfact>
</mgrwt>
</event>
<event>
12    1  0.1960998E-007  0.1481369E+04  0.7818608E-02  0.8896938E-01
          2   -1    0    0  501    0  0.00000000000E+00  0.00000000000E+00  0.14011834482E+04  0.14011834482E+04  0.00000000000E+00 0.  1.
         -2   -1    0    0    0  501 -0.00000000000E+00 -0.00000000000E+00 -0.39153559119E+03  0.39153559119E+03  0.00000000000E+00 0. -1.
         23    2    1    2    0    0 -0.10640374214E+03  0.25798392410E+03 -0.12311692996E+03  0.31919861470E+03  0.94087808711E+02 0.  0.
        254    2    1    2    0    0  0.10640374214E+03 -0.25798392410E+03  0.11327647870E+04  0.14735204247E+04  0.90012716766E+03 0.  0.
        -24    2    4    4    0    0 -0.14085510296E+03 -0.38377720934E+03  0.14055197182E+03  0.43997931346E+03  0.81864724075E+02 0.  0.
         24    2    4    4    0    0  0.24725884510E+03  0.12579328524E+03  0.99221281520E+03  0.10335411113E+04  0.82219650676E+02 0.  0.
         11    1    3    3    0    0 -0.45353274266E+02  0.21192832300E+03 -0.10391062322E+03  0.24034964363E+03  0.00000000000E+00 0. -1.
        -11    1    3    3    0    0 -0.61050467871E+02  0.46055601106E+02 -0.19206306740E+02  0.78848971072E+02  0.00000000000E+00 0.  1.
          2    1    6    6  502    0  0.13693149685E+03  0.11309778496E+03  0.57517829721E+03  0.60197293741E+03  0.00000000000E+00 0. -1.
          1    1    5    5  503    0 -0.47671920959E+02 -0.24545609373E+03  0.89078755865E+02  0.26543611424E+03  0.00000000000E+00 0. -1.
         -2    1    5    5    0  503 -0.93183182000E+02 -0.13832111561E+03  0.51473215955E+02  0.17454319922E+03  0.00000000000E+00 0.  1.
         -1    1    6    6    0  502  0.11032734824E+03  0.12695500286E+02  0.41703451799E+03  0.43156817386E+03  0.00000000000E+00 0.  1.
<mgrwt>
<rscale>  0 0.14813685E+04</rscale>
<asrwt>0</asrwt>
<pdfrwt beam="1">  1        2 0.21556668E+00 0.14813685E+04</pdfrwt>
<pdfrwt beam="2">  1       -2 0.60236246E-01 0.14813685E+04</pdfrwt>
<totfact> 0.35900973E+01</totfact>
</mgrwt>
</event>
<event>
12    1  0.1960998E-007  0.1829437E+04  0.7818608E-02  0.8690800E-01
          1   -1    0    0  501    0  0.00000000000E+00  0.00000000000E+00  0.10419788823E+04  0.10419788823E+04  0.00000000000E+00 0. -1.
         -1   -1    0    0    0  501 -0.00000000000E+00 -0.00000000000E+00 -0.80300121257E+03  0.80300121257E+03  0.00000000000E+00 0.  1.
         23    2    1    2    0    0 -0.28376644392E+03 -0.37742184903E+03  0.59855907691E+03  0.76676407705E+03  0.81752886700E+02 0.  0.
        254    2    1    2    0    0  0.28376644392E+03  0.37742184903E+03 -0.35958140714E+03  0.10782160179E+04  0.90015573431E+03 0.  0.
        -24    2    4    4    0    0  0.22626641269E+03 -0.25097150904E+03 -0.25831159755E+03  0.43398654780E+03  0.86233719520E+02 0.  0.
         24    2    4    4    0    0  0.57500031230E+02  0.62839335807E+03 -0.10126980959E+03  0.64422947007E+03  0.81188482634E+02 0.  0.
         13    1    3    3    0    0 -0.26449421241E+03 -0.33098119571E+03  0.49440410551E+03  0.65110764076E+03  0.00000000000E+00 0.  1.
        -13    1    3    3    0    0 -0.19272231511E+02 -0.46440653321E+02  0.10415497139E+03  0.11565643628E+03  0.00000000000E+00 0. -1.
          4    1    6    6  502    0  0.27408464945E+02  0.53758853237E+03 -0.10527496299E+03  0.54848470528E+03  0.00000000000E+00 0. -1.
          3    1    5    5  503    0  0.16540617540E+03 -0.22877849364E+03 -0.22581400786E+03  0.36151178149E+03  0.00000000000E+00 0. -1.
         -4    1    5    5    0  503  0.60860237291E+02 -0.22193015395E+02 -0.32497589690E+02  0.72474766306E+02  0.00000000000E+00 0.  1.
         -3    1    6    6    0  502  0.30091566286E+02  0.90804825695E+02  0.40051533991E+01  0.95744764790E+02  0.00000000000E+00 0.  1.
<mgrwt>
<rscale>  0 0.18294374E+04</rscale>
<asrwt>0</asrwt>
<pdfrwt beam="1">  1        1 0.16030444E+00 0.18294374E+04</pdfrwt>
<pdfrwt beam="2">  1       -1 0.12353865E+00 0.18294374E+04</pdfrwt>
<totfact> 0.76145901E+00</totfact>
</mgrwt>
</event>
<event>
12    1  0.1960998E-007  0.1966823E+04  0.7818608E-02  0.8622291E-01
          2   -1    0    0  501    0  0.00000000000E+00  0.00000000000E+00  0.14558571793E+04  0.14558571793E+04  0.00000000000E+00 0. -1.
         -2   -1    0    0    0  501 -0.00000000000E+00 -0.00000000000E+00 -0.66428066133E+03  0.66428066133E+03  0.00000000000E+00 0.  1.
         23    2    1    2    0    0 -0.51287605486E+03  0.53456040745E+03  0.60728499194E+02  0.75035353972E+03  0.10269278016E+03 0.  0.
        254    2    1    2    0    0  0.51287605486E+03 -0.53456040745E+03  0.73084801873E+03  0.13697843009E+04  0.89071517757E+03 0.  0.
        -24    2    4    4    0    0  0.60246810930E+03 -0.29164799894E+03  0.84146905717E+03  0.10779936082E+04  0.77289502037E+02 0.  0.
         24    2    4    4    0    0 -0.89592054441E+02 -0.24291240851E+03 -0.11062103844E+03  0.29179069267E+03  0.76626495114E+02 0.  0.
         11    1    3    3    0    0 -0.45326391705E+03  0.49398459416E+03  0.27588295063E+02  0.67099185672E+03  0.00000000000E+00 0.  1.
        -11    1    3    3    0    0 -0.59612137812E+02  0.40575813296E+02  0.33140204131E+02  0.79361683003E+02  0.00000000000E+00 0. -1.
          4    1    6    6  502    0 -0.89280156362E+02 -0.24212267202E+03 -0.11842935683E+03  0.28393634355E+03  0.00000000000E+00 0. -1.
          3    1    5    5  503    0  0.48154986295E+03 -0.26522661890E+03  0.69833044714E+03  0.88876365997E+03  0.00000000000E+00 0. -1.
         -4    1    5    5    0  503  0.12091824636E+03 -0.26421380038E+02  0.14313861004E+03  0.18922994823E+03  0.00000000000E+00 0.  1.
         -3    1    6    6    0  502 -0.31189807938E+00 -0.78973648949E+00  0.78083183852E+01  0.78543491226E+01  0.00000000000E+00 0.  1.
<mgrwt>
<rscale>  0 0.19668226E+04</rscale>
<asrwt>0</asrwt>
<pdfrwt beam="1">  1        2 0.22397803E+00 0.19668226E+04</pdfrwt>
<pdfrwt beam="2">  1       -2 0.10219703E+00 0.19668226E+04</pdfrwt>
<totfact> 0.98258093E+00</totfact>
</mgrwt>
</event>
<event>
12    1  0.1960998E-007  0.1408188E+04  0.7818608E-02  0.8947913E-01
          1   -1    0    0  501    0  0.00000000000E+00  0.00000000000E+00  0.65093209199E+03  0.65093209199E+03  0.00000000000E+00 0. -1.
         -1   -1    0    0    0  501 -0.00000000000E+00 -0.00000000000E+00 -0.76159811053E+03  0.76159811053E+03  0.00000000000E+00 0.  1.
         23    2    1    2    0    0 -0.17829047274E+03 -0.36617803226E+03 -0.32232753470E+02  0.42150943127E+03  0.10371791683E+03 0.  0.
        254    2    1    2    0    0  0.17829047274E+03  0.36617803226E+03 -0.78433265071E+02  0.99102077125E+03  0.90005363618E+03 0.  0.
        -24    2    4    4    0    0  0.53245285715E+02 -0.26620509595E+03  0.12614759120E+03  0.30961308958E+03  0.79036933865E+02 0.  0.
         24    2    4    4    0    0  0.12504518702E+03  0.63238312821E+03 -0.20458085627E+03  0.68140768166E+03  0.83176813095E+02 0.  0.
         11    1    3    3    0    0 -0.16320101722E+03 -0.34694905427E+03 -0.30315088362E+01  0.38342849180E+03  0.00000000000E+00 0. -1.
        -11    1    3    3    0    0 -0.15089455518E+02 -0.19228977991E+02 -0.29201244634E+02  0.38080939466E+02  0.00000000000E+00 0.  1.
          4    1    6    6  502    0  0.10787894256E+03  0.60953685763E+03 -0.20706222010E+03  0.65272337943E+03  0.00000000000E+00 0. -1.
          1    1    5    5  503    0  0.60776184786E+02 -0.26755519289E+03  0.12610121491E+03  0.30196198814E+03  0.00000000000E+00 0. -1.
         -2    1    5    5    0  503 -0.75308990712E+01  0.13500969397E+01  0.46376295313E-01  0.76511014454E+01  0.00000000000E+00 0.  1.
         -3    1    6    6    0  502  0.17166244466E+02  0.22846270573E+02  0.24813638254E+01  0.28684302233E+02  0.00000000000E+00 0.  1.
<mgrwt>
<rscale>  0 0.14081884E+04</rscale>
<asrwt>0</asrwt>
<pdfrwt beam="1">  1        1 0.10014340E+00 0.14081884E+04</pdfrwt>
<pdfrwt beam="2">  1       -1 0.11716894E+00 0.14081884E+04</pdfrwt>
<totfact> 0.19439742E+01</totfact>
</mgrwt>
</event>
<event>
12    1  0.1960998E-007  0.2120880E+04  0.7818608E-02  0.8552101E-01
          1   -1    0    0  501    0  0.00000000000E+00  0.00000000000E+00  0.19536977778E+04  0.19536977778E+04  0.00000000000E+00 0. -1.
         -1   -1    0    0    0  501 -0.00000000000E+00 -0.00000000000E+00 -0.57559194104E+03  0.57559194104E+03  0.00000000000E+00 0.  1.
         23    2    1    2    0    0  0.77280807367E+03 -0.25517409370E+03  0.21332854350E+03  0.84627119857E+03  0.91212593555E+02 0.  0.
        254    2    1    2    0    0 -0.77280807367E+03  0.25517409370E+03  0.11647772933E+04  0.16830185203E+04  0.90194182733E+03 0.  0.
        -24    2    4    4    0    0 -0.35061104444E+03  0.55995080236E+03  0.81035079398E+03  0.10485352651E+04  0.79276649868E+02 0.  0.
         24    2    4    4    0    0 -0.42219702924E+03 -0.30477670866E+03  0.35442649927E+03  0.63448325522E+03  0.76234402517E+02 0.  0.
         13    1    3    3    0    0  0.63633542015E+03 -0.20558401501E+03  0.13846745368E+03  0.68290613549E+03  0.00000000000E+00 0.  1.
        -13    1    3    3    0    0  0.13647265352E+03 -0.49590078696E+02  0.74861089824E+02  0.16336506308E+03  0.00000000000E+00 0. -1.
          4    1    6    6  502    0 -0.53092856649E+02 -0.14472745478E+02  0.53473517530E+02  0.76731537622E+02  0.00000000000E+00 0. -1.
          3    1    5    5  503    0 -0.18365998849E+03  0.36562228267E+03  0.49228994495E+03  0.64012501503E+03  0.00000000000E+00 0. -1.
         -4    1    5    5    0  503 -0.16695105595E+03  0.19432851969E+03  0.31806084903E+03  0.40841025003E+03  0.00000000000E+00 0.  1.
         -3    1    6    6    0  502 -0.36910417259E+03 -0.29030396318E+03  0.30095298174E+03  0.55775171759E+03  0.00000000000E+00 0.  1.
<mgrwt>
<rscale>  0 0.21208797E+04</rscale>
<asrwt>0</asrwt>
<pdfrwt beam="1">  1        1 0.30056889E+00 0.21208797E+04</pdfrwt>
<pdfrwt beam="2">  1       -1 0.88552607E-01 0.21208797E+04</pdfrwt>
<totfact> 0.36813164E+00</totfact>
</mgrwt>
</event>
<event>
12    1  0.1960998E-007  0.2380433E+04  0.7818608E-02  0.8446866E-01
          2   -1    0    0  501    0  0.00000000000E+00  0.00000000000E+00  0.27596989667E+04  0.27596989667E+04  0.00000000000E+00 0.  1.
         -2   -1    0    0    0  501 -0.00000000000E+00 -0.00000000000E+00 -0.51332224126E+03  0.51332224126E+03  0.00000000000E+00 0. -1.
         23    2    1    2    0    0 -0.76607327121E+03 -0.48677536104E+03  0.15987093381E+04  0.18406808953E+04  0.91739313453E+02 0.  0.
        254    2    1    2    0    0  0.76607327121E+03  0.48677536104E+03  0.64766738734E+03  0.14323403126E+04  0.89905907350E+03 0.  0.
        -24    2    4    4    0    0 -0.87922159161E+02  0.22272298473E+03 -0.91650976075E+02  0.26902343106E+03  0.81473130839E+02 0.  0.
         24    2    4    4    0    0  0.85399543037E+03  0.26405237631E+03  0.73931836341E+03  0.11633168816E+04  0.87650852682E+02 0.  0.
         13    1    3    3    0    0 -0.56858024875E+03 -0.34760382145E+03  0.12483648803E+04  0.14151066356E+04  0.00000000000E+00 0.  1.
        -13    1    3    3    0    0 -0.19749302245E+03 -0.13917153959E+03  0.35034445781E+03  0.42557425964E+03  0.00000000000E+00 0. -1.
          4    1    6    6  502    0  0.69855956237E+03  0.19394208106E+03  0.63246796034E+03  0.96208872452E+03  0.00000000000E+00 0. -1.
          1    1    5    5  503    0 -0.92615465709E+02  0.22453163337E+03 -0.97131425113E+02  0.26158477138E+03  0.00000000000E+00 0. -1.
         -2    1    5    5    0  503  0.46933065488E+01 -0.18086486426E+01  0.54804490377E+01  0.74386596863E+01  0.00000000000E+00 0.  1.
         -3    1    6    6    0  502  0.15543586799E+03  0.70110295251E+02  0.10685040307E+03  0.20122815706E+03  0.00000000000E+00 0.  1.
<mgrwt>
<rscale>  0 0.23804326E+04</rscale>
<asrwt>0</asrwt>
<pdfrwt beam="1">  1        2 0.42456906E+00 0.23804326E+04</pdfrwt>
<pdfrwt beam="2">  1       -2 0.78972654E-01 0.23804326E+04</pdfrwt>
<totfact> 0.31349833E+00</totfact>
</mgrwt>
</event>
<event>
12    1  0.1960998E-007  0.1634592E+04  0.7818608E-02  0.8799574E-01
         -2   -1    0    0    0  501 -0.00000000000E+00  0.00000000000E+00  0.38311813926E+03  0.38311813926E+03  0.00000000000E+00 0.  1.
          2   -1    0    0  501    0  0.00000000000E+00 -0.00000000000E+00 -0.17435159229E+04  0.17435159229E+04  0.00000000000E+00 0. -1.
         23    2    1    2    0    0  0.14205905711E+02 -0.53988825159E+03 -0.26146703200E+03  0.60686297884E+03  0.90755354179E+02 0.  0.
        254    2    1    2    0    0 -0.14205905711E+02  0.53988825159E+03 -0.10989307517E+04  0.15197710834E+04  0.90020787426E+03 0.  0.
        -24    2    4    4    0    0 -0.92838948458E+02 -0.23238693653E+03 -0.34416668388E+03  0.43404352101E+03  0.85558828975E+02 0.  0.
         24    2    4    4    0    0  0.78633042748E+02  0.77227518811E+03 -0.75476406780E+03  0.10857275624E+04  0.80891408872E+02 0.  0.
         13    1    3    3    0    0  0.19441256342E+01 -0.21928695571E+03 -0.15605677923E+03  0.26915472672E+03  0.00000000000E+00 0. -1.
        -13    1    3    3    0    0  0.12261780077E+02 -0.32060129588E+03 -0.10541025277E+03  0.33770825213E+03  0.00000000000E+00 0.  1.
          2    1    6    6  502    0  0.14332486718E+02  0.51234303587E+03 -0.48525563867E+03  0.70581431088E+03  0.00000000000E+00 0. -1.
          3    1    5    5  503    0 -0.92585239835E+02 -0.23881028896E+03 -0.32480861203E+03  0.41364600227E+03  0.00000000000E+00 0. -1.
         -4    1    5    5    0  503 -0.25370862304E+00  0.64233524363E+01 -0.19358071854E+02  0.20397518733E+02  0.00000000000E+00 0.  1.
         -1    1    6    6    0  502  0.64300556029E+02  0.25993215224E+03 -0.26950842913E+03  0.37991325148E+03  0.00000000000E+00 0.  1.
<mgrwt>
<rscale>  0 0.16345918E+04</rscale>
<asrwt>0</asrwt>
<pdfrwt beam="1">  1        2 0.26823322E+00 0.16345918E+04</pdfrwt>
<pdfrwt beam="2">  1       -2 0.58941251E-01 0.16345918E+04</pdfrwt>
<totfact> 0.23853311E+01</totfact>
</mgrwt>
</event>
<event>
12    1  0.1960998E-007  0.1756220E+04  0.7818608E-02  0.8729934E-01
         -1   -1    0    0    0  501 -0.00000000000E+00  0.00000000000E+00  0.29024281227E+03  0.29024281227E+03  0.00000000000E+00 0.  1.
          1   -1    0    0  501    0  0.00000000000E+00 -0.00000000000E+00 -0.26566629548E+04  0.26566629548E+04  0.00000000000E+00 0. -1.
         23    2    1    2    0    0  0.20086714915E+03  0.61138126771E+03 -0.90998263547E+03  0.11182105110E+04  0.90507922313E+02 0.  0.
        254    2    1    2    0    0 -0.20086714915E+03 -0.61138126771E+03 -0.14564375071E+04  0.18286952561E+04  0.89932277933E+03 0.  0.
        -24    2    4    4    0    0 -0.10265809872E+02  0.14126145290E+03  0.14821533323E+02  0.16317723486E+03  0.79667729972E+02 0.  0.
         24    2    4    4    0    0 -0.19060133928E+03 -0.75264272061E+03 -0.14712590404E+04  0.16655180212E+04  0.80914643653E+02 0.  0.
         11    1    3    3    0    0  0.10618978938E+03  0.45202351702E+03 -0.66201414655E+03  0.80861873682E+03  0.00000000000E+00 0.  1.
        -11    1    3    3    0    0  0.94677359773E+02  0.15935775069E+03 -0.24796848892E+03  0.30959177421E+03  0.00000000000E+00 0. -1.
          4    1    6    6  502    0 -0.50303823524E+02 -0.34698697836E+03 -0.62504632688E+03  0.71666822767E+03  0.00000000000E+00 0. -1.
          1    1    5    5  503    0 -0.15074410020E+02  0.71182275940E+02 -0.31233685294E+02  0.79181420437E+02  0.00000000000E+00 0. -1.
         -2    1    5    5    0  503  0.48086001479E+01  0.70079176965E+02  0.46055218617E+02  0.83995814427E+02  0.00000000000E+00 0.  1.
         -3    1    6    6    0  502 -0.14029751575E+03 -0.40565574225E+03 -0.84621271354E+03  0.94884979355E+03  0.00000000000E+00 0.  1.
<mgrwt>
<rscale>  0 0.17562202E+04</rscale>
<asrwt>0</asrwt>
<pdfrwt beam="1">  1        1 0.40871737E+00 0.17562202E+04</pdfrwt>
<pdfrwt beam="2">  1       -1 0.44652741E-01 0.17562202E+04</pdfrwt>
<totfact> 0.49642262E+00</totfact>
</mgrwt>
</event>
<event>
12    1  0.1960998E-007  0.2134614E+04  0.7818608E-02  0.8546147E-01
          1   -1    0    0  501    0  0.00000000000E+00  0.00000000000E+00  0.71000616392E+03  0.71000616392E+03  0.00000000000E+00 0. -1.
         -1   -1    0    0    0  501 -0.00000000000E+00 -0.00000000000E+00 -0.16044142393E+04  0.16044142393E+04  0.00000000000E+00 0.  1.
         23    2    1    2    0    0 -0.15004750506E+03  0.84973537939E+03 -0.52880966704E+03  0.10152681812E+04  0.81026828522E+02 0.  0.
        254    2    1    2    0    0  0.15004750506E+03 -0.84973537939E+03 -0.36559840839E+03  0.12991522221E+04  0.89976098561E+03 0.  0.
        -24    2    4    4    0    0 -0.11771537373E+03 -0.86834313789E+03 -0.57279835390E+02  0.88184471407E+03  0.80575466859E+02 0.  0.
         24    2    4    4    0    0  0.26776287879E+03  0.18607758497E+02 -0.30831857300E+03  0.41730750804E+03  0.83916660286E+02 0.  0.
         11    1    3    3    0    0 -0.43899604027E+02  0.13198174546E+03 -0.11144529697E+03  0.17823134008E+03  0.00000000000E+00 0. -1.
        -11    1    3    3    0    0 -0.10614790103E+03  0.71775363393E+03 -0.41736437007E+03  0.83703684108E+03  0.00000000000E+00 0.  1.
          2    1    6    6  502    0  0.12513003805E+03  0.72756309382E+01 -0.82773724319E+02  0.15020636027E+03  0.00000000000E+00 0. -1.
          3    1    5    5  503    0 -0.11458588219E+03 -0.57673774524E+03 -0.49986491116E+02  0.59013134172E+03  0.00000000000E+00 0. -1.
         -4    1    5    5    0  503 -0.31294915416E+01 -0.29160539265E+03 -0.72933442742E+01  0.29171337235E+03  0.00000000000E+00 0.  1.
         -1    1    6    6    0  502  0.14263284074E+03  0.11332127559E+02 -0.22554484868E+03  0.26710114777E+03  0.00000000000E+00 0.  1.
<mgrwt>
<rscale>  0 0.21346138E+04</rscale>
<asrwt>0</asrwt>
<pdfrwt beam="1">  1        1 0.10923172E+00 0.21346138E+04</pdfrwt>
<pdfrwt beam="2">  1       -1 0.24683296E+00 0.21346138E+04</pdfrwt>
<totfact> 0.17874814E+00</totfact>
</mgrwt>
</event>
<event>
12    1  0.2750786E-007  0.2679525E+04  0.7818608E-02  0.8341679E-01
         -2   -1    0    0    0  501 -0.00000000000E+00  0.00000000000E+00  0.69816868693E+03  0.69816868693E+03  0.00000000000E+00 0.  1.
          2   -1    0    0  501    0  0.00000000000E+00 -0.00000000000E+00 -0.25709603303E+04  0.25709603303E+04  0.00000000000E+00 0. -1.
         23    2    1    2    0    0 -0.10668734411E+04  0.37913418835E+03 -0.39630973947E+03  0.12023801147E+04  0.81822115286E+02 0.  0.
        254    2    1    2    0    0  0.10668734411E+04 -0.37913418835E+03 -0.14764819039E+04  0.20667489025E+04  0.89971692308E+03 0.  0.
        -24    2    4    4    0    0  0.98562234144E+03  0.42737914812E+02 -0.11729393544E+04  0.15347323822E+04  0.79616748470E+02 0.  0.
         24    2    4    4    0    0  0.81251099613E+02 -0.42187210317E+03 -0.30354254952E+03  0.53201652035E+03  0.79534180937E+02 0.  0.
         11    1    3    3    0    0 -0.66030722667E+03  0.25895047626E+03 -0.28208885346E+03  0.76330538056E+03  0.00000000000E+00 0. -1.
        -11    1    3    3    0    0 -0.40656621439E+03  0.12018371210E+03 -0.11422088601E+03  0.43907473411E+03  0.00000000000E+00 0.  1.
          2    1    6    6  502    0  0.87760668050E+01 -0.24781754070E+03 -0.16096284246E+03  0.29563421568E+03  0.00000000000E+00 0. -1.
          1    1    5    5  503    0  0.82238926922E+03  0.15571778409E+02 -0.94109415611E+03  0.12498899156E+04  0.00000000000E+00 0. -1.
         -2    1    5    5    0  503  0.16323307222E+03  0.27166136403E+02 -0.23184519824E+03  0.28484246661E+03  0.00000000000E+00 0.  1.
         -1    1    6    6    0  502  0.72475032808E+02 -0.17405456246E+03 -0.14257970706E+03  0.23638230467E+03  0.00000000000E+00 0.  1.
<mgrwt>
<rscale>  0 0.26795253E+04</rscale>
<asrwt>0</asrwt>
<pdfrwt beam="1">  1        2 0.39553237E+00 0.26795253E+04</pdfrwt>
<pdfrwt beam="2">  1       -2 0.10741057E+00 0.26795253E+04</pdfrwt>
<totfact> 0.19351960E+00</totfact>
</mgrwt>
</event>
<event>
12    1  0.1960998E-007  0.3338707E+04  0.7818608E-02  0.8153116E-01
         -2   -1    0    0    0  501 -0.00000000000E+00  0.00000000000E+00  0.17138614091E+04  0.17138614091E+04  0.00000000000E+00 0.  1.
          2   -1    0    0  501    0  0.00000000000E+00 -0.00000000000E+00 -0.16260011311E+04  0.16260011311E+04  0.00000000000E+00 0. -1.
         23    2    1    2    0    0 -0.29930010926E+03 -0.44443044793E+03 -0.14110258079E+04  0.15120819118E+04  0.91098293199E+02 0.  0.
        254    2    1    2    0    0  0.29930010926E+03  0.44443044793E+03  0.14988860859E+04  0.18277806285E+04  0.89834489421E+03 0.  0.
        -24    2    4    4    0    0  0.17643056110E+03  0.62767964914E+03  0.14442889875E+04  0.15869084105E+04  0.84841847683E+02 0.  0.
         24    2    4    4    0    0  0.12286954816E+03 -0.18324920121E+03  0.54597098402E+02  0.24087221799E+03  0.79758301349E+02 0.  0.
         11    1    3    3    0    0 -0.23011879640E+03 -0.26381231771E+03 -0.91467320327E+03  0.97937667331E+03  0.00000000000E+00 0. -1.
        -11    1    3    3    0    0 -0.69181312865E+02 -0.18061813022E+03 -0.49635260458E+03  0.53270523846E+03  0.00000000000E+00 0.  1.
          4    1    6    6  502    0  0.60563356259E+01 -0.76893654936E+01 -0.15778318847E+02  0.18567737841E+02  0.00000000000E+00 0. -1.
          3    1    5    5  503    0  0.17328176467E+03  0.51507709289E+03  0.11550343727E+04  0.12764933935E+04  0.00000000000E+00 0. -1.
         -4    1    5    5    0  503  0.31487964328E+01  0.11260255625E+03  0.28925461475E+03  0.31041501695E+03  0.00000000000E+00 0.  1.
         -3    1    6    6    0  502  0.11681321254E+03 -0.17555983572E+03  0.70375417249E+02  0.22230448015E+03  0.00000000000E+00 0.  1.
<mgrwt>
<rscale>  0 0.33387067E+04</rscale>
<asrwt>0</asrwt>
<pdfrwt beam="1">  1        2 0.25015402E+00 0.33387067E+04</pdfrwt>
<pdfrwt beam="2">  1       -2 0.26367099E+00 0.33387067E+04</pdfrwt>
<totfact> 0.47573102E-01</totfact>
</mgrwt>
</event>
<event>
12    1  0.1960998E-007  0.5711486E+04  0.7818608E-02  0.7727241E-01
          2   -1    0    0  501    0  0.00000000000E+00  0.00000000000E+00  0.38051113862E+04  0.38051113862E+04  0.00000000000E+00 0. -1.
         -2   -1    0    0    0  501 -0.00000000000E+00 -0.00000000000E+00 -0.21432401897E+04  0.21432401897E+04  0.00000000000E+00 0.  1.
         23    2    1    2    0    0 -0.25664371850E+04  0.96115092779E+02  0.19278236225E+04  0.32126552126E+04  0.93870443125E+02 0.  0.
        254    2    1    2    0    0  0.25664371850E+04 -0.96115092779E+02 -0.26595242601E+03  0.27356963633E+04  0.90413824358E+03 0.  0.
        -24    2    4    4    0    0  0.23447223383E+04 -0.22191482508E+03 -0.46505871357E+03  0.24020070851E+04  0.79933699518E+02 0.  0.
         24    2    4    4    0    0  0.22171484664E+03  0.12579973230E+03  0.19910628755E+03  0.33368927815E+03  0.81988869622E+02 0.  0.
         11    1    3    3    0    0 -0.85269123172E+03  0.39764644446E+01  0.68298506156E+03  0.10925048024E+04  0.00000000000E+00 0. -1.
        -11    1    3    3    0    0 -0.17137459533E+04  0.92138628334E+02  0.12448385610E+04  0.21201504103E+04  0.00000000000E+00 0.  1.
          2    1    6    6  502    0  0.17995972404E+03  0.12589020408E+03  0.19120572515E+03  0.29119319204E+03  0.00000000000E+00 0. -1.
          3    1    5    5  503    0  0.15131891781E+04 -0.17834114530E+03 -0.28501409467E+03  0.15500903481E+04  0.00000000000E+00 0. -1.
         -4    1    5    5    0  503  0.83153316020E+03 -0.43573679771E+02 -0.18004461890E+03  0.85191673705E+03  0.00000000000E+00 0.  1.
         -1    1    6    6    0  502  0.41755122594E+02 -0.90471785776E-01  0.79005624045E+01  0.42496086106E+02  0.00000000000E+00 0.  1.
<mgrwt>
<rscale>  0 0.57114858E+04</rscale>
<asrwt>0</asrwt>
<pdfrwt beam="1">  1        2 0.58540175E+00 0.57114858E+04</pdfrwt>
<pdfrwt beam="2">  1       -2 0.32972926E+00 0.57114858E+04</pdfrwt>
<totfact> 0.69548172E-03</totfact>
</mgrwt>
</event>
<event>
12    1  0.1960998E-007  0.2312961E+04  0.7818608E-02  0.8472828E-01
         -1   -1    0    0    0  501 -0.00000000000E+00  0.00000000000E+00  0.82397113152E+03  0.82397113152E+03  0.00000000000E+00 0.  1.
          1   -1    0    0  501    0  0.00000000000E+00 -0.00000000000E+00 -0.16231725548E+04  0.16231725548E+04  0.00000000000E+00 0. -1.
         23    2    1    2    0    0  0.39907039540E+02  0.28521675131E+03  0.64970519561E+03  0.71796710928E+03  0.10207233599E+03 0.  0.
        254    2    1    2    0    0 -0.39907039540E+02 -0.28521675131E+03 -0.14489066189E+04  0.17291765770E+04  0.89876586343E+03 0.  0.
        -24    2    4    4    0    0 -0.81756079685E+02 -0.60251044367E+03 -0.97460548609E+03  0.11514101618E+04  0.78655044358E+02 0.  0.
         24    2    4    4    0    0  0.41849040145E+02  0.31729369236E+03 -0.47430113278E+03  0.57776641516E+03  0.80161315899E+02 0.  0.
         11    1    3    3    0    0  0.46389201387E+02  0.13187578168E+03  0.21026879439E+03  0.25249979345E+03  0.00000000000E+00 0. -1.
        -11    1    3    3    0    0 -0.64821618470E+01  0.15334096964E+03  0.43943640122E+03  0.46546731583E+03  0.00000000000E+00 0.  1.
          4    1    6    6  502    0 -0.70108900359E+01  0.50734151230E+02 -0.12917195325E+03  0.13895502937E+03  0.00000000000E+00 0. -1.
          1    1    5    5  503    0 -0.69894885711E+02 -0.47981196053E+03 -0.71342437323E+03  0.86260022538E+03  0.00000000000E+00 0. -1.
         -2    1    5    5    0  503 -0.11861193974E+02 -0.12269848314E+03 -0.26118111286E+03  0.28880993647E+03  0.00000000000E+00 0.  1.
         -3    1    6    6    0  502  0.48859930181E+02  0.26655954113E+03 -0.34512917953E+03  0.43881138580E+03  0.00000000000E+00 0.  1.
<mgrwt>
<rscale>  0 0.23129612E+04</rscale>
<asrwt>0</asrwt>
<pdfrwt beam="1">  1        1 0.24971886E+00 0.23129612E+04</pdfrwt>
<pdfrwt beam="2">  1       -1 0.12676479E+00 0.23129612E+04</pdfrwt>
<totfact> 0.26244031E+00</totfact>
</mgrwt>
</event>
<event>
12    1  0.1960998E-007  0.1531521E+04  0.7818608E-02  0.8863758E-01
         -1   -1    0    0    0  501 -0.00000000000E+00  0.00000000000E+00  0.38887310951E+03  0.38887310951E+03  0.00000000000E+00 0.  1.
          1   -1    0    0  501    0  0.00000000000E+00 -0.00000000000E+00 -0.15079187447E+04  0.15079187447E+04  0.00000000000E+00 0. -1.
         23    2    1    2    0    0 -0.30542605247E+03 -0.35583028534E+02  0.11239944951E+03  0.34018696400E+03  0.92424611319E+02 0.  0.
        254    2    1    2    0    0  0.30542605247E+03  0.35583028534E+02 -0.12314450847E+04  0.15566048902E+04  0.90111628669E+03 0.  0.
        -24    2    4    4    0    0  0.19110996264E+03  0.56880857596E+02  0.85969066870E+02  0.23158011043E+03  0.80499796956E+02 0.  0.
         24    2    4    4    0    0  0.11431608983E+03 -0.21297829061E+02 -0.13174141516E+04  0.13250247798E+04  0.81171758129E+02 0.  0.
         11    1    3    3    0    0 -0.80511645993E+02  0.77903338553E+01 -0.82317954456E+01  0.81305454296E+02  0.00000000000E+00 0. -1.
        -11    1    3    3    0    0 -0.22491440648E+03 -0.43373362390E+02  0.12063124496E+03  0.25888150970E+03  0.00000000000E+00 0.  1.
          4    1    6    6  502    0  0.70283889069E+02  0.26086768110E+02 -0.82058604822E+03  0.82400352369E+03  0.00000000000E+00 0. -1.
          1    1    5    5  503    0  0.15872275244E+03  0.17637368873E+02  0.84499297840E+02  0.18067683929E+03  0.00000000000E+00 0. -1.
         -2    1    5    5    0  503  0.32387210200E+02  0.39243488722E+02  0.14697690302E+01  0.50903271139E+02  0.00000000000E+00 0.  1.
         -3    1    6    6    0  502  0.44032200765E+02 -0.47384597171E+02 -0.49682810339E+03  0.50102125611E+03  0.00000000000E+00 0.  1.
<mgrwt>
<rscale>  0 0.15315209E+04</rscale>
<asrwt>0</asrwt>
<pdfrwt beam="1">  1        1 0.23198751E+00 0.15315209E+04</pdfrwt>
<pdfrwt beam="2">  1       -1 0.59826631E-01 0.15315209E+04</pdfrwt>
<totfact> 0.17654307E+01</totfact>
</mgrwt>
</event>
<event>
12    1  0.1960998E-007  0.1739368E+04  0.7818608E-02  0.8739224E-01
         -2   -1    0    0    0  501 -0.00000000000E+00  0.00000000000E+00  0.81146503341E+03  0.81146503341E+03  0.00000000000E+00 0.  1.
          2   -1    0    0  501    0  0.00000000000E+00 -0.00000000000E+00 -0.93208027806E+03  0.93208027806E+03  0.00000000000E+00 0. -1.
         23    2    1    2    0    0  0.41396680041E+03  0.33346627971E+03  0.30051618979E+03  0.61699552624E+03  0.88347198739E+02 0.  0.
        254    2    1    2    0    0 -0.41396680041E+03 -0.33346627971E+03 -0.42113143444E+03  0.11265497852E+04  0.89955236757E+03 0.  0.
        -24    2    4    4    0    0 -0.27691760263E+02  0.28917942202E+03 -0.64710648420E+02  0.30786806402E+03  0.78763602731E+02 0.  0.
         24    2    4    4    0    0 -0.38627504014E+03 -0.62264570173E+03 -0.35642078602E+03  0.81868172122E+03  0.79422335824E+02 0.  0.
         11    1    3    3    0    0  0.35240689195E+03  0.30583420709E+03  0.23303419950E+03  0.52156506580E+03  0.00000000000E+00 0. -1.
        -11    1    3    3    0    0  0.61559908453E+02  0.27632072621E+02  0.67481990290E+02  0.95430460439E+02  0.00000000000E+00 0.  1.
          2    1    6    6  502    0 -0.36700510611E+03 -0.57425175541E+03 -0.35019725356E+03  0.76622186271E+03  0.00000000000E+00 0. -1.
          1    1    5    5  503    0 -0.39629093751E+01  0.15887016076E+03  0.33452341770E+01  0.15895478357E+03  0.00000000000E+00 0. -1.
         -2    1    5    5    0  503 -0.23728850888E+02  0.13030926126E+03 -0.68055882597E+02  0.14891328044E+03  0.00000000000E+00 0.  1.
         -1    1    6    6    0  502 -0.19269934038E+02 -0.48393946315E+02 -0.62235324652E+01  0.52459858503E+02  0.00000000000E+00 0.  1.
<mgrwt>
<rscale>  0 0.17393683E+04</rscale>
<asrwt>0</asrwt>
<pdfrwt beam="1">  1        2 0.14339697E+00 0.17393683E+04</pdfrwt>
<pdfrwt beam="2">  1       -2 0.12484077E+00 0.17393683E+04</pdfrwt>
<totfact> 0.12731701E+01</totfact>
</mgrwt>
</event>
<event>
12    1  0.1960998E-007  0.1875409E+04  0.7818608E-02  0.8667195E-01
          1   -1    0    0  501    0  0.00000000000E+00  0.00000000000E+00  0.10490634582E+04  0.10490634582E+04  0.00000000000E+00 0. -1.
         -1   -1    0    0    0  501 -0.00000000000E+00 -0.00000000000E+00 -0.83816646572E+03  0.83816646572E+03  0.00000000000E+00 0.  1.
         23    2    1    2    0    0 -0.27286873330E+03 -0.66240052823E+03  0.48152131624E+02  0.72389156227E+03  0.92024783216E+02 0.  0.
        254    2    1    2    0    0  0.27286873330E+03  0.66240052823E+03  0.16274486086E+03  0.11633383617E+04  0.90201909545E+03 0.  0.
        -24    2    4    4    0    0  0.31506937101E+03 -0.47176715806E+02  0.28873819587E+03  0.43738468972E+03  0.80257522936E+02 0.  0.
         24    2    4    4    0    0 -0.42200637704E+02  0.70957724404E+03 -0.12599333501E+03  0.72595367194E+03  0.76509177584E+02 0.  0.
         11    1    3    3    0    0 -0.24775992327E+03 -0.64524983745E+03  0.52510297550E+02  0.69317361725E+03  0.00000000000E+00 0. -1.
        -11    1    3    3    0    0 -0.25108810037E+02 -0.17150690785E+02 -0.43581659257E+01  0.30717945018E+02  0.00000000000E+00 0.  1.
          2    1    6    6  502    0 -0.30327011959E+02  0.11407119493E+03 -0.37135297682E+02  0.12373760747E+03  0.00000000000E+00 0. -1.
          1    1    5    5  503    0  0.19166309831E+03  0.93108004955E+01  0.15281252834E+03  0.24530206497E+03  0.00000000000E+00 0. -1.
         -2    1    5    5    0  503  0.12340627270E+03 -0.56487516302E+02  0.13592566754E+03  0.19208262476E+03  0.00000000000E+00 0.  1.
         -1    1    6    6    0  502 -0.11873625746E+02  0.59550604911E+03 -0.88858037328E+02  0.60221606447E+03  0.00000000000E+00 0.  1.
<mgrwt>
<rscale>  0 0.18754091E+04</rscale>
<asrwt>0</asrwt>
<pdfrwt beam="1">  1        1 0.16139438E+00 0.18754091E+04</pdfrwt>
<pdfrwt beam="2">  1       -1 0.12894869E+00 0.18754091E+04</pdfrwt>
<totfact> 0.67287307E+00</totfact>
</mgrwt>
</event>
<event>
12    1  0.1960998E-007  0.2432138E+04  0.7818608E-02  0.8427569E-01
         -1   -1    0    0    0  501 -0.00000000000E+00  0.00000000000E+00  0.14283238830E+04  0.14283238830E+04  0.00000000000E+00 0.  1.
          1   -1    0    0  501    0  0.00000000000E+00 -0.00000000000E+00 -0.10353562570E+04  0.10353562570E+04  0.00000000000E+00 0. -1.
         23    2    1    2    0    0 -0.61260951503E+03 -0.27074960760E+03 -0.64506798224E+03  0.93489968139E+03  0.96586461923E+02 0.  0.
        254    2    1    2    0    0  0.61260951503E+03  0.27074960760E+03  0.10380356083E+04  0.15287804586E+04  0.90058647475E+03 0.  0.
        -24    2    4    4    0    0 -0.10117640172E+03 -0.13358118060E+03 -0.21188557835E+02  0.18673339312E+03  0.79622917863E+02 0.  0.
         24    2    4    4    0    0  0.71378591675E+03  0.40433078820E+03  0.10592241661E+04  0.13420470655E+04  0.78490576033E+02 0.  0.
         11    1    3    3    0    0 -0.55265671584E+03 -0.21954130904E+03 -0.53788668064E+03  0.80184157609E+03  0.00000000000E+00 0. -1.
        -11    1    3    3    0    0 -0.59952799188E+02 -0.51208298561E+02 -0.10718130161E+03  0.13305810530E+03  0.00000000000E+00 0.  1.
          2    1    6    6  502    0  0.10444333679E+03  0.53452760106E+02  0.19899598553E+03  0.23100868040E+03  0.00000000000E+00 0. -1.
          3    1    5    5  503    0 -0.12423600709E+02 -0.56579839134E+02  0.21398494967E+02  0.61753701410E+02  0.00000000000E+00 0. -1.
         -4    1    5    5    0  503 -0.88752801006E+02 -0.77001341470E+02 -0.42587052802E+02  0.12497969171E+03  0.00000000000E+00 0.  1.
         -1    1    6    6    0  502  0.60934257996E+03  0.35087802810E+03  0.86022818061E+03  0.11110383851E+04  0.00000000000E+00 0.  1.
<mgrwt>
<rscale>  0 0.24321382E+04</rscale>
<asrwt>0</asrwt>
<pdfrwt beam="1">  1        1 0.15928558E+00 0.24321382E+04</pdfrwt>
<pdfrwt beam="2">  1       -1 0.21974214E+00 0.24321382E+04</pdfrwt>
<totfact> 0.14023288E+00</totfact>
</mgrwt>
</event>
<event>
12    1  0.1960998E-007  0.2771178E+04  0.7818608E-02  0.8312273E-01
         -2   -1    0    0    0  501 -0.00000000000E+00  0.00000000000E+00  0.15819711163E+04  0.15819711163E+04  0.00000000000E+00 0. -1.
          2   -1    0    0  501    0  0.00000000000E+00 -0.00000000000E+00 -0.12135854449E+04  0.12135854449E+04  0.00000000000E+00 0.  1.
         23    2    1    2    0    0  0.39560855269E+03 -0.10313779711E+04 -0.39807863227E+03  0.11777816477E+04  0.91958502201E+02 0.  0.
        254    2    1    2    0    0 -0.39560855269E+03  0.10313779711E+04  0.76646430361E+03  0.16177749135E+04  0.89971189601E+03 0.  0.
        -24    2    4    4    0    0 -0.15607168275E+03  0.98821917081E+03  0.88454608206E+03  0.13377356373E+04  0.78608932328E+02 0.  0.
         24    2    4    4    0    0 -0.23953686994E+03  0.43158800263E+02 -0.11808177845E+03  0.28003927621E+03  0.72374689756E+02 0.  0.
         11    1    3    3    0    0  0.30447662840E+03 -0.76362960526E+03 -0.33666848366E+03  0.88835908233E+03  0.00000000000E+00 0.  1.
        -11    1    3    3    0    0  0.91131924289E+02 -0.26774836581E+03 -0.61410148614E+02  0.28942256542E+03  0.00000000000E+00 0. -1.
          2    1    6    6  502    0 -0.17609162134E+03 -0.14701051752E+01 -0.76096923709E+02  0.19183628988E+03  0.00000000000E+00 0. -1.
          1    1    5    5  503    0 -0.16124238771E+03  0.97146703379E+03  0.85906183432E+03  0.13068031759E+04  0.00000000000E+00 0. -1.
         -2    1    5    5    0  503  0.51707049610E+01  0.16752137019E+02  0.25484247737E+02  0.30932461383E+02  0.00000000000E+00 0.  1.
         -1    1    6    6    0  502 -0.63445248599E+02  0.44628905438E+02 -0.41984854740E+02  0.88202986332E+02  0.00000000000E+00 0.  1.
<mgrwt>
<rscale>  0 0.27711782E+04</rscale>
<asrwt>0</asrwt>
<pdfrwt beam="1">  1        2 0.18670545E+00 0.27711782E+04</pdfrwt>
<pdfrwt beam="2">  1       -2 0.24338017E+00 0.27711782E+04</pdfrwt>
<totfact> 0.11446177E+00</totfact>
</mgrwt>
</event>
<event>
12    1  0.1960998E-007  0.1341314E+04  0.7818608E-02  0.8997429E-01
         -1   -1    0    0    0  501 -0.00000000000E+00  0.00000000000E+00  0.16897244590E+04  0.16897244590E+04  0.00000000000E+00 0.  1.
          1   -1    0    0  501    0  0.00000000000E+00 -0.00000000000E+00 -0.26618594477E+03  0.26618594477E+03  0.00000000000E+00 0. -1.
         23    2    1    2    0    0 -0.69862130967E+02 -0.32409442062E+03  0.60765352426E+03  0.69845574218E+03  0.93164947348E+02 0.  0.
        254    2    1    2    0    0  0.69862130967E+02  0.32409442062E+03  0.81588499001E+03  0.12574546616E+04  0.89755556839E+03 0.  0.
        -24    2    4    4    0    0 -0.15743454669E+03 -0.13737337119E+03 -0.66353104951E+02  0.23309902749E+03  0.79217059272E+02 0.  0.
         24    2    4    4    0    0  0.22729667765E+03  0.46146779181E+03  0.88223809496E+03  0.10243556342E+04  0.79649899367E+02 0.  0.
         13    1    3    3    0    0 -0.44901039143E+02 -0.26256884207E+03  0.54749686773E+03  0.60886067398E+03  0.00000000000E+00 0.  1.
        -13    1    3    3    0    0 -0.24961091824E+02 -0.61525578548E+02  0.60156656531E+02  0.89595068200E+02  0.00000000000E+00 0. -1.
          2    1    6    6  502    0  0.23209088184E+03  0.44136957520E+03  0.85904852492E+03  0.99329635433E+03  0.00000000000E+00 0. -1.
          1    1    5    5  503    0 -0.16192696023E+03 -0.13609184584E+03 -0.74038686412E+02  0.22410501565E+03  0.00000000000E+00 0. -1.
         -2    1    5    5    0  503  0.44924135413E+01 -0.12815253428E+01  0.76855814610E+01  0.89940118426E+01  0.00000000000E+00 0.  1.
         -1    1    6    6    0  502 -0.47942041917E+01  0.20098216609E+02  0.23189570040E+02  0.31059279826E+02  0.00000000000E+00 0.  1.
<mgrwt>
<rscale>  0 0.13413141E+04</rscale>
<asrwt>0</asrwt>
<pdfrwt beam="1">  1        1 0.40951685E-01 0.13413141E+04</pdfrwt>
<pdfrwt beam="2">  1       -1 0.25995760E+00 0.13413141E+04</pdfrwt>
<totfact> 0.60373142E+00</totfact>
</mgrwt>
</event>
<event>
12    1  0.1960998E-007  0.1886997E+04  0.7818608E-02  0.8661356E-01
          1   -1    0    0  501    0  0.00000000000E+00  0.00000000000E+00  0.16289728554E+04  0.16289728554E+04  0.00000000000E+00 0. -1.
         -1   -1    0    0    0  501 -0.00000000000E+00 -0.00000000000E+00 -0.54647265338E+03  0.54647265338E+03  0.00000000000E+00 0.  1.
         23    2    1    2    0    0 -0.33437156745E+03  0.63316906913E+03  0.58736422918E+03  0.93053692696E+03  0.90525242241E+02 0.  0.
        254    2    1    2    0    0  0.33437156745E+03 -0.63316906913E+03  0.49513597281E+03  0.12449085818E+04  0.88990467481E+03 0.  0.
        -24    2    4    4    0    0  0.59594830243E+03 -0.53212300373E+03  0.51317264496E+03  0.95280885125E+03  0.78671934076E+02 0.  0.
         24    2    4    4    0    0 -0.26157673498E+03 -0.10104606540E+03 -0.18036672153E+02  0.29209973055E+03  0.79776158262E+02 0.  0.
         11    1    3    3    0    0 -0.13975291142E+03  0.29653031830E+03  0.21413525523E+03  0.39155461107E+03  0.00000000000E+00 0.  1.
        -11    1    3    3    0    0 -0.19461865603E+03  0.33663875084E+03  0.37322897395E+03  0.53898231588E+03  0.00000000000E+00 0. -1.
          2    1    6    6  502    0 -0.17428996992E+03 -0.10328851628E+03 -0.26729228519E+02  0.20435254554E+03  0.00000000000E+00 0. -1.
          1    1    5    5  503    0  0.62313116979E+02 -0.26855027158E+02  0.40070120448E+02  0.78801850131E+02  0.00000000000E+00 0. -1.
         -2    1    5    5    0  503  0.53363518546E+03 -0.50526797657E+03  0.47310252451E+03  0.87400700112E+03  0.00000000000E+00 0.  1.
         -1    1    6    6    0  502 -0.87286765059E+02  0.22424508834E+01  0.86925563660E+01  0.87747185006E+02  0.00000000000E+00 0.  1.
<mgrwt>
<rscale>  0 0.18869967E+04</rscale>
<asrwt>0</asrwt>
<pdfrwt beam="1">  1        1 0.25061121E+00 0.18869967E+04</pdfrwt>
<pdfrwt beam="2">  1       -1 0.84072717E-01 0.18869967E+04</pdfrwt>
<totfact> 0.69993224E+00</totfact>
</mgrwt>
</event>
<event>
12    1  0.1960998E-007  0.1386845E+04  0.7818608E-02  0.8963396E-01
          3   -1    0    0  501    0  0.00000000000E+00  0.00000000000E+00  0.65517432356E+03  0.65517432356E+03  0.00000000000E+00 0. -1.
         -3   -1    0    0    0  501 -0.00000000000E+00 -0.00000000000E+00 -0.73390315729E+03  0.73390315729E+03  0.00000000000E+00 0.  1.
         23    2    1    2    0    0 -0.11655719601E+03 -0.19528662603E+03 -0.34455611679E+03  0.42317333587E+03  0.92920978941E+02 0.  0.
        254    2    1    2    0    0  0.11655719601E+03  0.19528662603E+03  0.26582728305E+03  0.96590414499E+03  0.90032451185E+03 0.  0.
        -24    2    4    4    0    0 -0.15144016447E+03 -0.23688983611E+03  0.33733158983E+03  0.44615932416E+03  0.78832881251E+02 0.  0.
         24    2    4    4    0    0  0.26799736047E+03  0.43217646214E+03 -0.71504306784E+02  0.51974482083E+03  0.80141956807E+02 0.  0.
         11    1    3    3    0    0 -0.34967071698E+02 -0.38598451514E+02 -0.24404705161E+02  0.57516312438E+02  0.00000000000E+00 0. -1.
        -11    1    3    3    0    0 -0.81590124308E+02 -0.15668817452E+03 -0.32015141163E+03  0.36565702343E+03  0.00000000000E+00 0.  1.
          4    1    6    6  502    0  0.23174122563E+03  0.37124461043E+03 -0.89271889736E+02  0.44664978084E+03  0.00000000000E+00 0. -1.
          1    1    5    5  503    0 -0.15894698801E+03 -0.22470202643E+03  0.33106482890E+03  0.43053346747E+03  0.00000000000E+00 0. -1.
         -2    1    5    5    0  503  0.75068235461E+01 -0.12187809679E+02  0.62667609385E+01  0.15625856687E+02  0.00000000000E+00 0.  1.
         -3    1    6    6    0  502  0.36256134841E+02  0.60931851714E+02  0.17767582952E+02  0.73095039988E+02  0.00000000000E+00 0.  1.
<mgrwt>
<rscale>  0 0.13868446E+04</rscale>
<asrwt>0</asrwt>
<pdfrwt beam="1">  1        3 0.10079605E+00 0.13868446E+04</pdfrwt>
<pdfrwt beam="2">  1       -3 0.11290818E+00 0.13868446E+04</pdfrwt>
<totfact> 0.14361262E+00</totfact>
</mgrwt>
</event>
<event>
12    1  0.1960998E-007  0.2577078E+04  0.7818608E-02  0.8376029E-01
          2   -1    0    0  501    0  0.00000000000E+00  0.00000000000E+00  0.15554663399E+04  0.15554663399E+04  0.00000000000E+00 0. -1.
         -2   -1    0    0    0  501 -0.00000000000E+00 -0.00000000000E+00 -0.10674183102E+04  0.10674183102E+04  0.00000000000E+00 0.  1.
         23    2    1    2    0    0  0.10804711454E+04  0.16227382942E+03  0.50855110076E+03  0.12073224316E+04  0.72474409566E+02 0.  0.
        254    2    1    2    0    0 -0.10804711454E+04 -0.16227382942E+03 -0.20503071046E+02  0.14155622185E+04  0.89980293779E+03 0.  0.
        -24    2    4    4    0    0 -0.12118598630E+04 -0.19724245931E+03  0.72412739118E+02  0.12325321628E+04  0.79893755375E+02 0.  0.
         24    2    4    4    0    0  0.13138871757E+03  0.34968629896E+02 -0.92915810164E+02  0.18303005579E+03  0.79880243891E+02 0.  0.
         13    1    3    3    0    0  0.95496905936E+03  0.13575986188E+03  0.47248832808E+03  0.10740772154E+04  0.00000000000E+00 0. -1.
        -13    1    3    3    0    0  0.12550208606E+03  0.26513967541E+02  0.36062772675E+02  0.13324521625E+03  0.00000000000E+00 0.  1.
          4    1    6    6  502    0  0.47987587201E+02 -0.25040958098E+02 -0.41057218404E+02  0.67937863455E+02  0.00000000000E+00 0. -1.
          1    1    5    5  503    0 -0.29330023944E+03 -0.13267111976E+02  0.17807811695E+02  0.29413970299E+03  0.00000000000E+00 0. -1.
         -2    1    5    5    0  503 -0.91855962355E+03 -0.18397534734E+03  0.54604927423E+02  0.93839245977E+03  0.00000000000E+00 0.  1.
         -3    1    6    6    0  502  0.83401130368E+02  0.60009587994E+02 -0.51858591760E+02  0.11509219234E+03  0.00000000000E+00 0.  1.
<mgrwt>
<rscale>  0 0.25770784E+04</rscale>
<asrwt>0</asrwt>
<pdfrwt beam="1">  1        2 0.23930251E+00 0.25770784E+04</pdfrwt>
<pdfrwt beam="2">  1       -2 0.16421820E+00 0.25770784E+04</pdfrwt>
<totfact> 0.24559338E+00</totfact>
</mgrwt>
</event>
<event>
12    1  0.1960998E-007  0.1640410E+04  0.7818608E-02  0.8796100E-01
          1   -1    0    0  501    0  0.00000000000E+00  0.00000000000E+00  0.52396553884E+03  0.52396553884E+03  0.00000000000E+00 0. -1.
         -1   -1    0    0    0  501 -0.00000000000E+00 -0.00000000000E+00 -0.12839327115E+04  0.12839327115E+04  0.00000000000E+00 0.  1.
         23    2    1    2    0    0 -0.13908545570E+03 -0.45566253359E+03 -0.60820001080E+03  0.77774506017E+03  0.89481936546E+02 0.  0.
        254    2    1    2    0    0  0.13908545570E+03  0.45566253359E+03 -0.15176716182E+03  0.10301531901E+04  0.90067153570E+03 0.  0.
        -24    2    4    4    0    0 -0.16862368784E+03  0.36803291024E+03  0.27132513996E+03  0.49365525841E+03  0.78714747443E+02 0.  0.
         24    2    4    4    0    0  0.30770914353E+03  0.87629623357E+02 -0.42309230178E+03  0.53649793172E+03  0.80368320952E+02 0.  0.
         11    1    3    3    0    0 -0.13003446873E+03 -0.33333072655E+03 -0.49541692720E+03  0.61111068398E+03  0.00000000000E+00 0.  1.
        -11    1    3    3    0    0 -0.90509869660E+01 -0.12233180705E+03 -0.11278308360E+03  0.16663437619E+03  0.00000000000E+00 0. -1.
          2    1    6    6  502    0  0.16589073524E+03  0.34344740219E+02 -0.28477803250E+03  0.33135754860E+03  0.00000000000E+00 0. -1.
          1    1    5    5  503    0 -0.83459521477E+01  0.79000437124E+02  0.74959646782E+02  0.10922304074E+03  0.00000000000E+00 0. -1.
         -2    1    5    5    0  503 -0.16027773569E+03  0.28903247311E+03  0.19636549318E+03  0.38443221767E+03  0.00000000000E+00 0.  1.
         -1    1    6    6    0  502  0.14181840829E+03  0.53284883138E+02 -0.13831426928E+03  0.20514038312E+03  0.00000000000E+00 0.  1.
<mgrwt>
<rscale>  0 0.16404103E+04</rscale>
<asrwt>0</asrwt>
<pdfrwt beam="1">  1        1 0.80610083E-01 0.16404103E+04</pdfrwt>
<pdfrwt beam="2">  1       -1 0.19752811E+00 0.16404103E+04</pdfrwt>
<totfact> 0.62163539E+00</totfact>
</mgrwt>
</event>
<event>
12    1  0.1960998E-007  0.1491494E+04  0.7818608E-02  0.8890129E-01
          1   -1    0    0  501    0  0.00000000000E+00  0.00000000000E+00  0.24120274727E+04  0.24120274727E+04  0.00000000000E+00 0. -1.
         -1   -1    0    0    0  501 -0.00000000000E+00 -0.00000000000E+00 -0.23056881107E+03  0.23056881107E+03  0.00000000000E+00 0.  1.
         23    2    1    2    0    0 -0.43554336704E+02  0.42061178175E+03  0.10642771822E+04  0.11488097209E+04  0.90920861164E+02 0.  0.
        254    2    1    2    0    0  0.43554336704E+02 -0.42061178175E+03  0.11171814794E+04  0.14937865629E+04  0.89693510710E+03 0.  0.
        -24    2    4    4    0    0  0.37588385192E+03  0.61834547955E+02  0.33670202990E+03  0.51451115966E+03  0.79001867259E+02 0.  0.
         24    2    4    4    0    0 -0.33232951521E+03 -0.48244632970E+03  0.78047944949E+03  0.97927540320E+03  0.81454137579E+02 0.  0.
         11    1    3    3    0    0 -0.14296560614E+02  0.12278308111E+02  0.21713283198E+02  0.28750915858E+02  0.00000000000E+00 0.  1.
        -11    1    3    3    0    0 -0.29257776090E+02  0.40833347364E+03  0.10425638990E+04  0.11200588050E+04  0.00000000000E+00 0. -1.
          2    1    6    6  502    0 -0.26941867669E+03 -0.43824865547E+03  0.68607901614E+03  0.85752709798E+03  0.00000000000E+00 0. -1.
          1    1    5    5  503    0  0.12901063031E+03  0.22522945666E+02  0.68211867037E+02  0.14766138500E+03  0.00000000000E+00 0. -1.
         -2    1    5    5    0  503  0.24687322160E+03  0.39311602289E+02  0.26849016286E+03  0.36684977467E+03  0.00000000000E+00 0.  1.
         -1    1    6    6    0  502 -0.62910838519E+02 -0.44197674231E+02  0.94400433344E+02  0.12174830523E+03  0.00000000000E+00 0.  1.
<mgrwt>
<rscale>  0 0.14914936E+04</rscale>
<asrwt>0</asrwt>
<pdfrwt beam="1">  1        1 0.37108113E+00 0.14914936E+04</pdfrwt>
<pdfrwt beam="2">  1       -1 0.35472126E-01 0.14914936E+04</pdfrwt>
<totfact> 0.11454968E+01</totfact>
</mgrwt>
</event>
<event>
12    1  0.1960998E-007  0.1481851E+04  0.7818608E-02  0.8896612E-01
          2   -1    0    0  501    0  0.00000000000E+00  0.00000000000E+00  0.20264615150E+04  0.20264615150E+04  0.00000000000E+00 0. -1.
         -2   -1    0    0    0  501 -0.00000000000E+00 -0.00000000000E+00 -0.27090122235E+03  0.27090122235E+03  0.00000000000E+00 0.  1.
         23    2    1    2    0    0 -0.42715767246E+03  0.14688642307E+03  0.43718858190E+03  0.63512593292E+03  0.90618961058E+02 0.  0.
        254    2    1    2    0    0  0.42715767246E+03 -0.14688642307E+03  0.13183717108E+04  0.16622368044E+04  0.90602865730E+03 0.  0.
        -24    2    4    4    0    0  0.54861215546E+02  0.23431876543E+03  0.17404003096E+02  0.25432566790E+03  0.80396574717E+02 0.  0.
         24    2    4    4    0    0  0.37229645691E+03 -0.38120518850E+03  0.13009677077E+04  0.14079111365E+04  0.75991739079E+02 0.  0.
         13    1    3    3    0    0 -0.26117794198E+03  0.12478572173E+03  0.23673035006E+03  0.37393402140E+03  0.00000000000E+00 0.  1.
        -13    1    3    3    0    0 -0.16597973048E+03  0.22100701340E+02  0.20045823184E+03  0.26119191152E+03  0.00000000000E+00 0. -1.
          2    1    6    6  502    0  0.32912334098E+03 -0.36382710466E+03  0.12113897551E+04  0.13069649859E+04  0.00000000000E+00 0. -1.
          1    1    5    5  503    0  0.27278535762E+02  0.22125168294E+03  0.11391999310E+02  0.22321783837E+03  0.00000000000E+00 0. -1.
         -2    1    5    5    0  503  0.27582679784E+02  0.13067082491E+02  0.60120037855E+01  0.31107829535E+02  0.00000000000E+00 0.  1.
         -1    1    6    6    0  502  0.43173115929E+02 -0.17378083833E+02  0.89577952615E+02  0.10094615065E+03  0.00000000000E+00 0.  1.
<mgrwt>
<rscale>  0 0.14818514E+04</rscale>
<asrwt>0</asrwt>
<pdfrwt beam="1">  1        2 0.31176330E+00 0.14818514E+04</pdfrwt>
<pdfrwt beam="2">  1       -2 0.41677112E-01 0.14818514E+04</pdfrwt>
<totfact> 0.34102523E+01</totfact>
</mgrwt>
</event>
<event>
12    1  0.1960998E-007  0.1809810E+04  0.7818608E-02  0.8701100E-01
         -2   -1    0    0    0  501 -0.00000000000E+00  0.00000000000E+00  0.51250890441E+03  0.51250890441E+03  0.00000000000E+00 0.  1.
          2   -1    0    0  501    0  0.00000000000E+00 -0.00000000000E+00 -0.15977349607E+04  0.15977349607E+04  0.00000000000E+00 0. -1.
         23    2    1    2    0    0  0.91661211910E+01 -0.52152128824E+03  0.11265548875E+03  0.54143272618E+03  0.91595119800E+02 0.  0.
        254    2    1    2    0    0 -0.91661211910E+01  0.52152128824E+03 -0.11978815450E+04  0.15688111389E+04  0.86843521451E+03 0.  0.
        -24    2    4    4    0    0  0.29893188801E+03  0.59578199017E+03 -0.91598165944E+03  0.11356135452E+04  0.79241846256E+02 0.  0.
         24    2    4    4    0    0 -0.30809800920E+03 -0.74260701929E+02 -0.28189988557E+03  0.43319759367E+03  0.88054384095E+02 0.  0.
         11    1    3    3    0    0 -0.95148414926E+01 -0.44592500316E+03  0.66624977506E+02  0.45097508609E+03  0.00000000000E+00 0. -1.
        -11    1    3    3    0    0  0.18680962684E+02 -0.75596285081E+02  0.46030511244E+02  0.90457640088E+02  0.00000000000E+00 0.  1.
          2    1    6    6  502    0 -0.22427759806E+03 -0.90026682694E+02 -0.22835619292E+03  0.33249330134E+03  0.00000000000E+00 0. -1.
          3    1    5    5  503    0  0.16610924723E+03  0.38098871241E+03 -0.51591040267E+03  0.66250149025E+03  0.00000000000E+00 0. -1.
         -4    1    5    5    0  503  0.13282264077E+03  0.21479327776E+03 -0.40007125676E+03  0.47311205497E+03  0.00000000000E+00 0.  1.
         -1    1    6    6    0  502 -0.83820411134E+02  0.15765980764E+02 -0.53543692645E+02  0.10070429233E+03  0.00000000000E+00 0.  1.
<mgrwt>
<rscale>  0 0.18098104E+04</rscale>
<asrwt>0</asrwt>
<pdfrwt beam="1">  1        2 0.24580538E+00 0.18098104E+04</pdfrwt>
<pdfrwt beam="2">  1       -2 0.78847523E-01 0.18098104E+04</pdfrwt>
<totfact> 0.15066941E+01</totfact>
</mgrwt>
</event>
<event>
12    1  0.1960998E-007  0.1268230E+04  0.7818608E-02  0.9055146E-01
          2   -1    0    0  501    0  0.00000000000E+00  0.00000000000E+00  0.29072748168E+04  0.29072748168E+04  0.00000000000E+00 0. -1.
         -2   -1    0    0    0  501 -0.00000000000E+00 -0.00000000000E+00 -0.13830884457E+03  0.13830884457E+03  0.00000000000E+00 0.  1.
         23    2    1    2    0    0  0.13657134033E+03 -0.16658196905E+03  0.18567750019E+03  0.30393349702E+03  0.10722944147E+03 0.  0.
        254    2    1    2    0    0 -0.13657134033E+03  0.16658196905E+03  0.25832884721E+04  0.27416501644E+04  0.89267295835E+03 0.  0.
        -24    2    4    4    0    0 -0.98795307218E+02 -0.26136197605E+02 -0.19009153990E+02  0.13073722077E+03  0.79292240518E+02 0.  0.
         24    2    4    4    0    0 -0.37776033115E+02  0.19271816666E+03  0.26022976261E+04  0.26109129436E+04  0.79662689729E+02 0.  0.
         13    1    3    3    0    0  0.64842098482E+02 -0.10597034122E+03  0.39821356097E+02  0.13046053562E+03  0.00000000000E+00 0.  1.
        -13    1    3    3    0    0  0.71729241851E+02 -0.60611627837E+02  0.14585614409E+03  0.17347296140E+03  0.00000000000E+00 0. -1.
          4    1    6    6  502    0 -0.59352837105E+02  0.16925453361E+03  0.21279758384E+04  0.21355212537E+04  0.00000000000E+00 0. -1.
          3    1    5    5  503    0 -0.70086200876E+02 -0.11728020001E+02 -0.49378136672E+02  0.86532204338E+02  0.00000000000E+00 0. -1.
         -4    1    5    5    0  503 -0.28709106342E+02 -0.14408177604E+02  0.30368982682E+02  0.44205016434E+02  0.00000000000E+00 0.  1.
         -3    1    6    6    0  502  0.21576803990E+02  0.23463633045E+02  0.47432178769E+03  0.47539168990E+03  0.00000000000E+00 0.  1.
<mgrwt>
<rscale>  0 0.12682300E+04</rscale>
<asrwt>0</asrwt>
<pdfrwt beam="1">  1        2 0.44727300E+00 0.12682300E+04</pdfrwt>
<pdfrwt beam="2">  1       -2 0.21278286E-01 0.12682300E+04</pdfrwt>
<totfact> 0.37826017E+01</totfact>
</mgrwt>
</event>
<event>
12    1  0.1960998E-007  0.1677299E+04  0.7818608E-02  0.8774419E-01
         -2   -1    0    0    0  501 -0.00000000000E+00  0.00000000000E+00  0.34727787317E+03  0.34727787317E+03  0.00000000000E+00 0.  1.
          2   -1    0    0  501    0  0.00000000000E+00 -0.00000000000E+00 -0.20252735008E+04  0.20252735008E+04  0.00000000000E+00 0. -1.
         23    2    1    2    0    0  0.54022751585E+03  0.26164528251E+02 -0.25811301671E+03  0.60628822167E+03  0.91829880320E+02 0.  0.
        254    2    1    2    0    0 -0.54022751585E+03 -0.26164528251E+02 -0.14198826110E+04  0.17662631523E+04  0.90060454306E+03 0.  0.
        -24    2    4    4    0    0 -0.62941815620E+03 -0.11497731878E+03 -0.45333323668E+03  0.78827968896E+03  0.80540954525E+02 0.  0.
         24    2    4    4    0    0  0.89190640352E+02  0.88812790527E+02 -0.96654937427E+03  0.97798346337E+03  0.79945479192E+02 0.  0.
         11    1    3    3    0    0  0.31235723466E+03  0.60283680226E+02 -0.14493296725E+03  0.34958079058E+03  0.00000000000E+00 0.  1.
        -11    1    3    3    0    0  0.22787028119E+03 -0.34119151975E+02 -0.11318004946E+03  0.25670743109E+03  0.00000000000E+00 0. -1.
          2    1    6    6  502    0 -0.85159142972E+00  0.50032907021E+02 -0.38316871898E+03  0.38642241679E+03  0.00000000000E+00 0. -1.
          1    1    5    5  503    0 -0.24150365814E+03 -0.68802814386E+02 -0.14007160782E+03  0.28753764881E+03  0.00000000000E+00 0. -1.
         -2    1    5    5    0  503 -0.38791449806E+03 -0.46174504392E+02 -0.31326162886E+03  0.50074204016E+03  0.00000000000E+00 0.  1.
         -1    1    6    6    0  502  0.90042231781E+02  0.38779883506E+02 -0.58338065529E+03  0.59156104658E+03  0.00000000000E+00 0.  1.
<mgrwt>
<rscale>  0 0.16772986E+04</rscale>
<asrwt>0</asrwt>
<pdfrwt beam="1">  1        2 0.31158054E+00 0.16772986E+04</pdfrwt>
<pdfrwt beam="2">  1       -2 0.53427364E-01 0.16772986E+04</pdfrwt>
<totfact> 0.20362225E+01</totfact>
</mgrwt>
</event>
<event>
12    1  0.1960998E-007  0.1572811E+04  0.7818608E-02  0.8837427E-01
          2   -1    0    0  501    0  0.00000000000E+00  0.00000000000E+00  0.10624158831E+04  0.10624158831E+04  0.00000000000E+00 0. -1.
         -2   -1    0    0    0  501 -0.00000000000E+00 -0.00000000000E+00 -0.58210135002E+03  0.58210135002E+03  0.00000000000E+00 0.  1.
         23    2    1    2    0    0 -0.25939541628E+02 -0.51800684709E+03  0.24470547562E+03  0.58052450907E+03  0.90133136966E+02 0.  0.
        254    2    1    2    0    0  0.25939541628E+02  0.51800684709E+03  0.23560905750E+03  0.10639927241E+04  0.89864616813E+03 0.  0.
        -24    2    4    4    0    0 -0.19964344472E+03  0.12926273359E+03 -0.27939781358E+03  0.37530454754E+03  0.78892368812E+02 0.  0.
         24    2    4    4    0    0  0.22558298635E+03  0.38874411350E+03  0.51500687107E+03  0.68868817655E+03  0.83962240041E+02 0.  0.
         11    1    3    3    0    0 -0.11872023137E+02 -0.15213734461E+03  0.11862828400E+03  0.19328576338E+03  0.00000000000E+00 0. -1.
        -11    1    3    3    0    0 -0.14067518491E+02 -0.36586950247E+03  0.12607719162E+03  0.38723874569E+03  0.00000000000E+00 0.  1.
          4    1    6    6  502    0  0.10435941920E+03  0.17829841420E+03  0.17440200989E+03  0.27036507529E+03  0.00000000000E+00 0. -1.
          3    1    5    5  503    0 -0.13597632441E+03  0.59168883060E+02 -0.21346615274E+03  0.25991982588E+03  0.00000000000E+00 0. -1.
         -4    1    5    5    0  503 -0.63667120317E+02  0.70093850525E+02 -0.65931660839E+02  0.11538472166E+03  0.00000000000E+00 0.  1.
         -3    1    6    6    0  502  0.12122356715E+03  0.21044569930E+03  0.34060486118E+03  0.41832310126E+03  0.00000000000E+00 0.  1.
<mgrwt>
<rscale>  0 0.15728111E+04</rscale>
<asrwt>0</asrwt>
<pdfrwt beam="1">  1        2 0.16344860E+00 0.15728111E+04</pdfrwt>
<pdfrwt beam="2">  1       -2 0.89554054E-01 0.15728111E+04</pdfrwt>
<totfact> 0.23622385E+01</totfact>
</mgrwt>
</event>
<event>
12    1  0.1960998E-007  0.2330387E+04  0.7818608E-02  0.8466036E-01
          1   -1    0    0  501    0  0.00000000000E+00  0.00000000000E+00  0.21341610962E+04  0.21341610962E+04  0.00000000000E+00 0. -1.
         -1   -1    0    0    0  501 -0.00000000000E+00 -0.00000000000E+00 -0.63616357554E+03  0.63616357554E+03  0.00000000000E+00 0.  1.
         23    2    1    2    0    0 -0.28880628827E+03  0.59480645998E+03  0.15103981102E+04  0.16514774777E+04  0.94189230373E+02 0.  0.
        254    2    1    2    0    0  0.28880628827E+03 -0.59480645998E+03 -0.12400589470E+02  0.11188471941E+04  0.90247519199E+03 0.  0.
        -24    2    4    4    0    0  0.36989085093E+03 -0.79863385501E+03 -0.17748282509E+02  0.88403199273E+03  0.81007942073E+02 0.  0.
         24    2    4    4    0    0 -0.81084562659E+02  0.20382739503E+03  0.53476930383E+01  0.23481520137E+03  0.83601840320E+02 0.  0.
         11    1    3    3    0    0 -0.66527444130E+02  0.24119954835E+03  0.56038828613E+03  0.61370852542E+03  0.00000000000E+00 0.  1.
        -11    1    3    3    0    0 -0.22227884414E+03  0.35360691163E+03  0.95000982404E+03  0.10377689523E+04  0.00000000000E+00 0. -1.
          4    1    6    6  502    0 -0.65780499430E+02  0.12835089499E+03 -0.34224497024E+02  0.14823070717E+03  0.00000000000E+00 0. -1.
          3    1    5    5  503    0  0.16707493695E+03 -0.28860999817E+03  0.18268006646E+02  0.33398126544E+03  0.00000000000E+00 0. -1.
         -4    1    5    5    0  503  0.20281591397E+03 -0.51002385684E+03 -0.36016289155E+02  0.55005072729E+03  0.00000000000E+00 0.  1.
         -3    1    6    6    0  502 -0.15304063230E+02  0.75476500039E+02  0.39572190062E+02  0.86584494200E+02  0.00000000000E+00 0.  1.
<mgrwt>
<rscale>  0 0.23303867E+04</rscale>
<asrwt>0</asrwt>
<pdfrwt beam="1">  1        1 0.32833247E+00 0.23303867E+04</pdfrwt>
<pdfrwt beam="2">  1       -1 0.97871320E-01 0.23303867E+04</pdfrwt>
<totfact> 0.21795945E+00</totfact>
</mgrwt>
</event>
<event>
12    1  0.1960998E-007  0.2323071E+04  0.7818608E-02  0.8468880E-01
         -2   -1    0    0    0  501 -0.00000000000E+00  0.00000000000E+00  0.65268244147E+03  0.65268244147E+03  0.00000000000E+00 0.  1.
          2   -1    0    0  501    0  0.00000000000E+00 -0.00000000000E+00 -0.20671075907E+04  0.20671075907E+04  0.00000000000E+00 0. -1.
         23    2    1    2    0    0  0.34394890710E+03 -0.81947213173E+03 -0.10969955510E+04  0.14147204298E+04  0.90549601954E+02 0.  0.
        254    2    1    2    0    0 -0.34394890710E+03  0.81947213173E+03 -0.31742959831E+03  0.13050696024E+04  0.90144866285E+03 0.  0.
        -24    2    4    4    0    0 -0.48724153926E+03  0.12945349201E+03  0.37819397192E+02  0.51155794946E+03  0.78094203910E+02 0.  0.
         24    2    4    4    0    0  0.14329263215E+03  0.69001863973E+03 -0.35524899550E+03  0.79351165291E+03  0.82464494730E+02 0.  0.
         13    1    3    3    0    0  0.25361306347E+03 -0.69030926153E+03 -0.88948670224E+03  0.11541373644E+04  0.00000000000E+00 0. -1.
        -13    1    3    3    0    0  0.90335843629E+02 -0.12916287021E+03 -0.20750884871E+03  0.26058306541E+03  0.00000000000E+00 0.  1.
          2    1    6    6  502    0  0.10076757979E+03  0.30415643655E+03 -0.14040140023E+03  0.34982537961E+03  0.00000000000E+00 0. -1.
          1    1    5    5  503    0 -0.47529763679E+03  0.11087017339E+03  0.35529520245E+02  0.48934894063E+03  0.00000000000E+00 0. -1.
         -2    1    5    5    0  503 -0.11943902467E+02  0.18583318617E+02  0.22898769462E+01  0.22209008833E+02  0.00000000000E+00 0.  1.
         -1    1    6    6    0  502  0.42525052368E+02  0.38586220318E+03 -0.21484759527E+03  0.44368627330E+03  0.00000000000E+00 0.  1.
<mgrwt>
<rscale>  0 0.23230711E+04</rscale>
<asrwt>0</asrwt>
<pdfrwt beam="1">  1        2 0.31801655E+00 0.23230711E+04</pdfrwt>
<pdfrwt beam="2">  1       -2 0.10041268E+00 0.23230711E+04</pdfrwt>
<totfact> 0.45368256E+00</totfact>
</mgrwt>
</event>
<event>
12    1  0.1960998E-007  0.1421445E+04  0.7818608E-02  0.8938440E-01
         -1   -1    0    0    0  501 -0.00000000000E+00  0.00000000000E+00  0.48636329259E+03  0.48636329259E+03  0.00000000000E+00 0.  1.
          1   -1    0    0  501    0  0.00000000000E+00 -0.00000000000E+00 -0.10385788389E+04  0.10385788389E+04  0.00000000000E+00 0. -1.
         23    2    1    2    0    0 -0.48787079801E+02  0.12389547582E+03  0.25760366828E+03  0.30779199129E+03  0.10317941609E+03 0.  0.
        254    2    1    2    0    0  0.48787079801E+02 -0.12389547582E+03 -0.80981921455E+03  0.12171501402E+04  0.89884205251E+03 0.  0.
        -24    2    4    4    0    0 -0.39721535300E+03 -0.17743784814E+03 -0.48940719002E+03  0.65931469371E+03  0.76891098967E+02 0.  0.
         24    2    4    4    0    0  0.44600243280E+03  0.53542372319E+02 -0.32041202453E+03  0.55783544645E+03  0.82046109917E+02 0.  0.
         11    1    3    3    0    0  0.47199022712E+01  0.78535733213E+02  0.20656900497E+03  0.22104500149E+03  0.00000000000E+00 0.  1.
        -11    1    3    3    0    0 -0.53506982073E+02  0.45359742608E+02  0.51034663311E+02  0.86746989799E+02  0.00000000000E+00 0. -1.
          2    1    6    6  502    0  0.18108256160E+03  0.27214666966E+02 -0.18034140092E+03  0.25701080347E+03  0.00000000000E+00 0. -1.
          1    1    5    5  503    0 -0.34384953358E+03 -0.14185406198E+03 -0.37519518199E+03  0.52832423873E+03  0.00000000000E+00 0. -1.
         -2    1    5    5    0  503 -0.53365819422E+02 -0.35583786163E+02 -0.11421200803E+03  0.13099045499E+03  0.00000000000E+00 0.  1.
         -1    1    6    6    0  502  0.26491987119E+03  0.26327705352E+02 -0.14007062361E+03  0.30082464298E+03  0.00000000000E+00 0.  1.
<mgrwt>
<rscale>  0 0.14214452E+04</rscale>
<asrwt>0</asrwt>
<pdfrwt beam="1">  1        1 0.15978136E+00 0.14214452E+04</pdfrwt>
<pdfrwt beam="2">  1       -1 0.74825123E-01 0.14214452E+04</pdfrwt>
<totfact> 0.24702793E+01</totfact>
</mgrwt>
</event>
<event>
12    1  0.1960998E-007  0.1768102E+04  0.7818608E-02  0.8723449E-01
          2   -1    0    0  501    0  0.00000000000E+00  0.00000000000E+00  0.14820832751E+04  0.14820832751E+04  0.00000000000E+00 0. -1.
         -2   -1    0    0    0  501 -0.00000000000E+00 -0.00000000000E+00 -0.52732932196E+03  0.52732932196E+03  0.00000000000E+00 0.  1.
         23    2    1    2    0    0  0.43499153558E+02 -0.60356569855E+03  0.10020690012E+03  0.61994942784E+03  0.90067427101E+02 0.  0.
        254    2    1    2    0    0 -0.43499153558E+02  0.60356569855E+03  0.85454705307E+03  0.13894631693E+04  0.91333099368E+03 0.  0.
        -24    2    4    4    0    0  0.25324106893E+03  0.14661711390E+03 -0.72068169625E+02  0.31160295148E+03  0.79214652814E+02 0.  0.
         24    2    4    4    0    0 -0.29674022248E+03  0.45694858465E+03  0.92661522269E+03  0.10778602178E+04  0.79436197657E+02 0.  0.
         11    1    3    3    0    0  0.15414928499E+02 -0.32538234691E+03  0.90700050480E+01  0.32587352868E+03  0.00000000000E+00 0.  1.
        -11    1    3    3    0    0  0.28084225058E+02 -0.27818335164E+03  0.91136895068E+02  0.29407589916E+03  0.00000000000E+00 0. -1.
          2    1    6    6  502    0 -0.22212430069E+03  0.33110089649E+03  0.74163599983E+03  0.84201601223E+03  0.00000000000E+00 0. -1.
          3    1    5    5  503    0  0.18229555458E+03  0.14015751248E+03 -0.39675200701E+02  0.23334506439E+03  0.00000000000E+00 0. -1.
         -4    1    5    5    0  503  0.70945514349E+02  0.64596014168E+01 -0.32392968924E+02  0.78257887095E+02  0.00000000000E+00 0.  1.
         -1    1    6    6    0  502 -0.74615921790E+02  0.12584768816E+03  0.18497922286E+03  0.23584420555E+03  0.00000000000E+00 0.  1.
<mgrwt>
<rscale>  0 0.17681018E+04</rscale>
<asrwt>0</asrwt>
<pdfrwt beam="1">  1        2 0.22801281E+00 0.17681018E+04</pdfrwt>
<pdfrwt beam="2">  1       -2 0.81127589E-01 0.17681018E+04</pdfrwt>
<totfact> 0.16471479E+01</totfact>
</mgrwt>
</event>
<event>
12    1  0.1960998E-007  0.1932962E+04  0.7818608E-02  0.8638621E-01
          1   -1    0    0  501    0  0.00000000000E+00  0.00000000000E+00  0.24245435674E+04  0.24245435674E+04  0.00000000000E+00 0. -1.
         -1   -1    0    0    0  501 -0.00000000000E+00 -0.00000000000E+00 -0.38526255944E+03  0.38526255944E+03  0.00000000000E+00 0.  1.
         23    2    1    2    0    0 -0.49221554920E+03 -0.23124302372E+03  0.15552439892E+04  0.16502186700E+04  0.93211105281E+02 0.  0.
        254    2    1    2    0    0  0.49221554920E+03  0.23124302372E+03  0.48403701883E+03  0.11595874569E+04  0.90255290794E+03 0.  0.
        -24    2    4    4    0    0  0.68235805830E+03  0.39161020758E+03  0.39524195655E+03  0.88387988243E+03  0.77822669839E+02 0.  0.
         24    2    4    4    0    0 -0.19014250911E+03 -0.16036718386E+03  0.88795062282E+02  0.27570757443E+03  0.79109393142E+02 0.  0.
         13    1    3    3    0    0 -0.31708772747E+03 -0.99927391770E+02  0.96855096389E+03  0.10240220116E+04  0.00000000000E+00 0.  1.
        -13    1    3    3    0    0 -0.17512782173E+03 -0.13131563195E+03  0.58669302527E+03  0.62619665843E+03  0.00000000000E+00 0. -1.
          4    1    6    6  502    0 -0.17857286186E+02 -0.51756729085E+01  0.31948846849E+02  0.36964835655E+02  0.00000000000E+00 0. -1.
          3    1    5    5  503    0  0.55042768457E+03  0.29323013270E+03  0.28430694686E+03  0.68540862754E+03  0.00000000000E+00 0. -1.
         -4    1    5    5    0  503  0.13193037373E+03  0.98380074878E+02  0.11093500969E+03  0.19847125490E+03  0.00000000000E+00 0.  1.
         -3    1    6    6    0  502 -0.17228522292E+03 -0.15519151095E+03  0.56846215433E+02  0.23874273878E+03  0.00000000000E+00 0.  1.
<mgrwt>
<rscale>  0 0.19329623E+04</rscale>
<asrwt>0</asrwt>
<pdfrwt beam="1">  1        1 0.37300669E+00 0.19329623E+04</pdfrwt>
<pdfrwt beam="2">  1       -1 0.59271164E-01 0.19329623E+04</pdfrwt>
<totfact> 0.41155253E+00</totfact>
</mgrwt>
</event>
<event>
12    1  0.1960998E-007  0.3015244E+04  0.7818608E-02  0.8239391E-01
         -2   -1    0    0    0  501 -0.00000000000E+00  0.00000000000E+00  0.23781441731E+04  0.23781441731E+04  0.00000000000E+00 0.  1.
          2   -1    0    0  501    0  0.00000000000E+00 -0.00000000000E+00 -0.95575512019E+03  0.95575512019E+03  0.00000000000E+00 0. -1.
         23    2    1    2    0    0  0.55855684759E+03 -0.10012174969E+04 -0.18347071652E+03  0.11645833574E+04  0.90391727711E+02 0.  0.
        254    2    1    2    0    0 -0.55855684759E+03  0.10012174969E+04  0.16058597694E+04  0.21693159359E+04  0.90151195373E+03 0.  0.
        -24    2    4    4    0    0  0.17033765765E+03 -0.32565635799E+02  0.20546323756E+03  0.28027752738E+03  0.79151197836E+02 0.  0.
         24    2    4    4    0    0 -0.72889450524E+03  0.10337831327E+04  0.14003965319E+04  0.18890384085E+04  0.85795671731E+02 0.  0.
         11    1    3    3    0    0  0.14416663883E+03 -0.25805471971E+03 -0.87656606218E+02  0.30831791827E+03  0.00000000000E+00 0. -1.
        -11    1    3    3    0    0  0.41439020877E+03 -0.74316277715E+03 -0.95814110301E+02  0.85626543910E+03  0.00000000000E+00 0.  1.
          4    1    6    6  502    0 -0.96035263962E+02  0.18490497388E+03  0.25291611851E+03  0.32768763220E+03  0.00000000000E+00 0. -1.
          1    1    5    5  503    0  0.29962024647E+02 -0.38147150230E+02  0.69645612564E+02  0.84873077834E+02  0.00000000000E+00 0. -1.
         -2    1    5    5    0  503  0.14037563300E+03  0.55815144303E+01  0.13581762499E+03  0.19540444955E+03  0.00000000000E+00 0.  1.
         -3    1    6    6    0  502 -0.63285924128E+03  0.84887815878E+03  0.11474804134E+04  0.15613507763E+04  0.00000000000E+00 0.  1.
<mgrwt>
<rscale>  0 0.30152436E+04</rscale>
<asrwt>0</asrwt>
<pdfrwt beam="1">  1        2 0.14703925E+00 0.30152436E+04</pdfrwt>
<pdfrwt beam="2">  1       -2 0.36586833E+00 0.30152436E+04</pdfrwt>
<totfact> 0.28379372E-01</totfact>
</mgrwt>
</event>
<event>
12    1  0.1960998E-007  0.4005952E+04  0.7818608E-02  0.8003347E-01
         -2   -1    0    0    0  501 -0.00000000000E+00  0.00000000000E+00  0.15549329974E+04  0.15549329974E+04  0.00000000000E+00 0.  1.
          2   -1    0    0  501    0  0.00000000000E+00 -0.00000000000E+00 -0.25801195012E+04  0.25801195012E+04  0.00000000000E+00 0. -1.
         23    2    1    2    0    0  0.11820847011E+03 -0.12063365252E+04  0.10220832789E+04  0.15879596729E+04  0.87980902388E+02 0.  0.
        254    2    1    2    0    0 -0.11820847011E+03  0.12063365252E+04 -0.20472697827E+04  0.25470928257E+04  0.90947635763E+03 0.  0.
        -24    2    4    4    0    0 -0.93556501833E+02  0.30236202890E+03 -0.13862438266E+04  0.14241531664E+04  0.79778937610E+02 0.  0.
         24    2    4    4    0    0 -0.24651968278E+02  0.90397449626E+03 -0.66102595608E+03  0.11229396593E+04  0.79123665100E+02 0.  0.
         13    1    3    3    0    0  0.54715089463E+02 -0.63851686180E+03  0.48372230922E+03  0.80292265895E+03  0.00000000000E+00 0.  1.
        -13    1    3    3    0    0  0.63493380648E+02 -0.56781966336E+03  0.53836096972E+03  0.78503701391E+03  0.00000000000E+00 0. -1.
          4    1    6    6  502    0  0.98645751573E+01  0.16904462199E+02 -0.93990491220E+01  0.21712042964E+02  0.00000000000E+00 0. -1.
          1    1    5    5  503    0 -0.78880217643E+02  0.15652578564E+03 -0.63515124216E+03  0.65889263975E+03  0.00000000000E+00 0. -1.
         -2    1    5    5    0  503 -0.14676284190E+02  0.14583624327E+03 -0.75109258449E+03  0.76526052664E+03  0.00000000000E+00 0.  1.
         -3    1    6    6    0  502 -0.34516543436E+02  0.88707003406E+03 -0.65162690696E+03  0.11012276163E+04  0.00000000000E+00 0.  1.
<mgrwt>
<rscale>  0 0.40059520E+04</rscale>
<asrwt>0</asrwt>
<pdfrwt beam="1">  1        2 0.39694146E+00 0.40059520E+04</pdfrwt>
<pdfrwt beam="2">  1       -2 0.23922046E+00 0.40059520E+04</pdfrwt>
<totfact> 0.18462503E-01</totfact>
</mgrwt>
</event>
<event>
12    1  0.1960998E-007  0.2040315E+04  0.7818608E-02  0.8588001E-01
          1   -1    0    0  501    0  0.00000000000E+00  0.00000000000E+00  0.66974419036E+03  0.66974419036E+03  0.00000000000E+00 0. -1.
         -1   -1    0    0    0  501 -0.00000000000E+00 -0.00000000000E+00 -0.15539086802E+04  0.15539086802E+04  0.00000000000E+00 0.  1.
         23    2    1    2    0    0  0.31880468156E+03 -0.41252921450E+03  0.32987591680E+03  0.62377010777E+03  0.91946990488E+02 0.  0.
        254    2    1    2    0    0 -0.31880468156E+03  0.41252921450E+03 -0.12140404067E+04  0.15998827628E+04  0.90217180624E+03 0.  0.
        -24    2    4    4    0    0 -0.45540466818E+03  0.17116742684E+03 -0.12152663306E+04  0.13114822630E+04  0.80135961244E+02 0.  0.
         24    2    4    4    0    0  0.13659998661E+03  0.24136178766E+03  0.12259239052E+01  0.28840049977E+03  0.79109269317E+02 0.  0.
         13    1    3    3    0    0  0.61326154252E+02 -0.35049308875E+02  0.62767812904E+02  0.94494177518E+02  0.00000000000E+00 0. -1.
        -13    1    3    3    0    0  0.25747852731E+03 -0.37747990563E+03  0.26710810389E+03  0.52927593025E+03  0.00000000000E+00 0.  1.
          2    1    6    6  502    0  0.12216220560E+03  0.17331793466E+03  0.27963316625E+02  0.21388000848E+03  0.00000000000E+00 0. -1.
          1    1    5    5  503    0 -0.17416687692E+03  0.10278891895E+03 -0.54904509760E+03  0.58510698344E+03  0.00000000000E+00 0. -1.
         -4    1    5    5    0  503 -0.28123779126E+03  0.68378507887E+02 -0.66622123296E+03  0.72637527961E+03  0.00000000000E+00 0.  1.
         -1    1    6    6    0  502  0.14437781011E+02  0.68043853009E+02 -0.26737392720E+02  0.74520491291E+02  0.00000000000E+00 0.  1.
<mgrwt>
<rscale>  0 0.20403150E+04</rscale>
<asrwt>0</asrwt>
<pdfrwt beam="1">  1        1 0.10303757E+00 0.20403150E+04</pdfrwt>
<pdfrwt beam="2">  1       -1 0.23906287E+00 0.20403150E+04</pdfrwt>
<totfact> 0.22139510E+00</totfact>
</mgrwt>
</event>
<event>
12    1  0.1960998E-007  0.1745349E+04  0.7818608E-02  0.8735914E-01
         -1   -1    0    0    0  501 -0.00000000000E+00  0.00000000000E+00  0.65128942537E+03  0.65128942537E+03  0.00000000000E+00 0. -1.
          1   -1    0    0  501    0  0.00000000000E+00 -0.00000000000E+00 -0.11693126591E+04  0.11693126591E+04  0.00000000000E+00 0.  1.
         23    2    1    2    0    0 -0.50509515821E+03  0.38653948576E+03 -0.20760069207E+03  0.67532670823E+03  0.91838023775E+02 0.  0.
        254    2    1    2    0    0  0.50509515821E+03 -0.38653948576E+03 -0.31042254162E+03  0.11452753762E+04  0.90042192335E+03 0.  0.
        -24    2    4    4    0    0 -0.23950103495E+03 -0.21439292942E+03 -0.11814433858E+03  0.35296056071E+03  0.85428325211E+02 0.  0.
         24    2    4    4    0    0  0.74459619316E+03 -0.17214655634E+03 -0.19227820303E+03  0.79231481548E+03  0.82060536987E+02 0.  0.
         11    1    3    3    0    0 -0.10671208021E+03  0.81884325467E+02 -0.84738125414E+02  0.15897503175E+03  0.00000000000E+00 0.  1.
        -11    1    3    3    0    0 -0.39838307800E+03  0.30465516029E+03 -0.12286256666E+03  0.51635167649E+03  0.00000000000E+00 0. -1.
          2    1    6    6  502    0  0.39560852358E+03 -0.92354757621E+02 -0.59938306295E+02  0.41064352636E+03  0.00000000000E+00 0. -1.
          3    1    5    5  503    0 -0.17637553901E+03 -0.11696809127E+03 -0.10463327068E+03  0.23608893763E+03  0.00000000000E+00 0. -1.
         -4    1    5    5    0  503 -0.63125495939E+02 -0.97424838145E+02 -0.13511067907E+02  0.11687162308E+03  0.00000000000E+00 0.  1.
         -1    1    6    6    0  502  0.34898766958E+03 -0.79791798719E+02 -0.13233989674E+03  0.38167128911E+03  0.00000000000E+00 0.  1.
<mgrwt>
<rscale>  0 0.17453492E+04</rscale>
<asrwt>0</asrwt>
<pdfrwt beam="1">  1        1 0.17989425E+00 0.17453492E+04</pdfrwt>
<pdfrwt beam="2">  1       -1 0.10019837E+00 0.17453492E+04</pdfrwt>
<totfact> 0.10125144E+01</totfact>
</mgrwt>
</event>
<event>
12    1  0.1960998E-007  0.1150940E+04  0.7818608E-02  0.9156917E-01
         -1   -1    0    0    0  501 -0.00000000000E+00  0.00000000000E+00  0.54836344908E+03  0.54836344908E+03  0.00000000000E+00 0.  1.
          1   -1    0    0  501    0  0.00000000000E+00 -0.00000000000E+00 -0.60391678074E+03  0.60391678074E+03  0.00000000000E+00 0. -1.
         23    2    1    2    0    0  0.17176678830E+03 -0.88238996738E+02  0.68551952706E+02  0.22676052244E+03  0.97113409011E+02 0.  0.
        254    2    1    2    0    0 -0.17176678830E+03  0.88238996738E+02 -0.12410528437E+03  0.92551970738E+03  0.89660172709E+03 0.  0.
        -24    2    4    4    0    0  0.38910930577E+02 -0.15536381887E+03  0.32242397900E+03  0.36880692699E+03  0.80058418849E+02 0.  0.
         24    2    4    4    0    0 -0.21067771888E+03  0.24360281561E+03 -0.44652926337E+03  0.55671278038E+03  0.82542739173E+02 0.  0.
         13    1    3    3    0    0  0.17233729063E+03 -0.99494769797E+02  0.76258597306E+02  0.21310730776E+03  0.00000000000E+00 0.  1.
        -13    1    3    3    0    0 -0.57050233058E+00  0.11255773059E+02 -0.77066445996E+01  0.13653214678E+02  0.00000000000E+00 0. -1.
          2    1    6    6  502    0 -0.68149059513E+02  0.13398904149E+03 -0.23650200805E+03  0.28023304117E+03  0.00000000000E+00 0. -1.
          1    1    5    5  503    0  0.10937509480E+02 -0.15569625347E+02  0.33346588370E+01  0.19317409159E+02  0.00000000000E+00 0. -1.
         -2    1    5    5    0  503  0.27973421098E+02 -0.13979419353E+03  0.31908932017E+03  0.34948951783E+03  0.00000000000E+00 0.  1.
         -1    1    6    6    0  502 -0.14252865937E+03  0.10961377412E+03 -0.21002725531E+03  0.27647973921E+03  0.00000000000E+00 0.  1.
<mgrwt>
<rscale>  0 0.11509403E+04</rscale>
<asrwt>0</asrwt>
<pdfrwt beam="1">  1        1 0.92910274E-01 0.11509403E+04</pdfrwt>
<pdfrwt beam="2">  1       -1 0.84363608E-01 0.11509403E+04</pdfrwt>
<totfact> 0.46913291E+01</totfact>
</mgrwt>
</event>
<event>
12    1  0.1960998E-007  0.4108323E+04  0.7818608E-02  0.7983044E-01
         -2   -1    0    0    0  501 -0.00000000000E+00  0.00000000000E+00  0.24524090004E+04  0.24524090004E+04  0.00000000000E+00 0.  1.
          2   -1    0    0  501    0  0.00000000000E+00 -0.00000000000E+00 -0.17205852328E+04  0.17205852328E+04  0.00000000000E+00 0. -1.
         23    2    1    2    0    0  0.14830770786E+04  0.12195644133E+04  0.72283021428E+03  0.20537378548E+04  0.92199123687E+02 0.  0.
        254    2    1    2    0    0 -0.14830770786E+04 -0.12195644133E+04  0.89935533368E+01  0.21192563785E+04  0.89683428506E+03 0.  0.
        -24    2    4    4    0    0 -0.43166485048E+03 -0.14312619340E+03  0.34381350373E+03  0.57563467618E+03  0.79548128233E+02 0.  0.
         24    2    4    4    0    0 -0.10514122281E+04 -0.10764382199E+04 -0.33481995039E+03  0.15436217023E+04  0.80477613011E+02 0.  0.
         13    1    3    3    0    0  0.85596055235E+03  0.70836443156E+03  0.36962774382E+03  0.11709283941E+04  0.00000000000E+00 0. -1.
        -13    1    3    3    0    0  0.62711652622E+03  0.51119998169E+03  0.35320247046E+03  0.88280946068E+03  0.00000000000E+00 0.  1.
          4    1    6    6  502    0 -0.43202980626E+03 -0.46991994115E+03 -0.17767613400E+03  0.66260343584E+03  0.00000000000E+00 0. -1.
          1    1    5    5  503    0 -0.17884387329E+03 -0.10011032010E+03  0.14299561335E+03  0.24990988904E+03  0.00000000000E+00 0. -1.
         -2    1    5    5    0  503 -0.25282097719E+03 -0.43015873292E+02  0.20081789038E+03  0.32572478714E+03  0.00000000000E+00 0.  1.
         -1    1    6    6    0  502 -0.61938242183E+03 -0.60651827870E+03 -0.15714381639E+03  0.88101826649E+03  0.00000000000E+00 0.  1.
<mgrwt>
<rscale>  0 0.41083226E+04</rscale>
<asrwt>0</asrwt>
<pdfrwt beam="1">  1        2 0.26470542E+00 0.41083226E+04</pdfrwt>
<pdfrwt beam="2">  1       -2 0.37729369E+00 0.41083226E+04</pdfrwt>
<totfact> 0.77827925E-02</totfact>
</mgrwt>
</event>
<event>
12    1  0.1960998E-007  0.2279070E+04  0.7818608E-02  0.8486220E-01
          1   -1    0    0  501    0  0.00000000000E+00  0.00000000000E+00  0.30700769414E+04  0.30700769414E+04  0.00000000000E+00 0. -1.
         -1   -1    0    0    0  501 -0.00000000000E+00 -0.00000000000E+00 -0.42296650877E+03  0.42296650877E+03  0.00000000000E+00 0.  1.
         23    2    1    2    0    0 -0.53534114134E+03 -0.19684437992E+03 -0.62981753407E+02  0.58087448925E+03  0.90059000029E+02 0.  0.
        254    2    1    2    0    0  0.53534114134E+03  0.19684437992E+03  0.27100921860E+04  0.29121689609E+04  0.90043908876E+03 0.  0.
        -24    2    4    4    0    0 -0.21606790075E+02  0.20851828347E+03  0.19694576516E+04  0.19820493238E+04  0.76219109631E+02 0.  0.
         24    2    4    4    0    0  0.55694793141E+03 -0.11673903550E+02  0.74063453445E+03  0.93011963711E+03  0.79093282828E+02 0.  0.
         13    1    3    3    0    0 -0.51551286243E+03 -0.17661608582E+03 -0.75074669536E+02  0.55007541220E+03  0.00000000000E+00 0.  1.
        -13    1    3    3    0    0 -0.19828278910E+02 -0.20228294105E+02  0.12092916129E+02  0.30799077055E+02  0.00000000000E+00 0. -1.
          2    1    6    6  502    0  0.34023734329E+03 -0.14481677909E+02  0.38842602218E+03  0.51657133435E+03  0.00000000000E+00 0. -1.
          1    1    5    5  503    0 -0.20419066702E+02  0.21157396174E+03  0.17921086380E+04  0.18046700114E+04  0.00000000000E+00 0. -1.
         -2    1    5    5    0  503 -0.11877233733E+01 -0.30556782635E+01  0.17734901353E+03  0.17737931237E+03  0.00000000000E+00 0.  1.
         -1    1    6    6    0  502  0.21671058813E+03  0.28077743586E+01  0.35220851228E+03  0.41354830277E+03  0.00000000000E+00 0.  1.
<mgrwt>
<rscale>  0 0.22790697E+04</rscale>
<asrwt>0</asrwt>
<pdfrwt beam="1">  1        1 0.47231951E+00 0.22790697E+04</pdfrwt>
<pdfrwt beam="2">  1       -1 0.65071773E-01 0.22790697E+04</pdfrwt>
<totfact> 0.11521925E+00</totfact>
</mgrwt>
</event>
<event>
12    1  0.1960998E-007  0.3417073E+04  0.7818608E-02  0.8133729E-01
         -2   -1    0    0    0  501 -0.00000000000E+00  0.00000000000E+00  0.23718568091E+04  0.23718568091E+04  0.00000000000E+00 0.  1.
          2   -1    0    0  501    0  0.00000000000E+00 -0.00000000000E+00 -0.12307219076E+04  0.12307219076E+04  0.00000000000E+00 0. -1.
         23    2    1    2    0    0  0.15089013299E+04  0.26394471360E+03  0.96755834757E+03  0.18140281813E+04  0.89883542815E+02 0.  0.
        254    2    1    2    0    0 -0.15089013299E+04 -0.26394471360E+03  0.17357655397E+03  0.17885505354E+04  0.90682642348E+03 0.  0.
        -24    2    4    4    0    0 -0.15067755116E+04 -0.45132402751E+03  0.13647079845E+03  0.15809953207E+04  0.82801602481E+02 0.  0.
         24    2    4    4    0    0 -0.21258183762E+01  0.18737931391E+03  0.37105755517E+02  0.20755521466E+03  0.81159125514E+02 0.  0.
         11    1    3    3    0    0  0.96067678939E+03  0.13943932445E+03  0.65135411166E+03  0.11690189894E+04  0.00000000000E+00 0. -1.
        -11    1    3    3    0    0  0.54822454053E+03  0.12450538915E+03  0.31620423591E+03  0.64500919186E+03  0.00000000000E+00 0.  1.
          4    1    6    6  502    0  0.22813268023E+01  0.18592080077E+03  0.16762322123E+02  0.18668884287E+03  0.00000000000E+00 0. -1.
          3    1    5    5  503    0 -0.14910940217E+04 -0.44448608150E+03  0.12620384614E+03  0.15610434552E+04  0.00000000000E+00 0. -1.
         -4    1    5    5    0  503 -0.15681489829E+02 -0.68379460067E+01  0.10266952303E+02  0.19951865538E+02  0.00000000000E+00 0.  1.
         -3    1    6    6    0  502 -0.44071451785E+01  0.14585131414E+01  0.20343433394E+02  0.20866371785E+02  0.00000000000E+00 0.  1.
<mgrwt>
<rscale>  0 0.34170725E+04</rscale>
<asrwt>0</asrwt>
<pdfrwt beam="1">  1        2 0.18934183E+00 0.34170725E+04</pdfrwt>
<pdfrwt beam="2">  1       -2 0.36490105E+00 0.34170725E+04</pdfrwt>
<totfact> 0.18789892E-01</totfact>
</mgrwt>
</event>
<event>
12    1  0.1960998E-007  0.2237760E+04  0.7818608E-02  0.8502874E-01
         -1   -1    0    0    0  501 -0.00000000000E+00  0.00000000000E+00  0.24149174733E+04  0.24149174733E+04  0.00000000000E+00 0.  1.
          1   -1    0    0  501    0  0.00000000000E+00 -0.00000000000E+00 -0.51839947037E+03  0.51839947037E+03  0.00000000000E+00 0. -1.
         23    2    1    2    0    0  0.19001944400E+03 -0.90943026130E+03  0.88400771583E+03  0.12851788125E+04  0.83929430298E+02 0.  0.
        254    2    1    2    0    0 -0.19001944400E+03  0.90943026130E+03  0.10125102871E+04  0.16481381311E+04  0.90995133306E+03 0.  0.
        -24    2    4    4    0    0 -0.47858067494E+03  0.87271574091E+03  0.78580489731E+03  0.12709596129E+04  0.84715843663E+02 0.  0.
         24    2    4    4    0    0  0.28856123094E+03  0.36714520390E+02  0.22670538978E+03  0.37717851820E+03  0.79074400596E+02 0.  0.
         13    1    3    3    0    0  0.77552166350E+02 -0.51741327367E+03  0.45664563273E+03  0.69444659130E+03  0.00000000000E+00 0. -1.
        -13    1    3    3    0    0  0.11246727765E+03 -0.39201698763E+03  0.42736208310E+03  0.59073222123E+03  0.00000000000E+00 0.  1.
          2    1    6    6  502    0  0.24016496425E+03  0.21484621249E+02  0.14609357603E+03  0.28192930313E+03  0.00000000000E+00 0. -1.
          1    1    5    5  503    0 -0.46021129931E+03  0.79540243014E+03  0.73396434940E+03  0.11760795603E+04  0.00000000000E+00 0. -1.
         -2    1    5    5    0  503 -0.18369375629E+02  0.77313310766E+02  0.51840547915E+02  0.94880052649E+02  0.00000000000E+00 0.  1.
         -1    1    6    6    0  502  0.48396266690E+02  0.15229899140E+02  0.80611813741E+02  0.95249215072E+02  0.00000000000E+00 0.  1.
<mgrwt>
<rscale>  0 0.22377595E+04</rscale>
<asrwt>0</asrwt>
<pdfrwt beam="1">  1        1 0.79753766E-01 0.22377595E+04</pdfrwt>
<pdfrwt beam="2">  1       -1 0.37152576E+00 0.22377595E+04</pdfrwt>
<totfact> 0.42785532E-01</totfact>
</mgrwt>
</event>
<event>
12    1  0.1960998E-007  0.3963453E+04  0.7818608E-02  0.8011960E-01
         -1   -1    0    0    0  501 -0.00000000000E+00  0.00000000000E+00  0.19221586937E+04  0.19221586937E+04  0.00000000000E+00 0.  1.
          1   -1    0    0  501    0  0.00000000000E+00 -0.00000000000E+00 -0.20431402242E+04  0.20431402242E+04  0.00000000000E+00 0. -1.
         23    2    1    2    0    0  0.18521390923E+04  0.30446148270E+02 -0.36712992448E+03  0.18906756517E+04  0.92324716384E+02 0.  0.
        254    2    1    2    0    0 -0.18521390923E+04 -0.30446148270E+02  0.24614839402E+03  0.20746232662E+04  0.90118060323E+03 0.  0.
        -24    2    4    4    0    0 -0.89774989563E+03  0.15369368986E+03  0.53270804624E+03  0.10581949770E+04  0.80138139498E+02 0.  0.
         24    2    4    4    0    0 -0.95438919666E+03 -0.18413983813E+03 -0.28655965221E+03  0.10164282892E+04  0.79017808982E+02 0.  0.
         11    1    3    3    0    0  0.27018533471E+03  0.27565765665E+02 -0.30455183135E+02  0.27329014748E+03  0.00000000000E+00 0.  1.
        -11    1    3    3    0    0  0.15819537576E+04  0.28803826050E+01 -0.33667474135E+03  0.16173855042E+04  0.00000000000E+00 0. -1.
          2    1    6    6  502    0 -0.13169891380E+03 -0.26629812794E+02 -0.68792378127E+02  0.15095079368E+03  0.00000000000E+00 0. -1.
          3    1    5    5  503    0 -0.63171779335E+02  0.60696220829E+01  0.15558815648E+02  0.65342105575E+02  0.00000000000E+00 0. -1.
         -4    1    5    5    0  503 -0.83457811629E+03  0.14762406778E+03  0.51714923059E+03  0.99285287142E+03  0.00000000000E+00 0.  1.
         -1    1    6    6    0  502 -0.82269028286E+03 -0.15751002533E+03 -0.21776727408E+03  0.86547749552E+03  0.00000000000E+00 0.  1.
<mgrwt>
<rscale>  0 0.39634529E+04</rscale>
<asrwt>0</asrwt>
<pdfrwt beam="1">  1        1 0.31432927E+00 0.39634529E+04</pdfrwt>
<pdfrwt beam="2">  1       -1 0.29571672E+00 0.39634529E+04</pdfrwt>
<totfact> 0.76982743E-02</totfact>
</mgrwt>
</event>
<event>
12    1  0.1960998E-007  0.1774722E+04  0.7818608E-02  0.8719859E-01
          1   -1    0    0  501    0  0.00000000000E+00  0.00000000000E+00  0.17848031879E+04  0.17848031879E+04  0.00000000000E+00 0. -1.
         -1   -1    0    0    0  501 -0.00000000000E+00 -0.00000000000E+00 -0.44117447701E+03  0.44117447701E+03  0.00000000000E+00 0.  1.
         23    2    1    2    0    0 -0.16030786013E+03 -0.71466019790E+02 -0.28919493804E+03  0.35017826644E+03  0.90471565101E+02 0.  0.
        254    2    1    2    0    0  0.16030786013E+03  0.71466019790E+02  0.16328236489E+04  0.18757993984E+04  0.90647907465E+03 0.  0.
        -24    2    4    4    0    0 -0.80942183170E+02  0.44731794093E+03  0.69311188866E+03  0.83235601291E+03  0.75943826156E+02 0.  0.
         24    2    4    4    0    0  0.24125004330E+03 -0.37585192114E+03  0.93971176023E+03  0.10434433855E+04  0.79054768721E+02 0.  0.
         11    1    3    3    0    0 -0.63291152592E+02 -0.61572971605E+02 -0.19740890947E+03  0.21625743540E+03  0.00000000000E+00 0.  1.
        -11    1    3    3    0    0 -0.97016707542E+02 -0.98930481848E+01 -0.91786028574E+02  0.13392083104E+03  0.00000000000E+00 0. -1.
          4    1    6    6  502    0  0.17436729323E+03 -0.20083407245E+03  0.53486814192E+03  0.59734596914E+03  0.00000000000E+00 0. -1.
          3    1    5    5  503    0 -0.90623088068E+02  0.30448673128E+03  0.47291046458E+03  0.56970959367E+03  0.00000000000E+00 0. -1.
         -4    1    5    5    0  503  0.96809048983E+01  0.14283120965E+03  0.22020142409E+03  0.26264641924E+03  0.00000000000E+00 0.  1.
         -3    1    6    6    0  502  0.66882750070E+02 -0.17501784869E+03  0.40484361830E+03  0.44609741638E+03  0.00000000000E+00 0.  1.
<mgrwt>
<rscale>  0 0.17747221E+04</rscale>
<asrwt>0</asrwt>
<pdfrwt beam="1">  1        1 0.27458510E+00 0.17747221E+04</pdfrwt>
<pdfrwt beam="2">  1       -1 0.67872997E-01 0.17747221E+04</pdfrwt>
<totfact> 0.86713316E+00</totfact>
</mgrwt>
</event>
<event>
12    1  0.1960998E-007  0.1241865E+04  0.7818608E-02  0.9076981E-01
         -2   -1    0    0    0  501 -0.00000000000E+00  0.00000000000E+00  0.74970673722E+03  0.74970673722E+03  0.00000000000E+00 0.  1.
          2   -1    0    0  501    0  0.00000000000E+00 -0.00000000000E+00 -0.51427745900E+03  0.51427745900E+03  0.00000000000E+00 0. -1.
         23    2    1    2    0    0  0.67432399282E+02  0.21926556105E+03 -0.10768776266E+03  0.27408056954E+03  0.10439822624E+03 0.  0.
        254    2    1    2    0    0 -0.67432399282E+02 -0.21926556105E+03  0.34311704088E+03  0.98990362668E+03  0.89975295033E+03 0.  0.
        -24    2    4    4    0    0  0.15480664604E+03  0.43039048589E+02  0.55172570350E+03  0.58012697914E+03  0.79552515133E+02 0.  0.
         24    2    4    4    0    0 -0.22223904533E+03 -0.26230460964E+03 -0.20860866261E+03  0.40977664754E+03  0.78774521552E+02 0.  0.
         11    1    3    3    0    0  0.42125247850E+02  0.17681544433E+03 -0.33326538823E+02  0.18479419918E+03  0.00000000000E+00 0.  1.
        -11    1    3    3    0    0  0.25307151432E+02  0.42450116713E+02 -0.74361223833E+02  0.89286370362E+02  0.00000000000E+00 0. -1.
          4    1    6    6  502    0 -0.17301396236E+02 -0.20017861868E+02 -0.46334352503E+02  0.53356586541E+02  0.00000000000E+00 0. -1.
          1    1    5    5  503    0  0.11833824135E+03  0.42119907632E+00  0.43196520646E+03  0.44788174373E+03  0.00000000000E+00 0. -1.
         -2    1    5    5    0  503  0.36468404699E+02  0.42617849513E+02  0.11976049703E+03  0.13224523541E+03  0.00000000000E+00 0.  1.
         -3    1    6    6    0  502 -0.20493764909E+03 -0.24228674777E+03 -0.16227431011E+03  0.35642006100E+03  0.00000000000E+00 0.  1.
<mgrwt>
<rscale>  0 0.12418652E+04</rscale>
<asrwt>0</asrwt>
<pdfrwt beam="1">  1        2 0.79119609E-01 0.12418652E+04</pdfrwt>
<pdfrwt beam="2">  1       -2 0.11533950E+00 0.12418652E+04</pdfrwt>
<totfact> 0.34321075E+01</totfact>
</mgrwt>
</event>
<event>
12    1  0.1960998E-007  0.1697502E+04  0.7818608E-02  0.8762790E-01
          2   -1    0    0  501    0  0.00000000000E+00  0.00000000000E+00  0.14718367973E+04  0.14718367973E+04  0.00000000000E+00 0. -1.
         -2   -1    0    0    0  501 -0.00000000000E+00 -0.00000000000E+00 -0.48944170411E+03  0.48944170411E+03  0.00000000000E+00 0.  1.
         23    2    1    2    0    0 -0.30893634223E+03  0.43048779918E+03  0.69336570707E+03  0.87725906681E+03  0.89811234106E+02 0.  0.
        254    2    1    2    0    0  0.30893634223E+03 -0.43048779918E+03  0.28902938612E+03  0.10840194346E+04  0.90044363497E+03 0.  0.
        -24    2    4    4    0    0  0.10064245657E+03 -0.59072731504E+03  0.46149797294E+03  0.76057742033E+03  0.80062278870E+02 0.  0.
         24    2    4    4    0    0  0.20829388567E+03  0.16023951586E+03 -0.17246858682E+03  0.32344201427E+03  0.76198936365E+02 0.  0.
         11    1    3    3    0    0 -0.23257029974E+03  0.29002947537E+03  0.54090430535E+03  0.65634100014E+03  0.00000000000E+00 0. -1.
        -11    1    3    3    0    0 -0.76366042490E+02  0.14045832380E+03  0.15246140172E+03  0.22091806668E+03  0.00000000000E+00 0.  1.
          2    1    6    6  502    0  0.10286546077E+02 -0.73895833165E+01 -0.15363705140E+01  0.12758503287E+02  0.00000000000E+00 0. -1.
          1    1    5    5  503    0  0.47431098315E+02 -0.98315544666E+02  0.89395524450E+02  0.14109293108E+03  0.00000000000E+00 0. -1.
         -2    1    5    5    0  503  0.53211358250E+02 -0.49241177037E+03  0.37210244849E+03  0.61948448925E+03  0.00000000000E+00 0.  1.
         -1    1    6    6    0  502  0.19800733959E+03  0.16762909918E+03 -0.17093221631E+03  0.31068351098E+03  0.00000000000E+00 0.  1.
<mgrwt>
<rscale>  0 0.16975021E+04</rscale>
<asrwt>0</asrwt>
<pdfrwt beam="1">  1        2 0.22643643E+00 0.16975021E+04</pdfrwt>
<pdfrwt beam="2">  1       -2 0.75298724E-01 0.16975021E+04</pdfrwt>
<totfact> 0.19836421E+01</totfact>
</mgrwt>
</event>
<event>
12    1  0.1960998E-007  0.4091170E+04  0.7818608E-02  0.7986403E-01
         -2   -1    0    0    0  501 -0.00000000000E+00  0.00000000000E+00  0.21926114543E+04  0.21926114543E+04  0.00000000000E+00 0.  1.
          2   -1    0    0  501    0  0.00000000000E+00 -0.00000000000E+00 -0.19084174926E+04  0.19084174926E+04  0.00000000000E+00 0. -1.
         23    2    1    2    0    0  0.12287883279E+04  0.10791337635E+04  0.11916667410E+04  0.20257089824E+04  0.94746109113E+02 0.  0.
        254    2    1    2    0    0 -0.12287883279E+04 -0.10791337635E+04 -0.90747277935E+03  0.20753199646E+04  0.89944186901E+03 0.  0.
        -24    2    4    4    0    0 -0.10041035988E+04 -0.34295362009E+03 -0.34459561106E+03  0.11185185493E+04  0.80600169663E+02 0.  0.
         24    2    4    4    0    0 -0.22468472913E+03 -0.73618014338E+03 -0.56287716830E+03  0.95680141524E+03  0.78700766265E+02 0.  0.
         13    1    3    3    0    0  0.76003375436E+03  0.65597516731E+03  0.67505384937E+03  0.12098150385E+04  0.00000000000E+00 0. -1.
        -13    1    3    3    0    0  0.46875457358E+03  0.42315859617E+03  0.51661289164E+03  0.81589394383E+03  0.00000000000E+00 0.  1.
          4    1    6    6  502    0 -0.11341755845E+03 -0.47577110732E+03 -0.38422770849E+03  0.62197477529E+03  0.00000000000E+00 0. -1.
          1    1    5    5  503    0 -0.19509959766E+03 -0.94749485186E+02 -0.90048113262E+02  0.23484033012E+03  0.00000000000E+00 0. -1.
         -4    1    5    5    0  503 -0.80900400115E+03 -0.24820413491E+03 -0.25454749780E+03  0.88367821921E+03  0.00000000000E+00 0.  1.
         -3    1    6    6    0  502 -0.11126717069E+03 -0.26040903606E+03 -0.17864945981E+03  0.33482663996E+03  0.00000000000E+00 0.  1.
<mgrwt>
<rscale>  0 0.40911700E+04</rscale>
<asrwt>0</asrwt>
<pdfrwt beam="1">  1        2 0.29360269E+00 0.40911700E+04</pdfrwt>
<pdfrwt beam="2">  1       -2 0.33732484E+00 0.40911700E+04</pdfrwt>
<totfact> 0.10991889E-01</totfact>
</mgrwt>
</event>
<event>
12    1  0.1960998E-007  0.1698206E+04  0.7818608E-02  0.8762388E-01
         -1   -1    0    0    0  501 -0.00000000000E+00  0.00000000000E+00  0.16067166376E+04  0.16067166376E+04  0.00000000000E+00 0.  1.
          1   -1    0    0  501    0  0.00000000000E+00 -0.00000000000E+00 -0.44872631223E+03  0.44872631223E+03  0.00000000000E+00 0. -1.
         23    2    1    2    0    0 -0.42364927267E+03  0.33959312829E+03  0.91171668664E+02  0.55786939628E+03  0.90021059338E+02 0.  0.
        254    2    1    2    0    0  0.42364927267E+03 -0.33959312829E+03  0.10668186567E+04  0.14975735536E+04  0.89990127405E+03 0.  0.
        -24    2    4    4    0    0 -0.78463114731E+02 -0.36843411144E+03  0.87052332011E+03  0.95182351832E+03  0.79101228325E+02 0.  0.
         24    2    4    4    0    0  0.50211238740E+03  0.28840983147E+02  0.19629533663E+03  0.54575003528E+03  0.79765844391E+02 0.  0.
         11    1    3    3    0    0 -0.13926030454E+03  0.16028642190E+03  0.13156271421E+02  0.21273988095E+03  0.00000000000E+00 0. -1.
        -11    1    3    3    0    0 -0.28438896813E+03  0.17930670639E+03  0.78015397243E+02  0.34512951533E+03  0.00000000000E+00 0.  1.
          4    1    6    6  502    0  0.30246167430E+03  0.31994278170E+02  0.79274569351E+02  0.31431060370E+03  0.00000000000E+00 0. -1.
          1    1    5    5  503    0 -0.56904148792E+02 -0.31321117595E+03  0.65446742249E+03  0.72778219956E+03  0.00000000000E+00 0. -1.
         -2    1    5    5    0  503 -0.21558965939E+02 -0.55222935491E+02  0.21605589762E+03  0.22404131876E+03  0.00000000000E+00 0.  1.
         -3    1    6    6    0  502  0.19965071310E+03 -0.31532950233E+01  0.11702076728E+03  0.23143943158E+03  0.00000000000E+00 0.  1.
<mgrwt>
<rscale>  0 0.16982061E+04</rscale>
<asrwt>0</asrwt>
<pdfrwt beam="1">  1        1 0.69034818E-01 0.16982061E+04</pdfrwt>
<pdfrwt beam="2">  1       -1 0.24718717E+00 0.16982061E+04</pdfrwt>
<totfact> 0.35590575E+00</totfact>
</mgrwt>
</event>
<event>
12    1  0.2797336E-007  0.2301628E+04  0.7818608E-02  0.8477279E-01
          1   -1    0    0  501    0  0.00000000000E+00  0.00000000000E+00  0.23875056783E+04  0.23875056783E+04  0.00000000000E+00 0. -1.
         -1   -1    0    0    0  501 -0.00000000000E+00 -0.00000000000E+00 -0.55470986968E+03  0.55470986968E+03  0.00000000000E+00 0.  1.
         23    2    1    2    0    0  0.76505575450E+03 -0.56180984825E+03  0.10469408732E+04  0.14161023293E+04  0.91214044730E+02 0.  0.
        254    2    1    2    0    0 -0.76505575450E+03  0.56180984825E+03  0.78585493537E+03  0.15261132187E+04  0.90028493470E+03 0.  0.
        -24    2    4    4    0    0 -0.90193760075E+03  0.44720464331E+03  0.85133022555E+03  0.13208961098E+04  0.80746215484E+02 0.  0.
         24    2    4    4    0    0  0.13688184625E+03  0.11460520494E+03 -0.65475290184E+02  0.20521710886E+03  0.77175483853E+02 0.  0.
         11    1    3    3    0    0  0.34626355525E+03 -0.25425155372E+03  0.54171140110E+03  0.69137077198E+03  0.00000000000E+00 0. -1.
        -11    1    3    3    0    0  0.41879219924E+03 -0.30755829454E+03  0.50522947215E+03  0.72473155734E+03  0.00000000000E+00 0.  1.
          4    1    6    6  502    0  0.89827354280E+02  0.43654263083E+02 -0.66654563542E+02  0.12007280751E+03  0.00000000000E+00 0. -1.
          3    1    5    5  503    0 -0.81974424730E+03  0.42345217684E+03  0.79955320372E+03  0.12208921749E+04  0.00000000000E+00 0. -1.
         -4    1    5    5    0  503 -0.82193353457E+02  0.23752466469E+02  0.51777021831E+02  0.10000393495E+03  0.00000000000E+00 0.  1.
         -3    1    6    6    0  502  0.47054491975E+02  0.70950941861E+02  0.11792733585E+01  0.85144301345E+02  0.00000000000E+00 0.  1.
<mgrwt>
<rscale>  0 0.23016281E+04</rscale>
<asrwt>0</asrwt>
<pdfrwt beam="1">  1        1 0.36730856E+00 0.23016281E+04</pdfrwt>
<pdfrwt beam="2">  1       -1 0.85339981E-01 0.23016281E+04</pdfrwt>
<totfact> 0.19874450E+00</totfact>
</mgrwt>
</event>
<event>
12    1  0.1960998E-007  0.1487738E+04  0.7818608E-02  0.8892648E-01
         -2   -1    0    0    0  501 -0.00000000000E+00  0.00000000000E+00  0.12533432123E+03  0.12533432123E+03  0.00000000000E+00 0.  1.
          2   -1    0    0  501    0  0.00000000000E+00 -0.00000000000E+00 -0.44149235974E+04  0.44149235974E+04  0.00000000000E+00 0. -1.
         23    2    1    2    0    0 -0.30680858886E+03  0.34263042285E+03 -0.11857395815E+04  0.12749534260E+04  0.89447003702E+02 0.  0.
        254    2    1    2    0    0  0.30680858886E+03 -0.34263042285E+03 -0.31038496947E+04  0.32653044926E+04  0.90377175527E+03 0.  0.
        -24    2    4    4    0    0  0.44206416457E+03 -0.51508465168E+03 -0.27994857608E+04  0.28816885517E+04  0.79217803423E+02 0.  0.
         24    2    4    4    0    0 -0.13525557571E+03  0.17245422882E+03 -0.30436393387E+03  0.38361594088E+03  0.80555906405E+02 0.  0.
         13    1    3    3    0    0 -0.17195304331E+03  0.13492851692E+03 -0.61957905077E+03  0.65700209584E+03  0.00000000000E+00 0. -1.
        -13    1    3    3    0    0 -0.13485554555E+03  0.20770190593E+03 -0.56616053073E+03  0.61795133016E+03  0.00000000000E+00 0.  1.
          2    1    6    6  502    0 -0.24483847368E+02  0.86361874429E+02 -0.15178240168E+03  0.17633981285E+03  0.00000000000E+00 0. -1.
          3    1    5    5  503    0  0.58813829058E+02 -0.11157808229E+03 -0.57141957005E+03  0.58517438424E+03  0.00000000000E+00 0. -1.
         -4    1    5    5    0  503  0.38325033551E+03 -0.40350656939E+03 -0.22280661907E+04  0.22965141675E+04  0.00000000000E+00 0.  1.
         -1    1    6    6    0  502 -0.11077172834E+03  0.86092354393E+02 -0.15258153220E+03  0.20727612803E+03  0.00000000000E+00 0.  1.
<mgrwt>
<rscale>  0 0.14877385E+04</rscale>
<asrwt>0</asrwt>
<pdfrwt beam="1">  1        2 0.67921891E+00 0.14877385E+04</pdfrwt>
<pdfrwt beam="2">  1       -2 0.19282206E-01 0.14877385E+04</pdfrwt>
<totfact> 0.33886361E+00</totfact>
</mgrwt>
</event>
<event>
12    1  0.1960998E-007  0.1163374E+04  0.7818608E-02  0.9145533E-01
         -1   -1    0    0    0  501 -0.00000000000E+00  0.00000000000E+00  0.13609013800E+03  0.13609013800E+03  0.00000000000E+00 0.  1.
          1   -1    0    0  501    0  0.00000000000E+00 -0.00000000000E+00 -0.24862930522E+04  0.24862930522E+04  0.00000000000E+00 0. -1.
         23    2    1    2    0    0 -0.11048637940E+03  0.18331444729E+03 -0.56386737553E+03  0.61001099455E+03  0.91408805214E+02 0.  0.
        254    2    1    2    0    0  0.11048637940E+03 -0.18331444729E+03 -0.17863355387E+04  0.20123721957E+04  0.90157405161E+03 0.  0.
        -24    2    4    4    0    0  0.49164596661E+03 -0.20052040813E+03 -0.10071870938E+04  0.11413698686E+04  0.79844502290E+02 0.  0.
         24    2    4    4    0    0 -0.38115958721E+03  0.17205960836E+02 -0.77914844491E+03  0.87100232706E+03  0.77421434574E+02 0.  0.
         11    1    3    3    0    0 -0.95042849762E+02  0.71749905323E+02 -0.26113954377E+03  0.28701054602E+03  0.00000000000E+00 0. -1.
        -11    1    3    3    0    0 -0.15443529634E+02  0.11156454197E+03 -0.30272783176E+03  0.32300044853E+03  0.00000000000E+00 0.  1.
          4    1    6    6  502    0 -0.31957193884E+03  0.22555132687E+02 -0.58148624360E+03  0.66389849344E+03  0.00000000000E+00 0. -1.
          3    1    5    5  503    0  0.39517243465E+03 -0.13204599828E+03 -0.74166385016E+03  0.85068364590E+03  0.00000000000E+00 0. -1.
         -4    1    5    5    0  503  0.96473531954E+02 -0.68474409844E+02 -0.26552324364E+03  0.29068622273E+03  0.00000000000E+00 0.  1.
         -3    1    6    6    0  502 -0.61587648369E+02 -0.53491718503E+01 -0.19766220132E+03  0.20710383362E+03  0.00000000000E+00 0.  1.
<mgrwt>
<rscale>  0 0.11633743E+04</rscale>
<asrwt>0</asrwt>
<pdfrwt beam="1">  1        1 0.38250661E+00 0.11633743E+04</pdfrwt>
<pdfrwt beam="2">  1       -1 0.20936945E-01 0.11633743E+04</pdfrwt>
<totfact> 0.26206790E+01</totfact>
</mgrwt>
</event>
<event>
12    1  0.1960998E-007  0.1813696E+04  0.7818608E-02  0.8699050E-01
         -1   -1    0    0    0  501 -0.00000000000E+00  0.00000000000E+00  0.56744892489E+03  0.56744892489E+03  0.00000000000E+00 0.  1.
          1   -1    0    0  501    0  0.00000000000E+00 -0.00000000000E+00 -0.14492455959E+04  0.14492455959E+04  0.00000000000E+00 0. -1.
         23    2    1    2    0    0 -0.24543872550E+03 -0.21944556154E+03 -0.99452650888E+03  0.10515735286E+04  0.91254515960E+02 0.  0.
        254    2    1    2    0    0  0.24543872550E+03  0.21944556154E+03  0.11272983789E+03  0.96512099220E+03  0.90019664006E+03 0.  0.
        -24    2    4    4    0    0  0.53581429493E+03  0.33321763622E+03  0.88602470567E+02  0.64219260604E+03  0.80187241594E+02 0.  0.
         24    2    4    4    0    0 -0.29037556943E+03 -0.11377207469E+03  0.24127367319E+02  0.32292838616E+03  0.80240615880E+02 0.  0.
         13    1    3    3    0    0 -0.78632704901E+02 -0.31432330517E+02 -0.17574980056E+03  0.19508738062E+03  0.00000000000E+00 0.  1.
        -13    1    3    3    0    0 -0.16680602060E+03 -0.18801323102E+03 -0.81877670832E+03  0.85648614795E+03  0.00000000000E+00 0. -1.
          2    1    6    6  502    0 -0.18990976593E+03 -0.42298460955E+02 -0.10549065348E+02  0.19484907435E+03  0.00000000000E+00 0. -1.
          1    1    5    5  503    0  0.40888243377E+03  0.21222994140E+03  0.66125958443E+02  0.46540201445E+03  0.00000000000E+00 0. -1.
         -2    1    5    5    0  503  0.12693186116E+03  0.12098769483E+03  0.22476512124E+02  0.17679059159E+03  0.00000000000E+00 0.  1.
         -1    1    6    6    0  502 -0.10046580350E+03 -0.71473613731E+02  0.34676432667E+02  0.12807931181E+03  0.00000000000E+00 0.  1.
<mgrwt>
<rscale>  0 0.18136955E+04</rscale>
<asrwt>0</asrwt>
<pdfrwt beam="1">  1        1 0.22296086E+00 0.18136955E+04</pdfrwt>
<pdfrwt beam="2">  1       -1 0.87299835E-01 0.18136955E+04</pdfrwt>
<totfact> 0.86385344E+00</totfact>
</mgrwt>
</event>
<event>
12    1  0.1960998E-007  0.1227744E+04  0.7818608E-02  0.9088913E-01
          2   -1    0    0  501    0  0.00000000000E+00  0.00000000000E+00  0.10388435622E+04  0.10388435622E+04  0.00000000000E+00 0. -1.
         -2   -1    0    0    0  501 -0.00000000000E+00 -0.00000000000E+00 -0.36274864380E+03  0.36274864380E+03  0.00000000000E+00 0.  1.
         23    2    1    2    0    0 -0.12330755614E+03 -0.20099175549E+03  0.31397970800E+03  0.40305941096E+03  0.90946096995E+02 0.  0.
        254    2    1    2    0    0  0.12330755614E+03  0.20099175549E+03  0.36211521037E+03  0.99853279501E+03  0.90018769041E+03 0.  0.
        -24    2    4    4    0    0  0.25660838791E+03 -0.23919430846E+03 -0.65430461534E+02  0.36515057424E+03  0.77408104427E+02 0.  0.
         24    2    4    4    0    0 -0.13330083177E+03  0.44018606395E+03  0.42754567190E+03  0.63338222077E+03  0.82733629063E+02 0.  0.
         13    1    3    3    0    0 -0.12579949858E+03 -0.19247578359E+03  0.25478074923E+03  0.34319917146E+03  0.00000000000E+00 0.  1.
        -13    1    3    3    0    0  0.24919424441E+01 -0.85159718961E+01  0.59198958767E+02  0.59860239505E+02  0.00000000000E+00 0. -1.
          4    1    6    6  502    0 -0.13640969612E+03  0.33412454578E+03  0.32066611592E+03  0.48277694144E+03  0.00000000000E+00 0. -1.
          3    1    5    5  503    0  0.16462753254E+03 -0.11406747980E+03 -0.10980970415E+02  0.20058463583E+03  0.00000000000E+00 0. -1.
         -4    1    5    5    0  503  0.91980855366E+02 -0.12512682866E+03 -0.54449491119E+02  0.16456593842E+03  0.00000000000E+00 0.  1.
         -3    1    6    6    0  502  0.31088643543E+01  0.10606151816E+03  0.10687955599E+03  0.15060527932E+03  0.00000000000E+00 0.  1.
<mgrwt>
<rscale>  0 0.12277444E+04</rscale>
<asrwt>0</asrwt>
<pdfrwt beam="1">  1        2 0.15982208E+00 0.12277444E+04</pdfrwt>
<pdfrwt beam="2">  1       -2 0.55807484E-01 0.12277444E+04</pdfrwt>
<totfact> 0.70672475E+01</totfact>
</mgrwt>
</event>
<event>
12    1  0.1960998E-007  0.1880454E+04  0.7818608E-02  0.8664647E-01
          2   -1    0    0  501    0  0.00000000000E+00  0.00000000000E+00  0.15383488777E+04  0.15383488777E+04  0.00000000000E+00 0. -1.
         -2   -1    0    0    0  501 -0.00000000000E+00 -0.00000000000E+00 -0.57465963769E+03  0.57465963769E+03  0.00000000000E+00 0.  1.
         23    2    1    2    0    0 -0.57509829182E+03 -0.25791821564E+03 -0.21137166559E+02  0.63720084013E+03  0.91204603202E+02 0.  0.
        254    2    1    2    0    0  0.57509829182E+03  0.25791821564E+03  0.98482640658E+03  0.14758076753E+04  0.90048064502E+03 0.  0.
        -24    2    4    4    0    0  0.35666060361E+03  0.53418922959E+03  0.89371879766E+03  0.11035946739E+04  0.81381789754E+02 0.  0.
         24    2    4    4    0    0  0.21843768821E+03 -0.27627101395E+03  0.91107608923E+02  0.37221300141E+03  0.78747858617E+02 0.  0.
         11    1    3    3    0    0 -0.33580862643E+03 -0.10091138524E+03 -0.13090778955E+02  0.35088731774E+03  0.00000000000E+00 0.  1.
        -11    1    3    3    0    0 -0.23928966539E+03 -0.15700683039E+03 -0.80463876036E+01  0.28631352239E+03  0.00000000000E+00 0. -1.
          4    1    6    6  502    0  0.17895525354E+03 -0.22338884791E+03  0.40571724522E+02  0.28909103233E+03  0.00000000000E+00 0. -1.
          1    1    5    5  503    0  0.33180665558E+03  0.51747841032E+03  0.82680742336E+03  0.10302864054E+04  0.00000000000E+00 0. -1.
         -2    1    5    5    0  503  0.24853948024E+02  0.16710819268E+02  0.66911374303E+02  0.73308268456E+02  0.00000000000E+00 0.  1.
         -3    1    6    6    0  502  0.39482434669E+02 -0.52882166037E+02  0.50535884401E+02  0.83121969084E+02  0.00000000000E+00 0.  1.
<mgrwt>
<rscale>  0 0.18804542E+04</rscale>
<asrwt>0</asrwt>
<pdfrwt beam="1">  1        2 0.23666906E+00 0.18804542E+04</pdfrwt>
<pdfrwt beam="2">  1       -2 0.88409175E-01 0.18804542E+04</pdfrwt>
<totfact> 0.12474894E+01</totfact>
</mgrwt>
</event>
<event>
12    1  0.1960998E-007  0.2069901E+04  0.7818608E-02  0.8574619E-01
          1   -1    0    0  501    0  0.00000000000E+00  0.00000000000E+00  0.11300994748E+04  0.11300994748E+04  0.00000000000E+00 0. -1.
         -1   -1    0    0    0  501 -0.00000000000E+00 -0.00000000000E+00 -0.94781230921E+03  0.94781230921E+03  0.00000000000E+00 0.  1.
         23    2    1    2    0    0  0.47741208534E+03  0.77200740336E+01 -0.61479009030E+03  0.78421547934E+03  0.95106067798E+02 0.  0.
        254    2    1    2    0    0 -0.47741208534E+03 -0.77200740336E+01  0.79707725584E+03  0.12936963046E+04  0.90018669067E+03 0.  0.
        -24    2    4    4    0    0 -0.44489337873E+03  0.25295377203E+03  0.77194246099E+02  0.52319972023E+03  0.76571968687E+02 0.  0.
         24    2    4    4    0    0 -0.32518706611E+02 -0.26067384607E+03  0.71988300974E+03  0.77049658441E+03  0.80156837283E+02 0.  0.
         11    1    3    3    0    0  0.20658717901E+03 -0.42200626180E+02 -0.28620476506E+03  0.35548885063E+03  0.00000000000E+00 0. -1.
        -11    1    3    3    0    0  0.27082490634E+03  0.49920700213E+02 -0.32858532524E+03  0.42872662871E+03  0.00000000000E+00 0.  1.
          2    1    6    6  502    0 -0.51144320969E+02 -0.16111110192E+03  0.51333749220E+03  0.54045157935E+03  0.00000000000E+00 0. -1.
          1    1    5    5  503    0 -0.18942702675E+03  0.12579262015E+03 -0.71270838542E+00  0.22739148995E+03  0.00000000000E+00 0. -1.
         -2    1    5    5    0  503 -0.25546635198E+03  0.12716115188E+03  0.77906954485E+02  0.29580823028E+03  0.00000000000E+00 0.  1.
         -3    1    6    6    0  502  0.18625614357E+02 -0.99562744147E+02  0.20654551754E+03  0.23004500505E+03  0.00000000000E+00 0.  1.
<mgrwt>
<rscale>  0 0.20699007E+04</rscale>
<asrwt>0</asrwt>
<pdfrwt beam="1">  1        1 0.17386146E+00 0.20699007E+04</pdfrwt>
<pdfrwt beam="2">  1       -1 0.14581728E+00 0.20699007E+04</pdfrwt>
<totfact> 0.41777960E+00</totfact>
</mgrwt>
</event>
<event>
12    1  0.1960998E-007  0.3005246E+04  0.7818608E-02  0.8242234E-01
         -1   -1    0    0    0  501 -0.00000000000E+00  0.00000000000E+00  0.73348058585E+03  0.73348058585E+03  0.00000000000E+00 0. -1.
          1   -1    0    0  501    0  0.00000000000E+00 -0.00000000000E+00 -0.30783033272E+04  0.30783033272E+04  0.00000000000E+00 0.  1.
         23    2    1    2    0    0  0.25339630710E+03  0.98627415212E+03 -0.22342247083E+04  0.24569358121E+04  0.88471159384E+02 0.  0.
        254    2    1    2    0    0 -0.25339630710E+03 -0.98627415212E+03 -0.11059803305E+03  0.13548481010E+04  0.88681173884E+03 0.  0.
        -24    2    4    4    0    0 -0.31047243552E+03 -0.59156264177E+02  0.18727932878E+03  0.37661054281E+03  0.82881585146E+02 0.  0.
         24    2    4    4    0    0  0.57076128420E+02 -0.92711788794E+03 -0.29787736184E+03  0.97823755814E+03  0.73569931938E+02 0.  0.
         11    1    3    3    0    0  0.79938461455E+02  0.48881913756E+03 -0.10827983320E+04  0.11907084172E+04  0.00000000000E+00 0.  1.
        -11    1    3    3    0    0  0.17345784565E+03  0.49745501456E+03 -0.11514263763E+04  0.12662273950E+04  0.00000000000E+00 0. -1.
          4    1    6    6  502    0  0.31508542008E+02 -0.15548585374E+03 -0.68727210774E+02  0.17289322842E+03  0.00000000000E+00 0. -1.
          3    1    5    5  503    0 -0.12520755687E+02 -0.14631415355E+02  0.32842292472E+02  0.38071824400E+02  0.00000000000E+00 0. -1.
         -4    1    5    5    0  503 -0.29795167983E+03 -0.44524848822E+02  0.15443703631E+03  0.33853871841E+03  0.00000000000E+00 0.  1.
         -3    1    6    6    0  502  0.25567586411E+02 -0.77163203420E+03 -0.22915015107E+03  0.80534432972E+03  0.00000000000E+00 0.  1.
<mgrwt>
<rscale>  0 0.30052459E+04</rscale>
<asrwt>0</asrwt>
<pdfrwt beam="1">  1        1 0.47358513E+00 0.30052459E+04</pdfrwt>
<pdfrwt beam="2">  1       -1 0.11284317E+00 0.30052459E+04</pdfrwt>
<totfact> 0.31968597E-01</totfact>
</mgrwt>
</event>
<event>
12    1  0.1960998E-007  0.1801668E+04  0.7818608E-02  0.8705413E-01
         -2   -1    0    0    0  501 -0.00000000000E+00  0.00000000000E+00  0.62937422126E+03  0.62937422126E+03  0.00000000000E+00 0.  1.
          2   -1    0    0  501    0  0.00000000000E+00 -0.00000000000E+00 -0.12893782894E+04  0.12893782894E+04  0.00000000000E+00 0. -1.
         23    2    1    2    0    0  0.59406029910E+03  0.24182730503E+03 -0.36252076983E+02  0.64863304727E+03  0.89568591035E+02 0.  0.
        254    2    1    2    0    0 -0.59406029910E+03 -0.24182730503E+03 -0.62375199112E+03  0.12701194634E+04  0.90152582901E+03 0.  0.
        -24    2    4    4    0    0 -0.50885009734E+03  0.25771484116E+03 -0.43941011148E+03  0.72444152660E+03  0.79930710446E+02 0.  0.
         24    2    4    4    0    0 -0.85210201754E+02 -0.49954214619E+03 -0.18434187964E+03  0.54567793676E+03  0.83542490865E+02 0.  0.
         11    1    3    3    0    0  0.29967753608E+03  0.12207820979E+03  0.26566226838E+02  0.32467750052E+03  0.00000000000E+00 0. -1.
        -11    1    3    3    0    0  0.29438276302E+03  0.11974909524E+03 -0.62818303821E+02  0.32395554675E+03  0.00000000000E+00 0.  1.
          2    1    6    6  502    0 -0.79981904835E+02 -0.23904487800E+03 -0.73830786872E+02  0.26266051072E+03  0.00000000000E+00 0. -1.
          3    1    5    5  503    0 -0.30729885591E+03  0.16998428169E+03 -0.31559838819E+03  0.47215419674E+03  0.00000000000E+00 0. -1.
         -4    1    5    5    0  503 -0.20155124143E+03  0.87730559462E+02 -0.12381172330E+03  0.25228732987E+03  0.00000000000E+00 0.  1.
         -1    1    6    6    0  502 -0.52282969185E+01 -0.26049726818E+03 -0.11051109276E+03  0.28301742604E+03  0.00000000000E+00 0.  1.
<mgrwt>
<rscale>  0 0.18016675E+04</rscale>
<asrwt>0</asrwt>
<pdfrwt beam="1">  1        2 0.19836589E+00 0.18016675E+04</pdfrwt>
<pdfrwt beam="2">  1       -2 0.96826805E-01 0.18016675E+04</pdfrwt>
<totfact> 0.14110974E+01</totfact>
</mgrwt>
</event>
<event>
12    1  0.1960998E-007  0.1274999E+04  0.7818608E-02  0.9049629E-01
          1   -1    0    0  501    0  0.00000000000E+00  0.00000000000E+00  0.15913987329E+04  0.15913987329E+04  0.00000000000E+00 0. -1.
         -1   -1    0    0    0  501 -0.00000000000E+00 -0.00000000000E+00 -0.25537640010E+03  0.25537640010E+03  0.00000000000E+00 0.  1.
         23    2    1    2    0    0 -0.16003138886E+03 -0.25617682283E+03  0.24702959260E+03  0.40265249732E+03  0.99341854236E+02 0.  0.
        254    2    1    2    0    0  0.16003138886E+03  0.25617682283E+03  0.10889927402E+04  0.14441226356E+04  0.89908196993E+03 0.  0.
        -24    2    4    4    0    0  0.34216179694E+03 -0.72865369508E+02  0.98064055838E+03  0.10443890628E+04  0.81905753173E+02 0.  0.
         24    2    4    4    0    0 -0.18213040808E+03  0.32904219234E+03  0.10835218180E+03  0.39973357285E+03  0.81280280941E+02 0.  0.
         11    1    3    3    0    0 -0.85758693839E+01 -0.36099806802E+02 -0.23649798372E+01  0.37179762189E+02  0.00000000000E+00 0.  1.
        -11    1    3    3    0    0 -0.15145551947E+03 -0.22007701603E+03  0.24939457244E+03  0.36547273513E+03  0.00000000000E+00 0. -1.
          2    1    6    6  502    0 -0.14856968194E+03  0.22230410057E+03  0.44959707394E+02  0.27113361800E+03  0.00000000000E+00 0. -1.
          3    1    5    5  503    0  0.20112859361E+03 -0.55602787158E+02  0.69022068764E+03  0.72107487736E+03  0.00000000000E+00 0. -1.
         -4    1    5    5    0  503  0.14103320332E+03 -0.17262582350E+02  0.29041987073E+03  0.32331418544E+03  0.00000000000E+00 0.  1.
         -1    1    6    6    0  502 -0.33560726137E+02  0.10673809178E+03  0.63392474403E+02  0.12859995484E+03  0.00000000000E+00 0.  1.
<mgrwt>
<rscale>  0 0.12749991E+04</rscale>
<asrwt>0</asrwt>
<pdfrwt beam="1">  1        1 0.24483057E+00 0.12749991E+04</pdfrwt>
<pdfrwt beam="2">  1       -1 0.39288678E-01 0.12749991E+04</pdfrwt>
<totfact> 0.35046006E+01</totfact>
</mgrwt>
</event>
<event>
12    1  0.1960998E-007  0.2809643E+04  0.7818608E-02  0.8300281E-01
          2   -1    0    0  501    0  0.00000000000E+00  0.00000000000E+00  0.19547584652E+04  0.19547584652E+04  0.00000000000E+00 0. -1.
         -2   -1    0    0    0  501 -0.00000000000E+00 -0.00000000000E+00 -0.10095993462E+04  0.10095993462E+04  0.00000000000E+00 0.  1.
         23    2    1    2    0    0 -0.57997868166E+03  0.65593118395E+03  0.13788111516E+04  0.16358515094E+04  0.90933930344E+02 0.  0.
        254    2    1    2    0    0  0.57997868166E+03 -0.65593118395E+03 -0.43365203252E+03  0.13285063021E+04  0.90014105567E+03 0.  0.
        -24    2    4    4    0    0  0.24079240369E+03 -0.82632345638E+03 -0.34618950940E+03  0.93118775556E+03  0.80448887099E+02 0.  0.
         24    2    4    4    0    0  0.33918627798E+03  0.17039227243E+03 -0.87462523124E+02  0.39731854653E+03  0.78303746999E+02 0.  0.
         13    1    3    3    0    0 -0.35375209793E+03  0.33302662593E+03  0.77687443001E+03  0.91628661475E+03  0.00000000000E+00 0. -1.
        -13    1    3    3    0    0 -0.22622658374E+03  0.32290455802E+03  0.60193672156E+03  0.71956489460E+03  0.00000000000E+00 0.  1.
          4    1    6    6  502    0  0.23540699364E+03  0.13099576117E+03 -0.26566423556E+02  0.27070669914E+03  0.00000000000E+00 0. -1.
          3    1    5    5  503    0  0.13565055920E+03 -0.47420420030E+03 -0.24095362238E+03  0.54893473741E+03  0.00000000000E+00 0. -1.
         -4    1    5    5    0  503  0.10514184448E+03 -0.35211925609E+03 -0.10523588702E+03  0.38225301815E+03  0.00000000000E+00 0.  1.
         -3    1    6    6    0  502  0.10377928434E+03  0.39396511262E+02 -0.60896099568E+02  0.12661184739E+03  0.00000000000E+00 0.  1.
<mgrwt>
<rscale>  0 0.28096426E+04</rscale>
<asrwt>0</asrwt>
<pdfrwt beam="1">  1        2 0.30073207E+00 0.28096426E+04</pdfrwt>
<pdfrwt beam="2">  1       -2 0.15532298E+00 0.28096426E+04</pdfrwt>
<totfact> 0.16805949E+00</totfact>
</mgrwt>
</event>
<event>
12    1  0.1960998E-007  0.1986013E+04  0.7818608E-02  0.8613188E-01
          2   -1    0    0  501    0  0.00000000000E+00  0.00000000000E+00  0.33324688868E+04  0.33324688868E+04  0.00000000000E+00 0. -1.
         -2   -1    0    0    0  501 -0.00000000000E+00 -0.00000000000E+00 -0.29589525236E+03  0.29589525236E+03  0.00000000000E+00 0.  1.
         23    2    1    2    0    0  0.29737899853E+03  0.72289922236E+03  0.10570053925E+04  0.13178793247E+04  0.92346955836E+02 0.  0.
        254    2    1    2    0    0 -0.29737899853E+03 -0.72289922236E+03  0.19795682420E+04  0.23104848145E+04  0.89923973377E+03 0.  0.
        -24    2    4    4    0    0 -0.29910726883E+02  0.11348287685E+03 -0.13043670860E+01  0.14225506424E+03  0.80385241233E+02 0.  0.
         24    2    4    4    0    0 -0.26746827164E+03 -0.83638209921E+03  0.19808726090E+04  0.21682297502E+04  0.79307403442E+02 0.  0.
         11    1    3    3    0    0  0.81144700424E+02  0.27648000964E+03  0.33456942909E+03  0.44154542351E+03  0.00000000000E+00 0.  1.
        -11    1    3    3    0    0  0.21623429810E+03  0.44641921273E+03  0.72243596337E+03  0.87633390117E+03  0.00000000000E+00 0. -1.
          2    1    6    6  502    0 -0.22888872248E+03 -0.73624443185E+03  0.16708344299E+04  0.18401449951E+04  0.00000000000E+00 0. -1.
          3    1    5    5  503    0 -0.40372476843E+01  0.87455416688E+02 -0.33199854607E+02  0.93632150583E+02  0.00000000000E+00 0. -1.
         -4    1    5    5    0  503 -0.25873479199E+02  0.26027460159E+02  0.31895487521E+02  0.48622913656E+02  0.00000000000E+00 0.  1.
         -1    1    6    6    0  502 -0.38579549169E+02 -0.10013766736E+03  0.31003817912E+03  0.32808475513E+03  0.00000000000E+00 0.  1.
<mgrwt>
<rscale>  0 0.19860128E+04</rscale>
<asrwt>0</asrwt>
<pdfrwt beam="1">  1        2 0.51268749E+00 0.19860128E+04</pdfrwt>
<pdfrwt beam="2">  1       -2 0.45522349E-01 0.19860128E+04</pdfrwt>
<totfact> 0.45295658E+00</totfact>
</mgrwt>
</event>
<event>
12    1  0.1960998E-007  0.1686370E+04  0.7818608E-02  0.8769177E-01
         -2   -1    0    0    0  501 -0.00000000000E+00  0.00000000000E+00  0.29894522314E+03  0.29894522314E+03  0.00000000000E+00 0. -1.
          2   -1    0    0  501    0  0.00000000000E+00 -0.00000000000E+00 -0.23782308845E+04  0.23782308845E+04  0.00000000000E+00 0.  1.
         23    2    1    2    0    0  0.15150340284E+03  0.55506333145E+03 -0.47919966805E+03  0.75420776382E+03  0.90268744055E+02 0.  0.
        254    2    1    2    0    0 -0.15150340284E+03 -0.55506333145E+03 -0.16000859933E+04  0.19229683438E+04  0.89804425411E+03 0.  0.
        -24    2    4    4    0    0  0.96830697690E+02  0.18098763861E+03 -0.68662027661E+03  0.72100407491E+03  0.79162885541E+02 0.  0.
         24    2    4    4    0    0 -0.24833410053E+03 -0.73605097006E+03 -0.91346571667E+03  0.12019642689E+04  0.82810821247E+02 0.  0.
         13    1    3    3    0    0  0.72541334863E+02  0.30620147404E+03 -0.20485097860E+03  0.37548037419E+03  0.00000000000E+00 0. -1.
        -13    1    3    3    0    0  0.78962067976E+02  0.24886185741E+03 -0.27434868945E+03  0.37872738963E+03  0.00000000000E+00 0.  1.
          4    1    6    6  502    0 -0.22230985100E+03 -0.55073947009E+03 -0.70522703374E+03  0.92199826620E+03  0.00000000000E+00 0. -1.
          3    1    5    5  503    0  0.93299162766E+02  0.10598756568E+03 -0.50765456756E+03  0.52692623565E+03  0.00000000000E+00 0. -1.
         -4    1    5    5    0  503  0.35315349239E+01  0.75000072924E+02 -0.17896570905E+03  0.19407783927E+03  0.00000000000E+00 0.  1.
         -3    1    6    6    0  502 -0.26024249533E+02 -0.18531149997E+03 -0.20823868293E+03  0.27996600268E+03  0.00000000000E+00 0.  1.
<mgrwt>
<rscale>  0 0.16863698E+04</rscale>
<asrwt>0</asrwt>
<pdfrwt beam="1">  1        2 0.36588166E+00 0.16863698E+04</pdfrwt>
<pdfrwt beam="2">  1       -2 0.45991574E-01 0.16863698E+04</pdfrwt>
<totfact> 0.17490460E+01</totfact>
</mgrwt>
</event>
<event>
12    1  0.1960998E-007  0.1340875E+04  0.7818608E-02  0.8997764E-01
          1   -1    0    0  501    0  0.00000000000E+00  0.00000000000E+00  0.91651865974E+03  0.91651865974E+03  0.00000000000E+00 0. -1.
         -1   -1    0    0    0  501 -0.00000000000E+00 -0.00000000000E+00 -0.49042827014E+03  0.49042827014E+03  0.00000000000E+00 0.  1.
         23    2    1    2    0    0  0.28231974147E+03  0.21469813755E+03  0.19209939808E+03  0.41211798048E+03  0.84494522899E+02 0.  0.
        254    2    1    2    0    0 -0.28231974147E+03 -0.21469813755E+03  0.23399099152E+03  0.99482894940E+03  0.89951827539E+03 0.  0.
        -24    2    4    4    0    0 -0.14273181994E+03 -0.47359964483E+03 -0.13290971881E+03  0.51766718887E+03  0.75135404885E+02 0.  0.
         24    2    4    4    0    0 -0.13958792153E+03  0.25890150728E+03  0.36690071034E+03  0.47716176053E+03  0.80947119520E+02 0.  0.
         11    1    3    3    0    0  0.16199782513E+03  0.13467336531E+03  0.15883564907E+03  0.26383512671E+03  0.00000000000E+00 0. -1.
        -11    1    3    3    0    0  0.12032191634E+03  0.80024772242E+02  0.33263749015E+02  0.14828285377E+03  0.00000000000E+00 0.  1.
          4    1    6    6  502    0 -0.13511661954E+03  0.21478886922E+03  0.34339188348E+03  0.42697628138E+03  0.00000000000E+00 0. -1.
          3    1    5    5  503    0 -0.13390431815E+03 -0.32573142945E+03 -0.94214368321E+02  0.36456505283E+03  0.00000000000E+00 0. -1.
         -4    1    5    5    0  503 -0.88275017904E+01 -0.14786821538E+03 -0.38695350493E+02  0.15310213603E+03  0.00000000000E+00 0.  1.
         -3    1    6    6    0  502 -0.44713019984E+01  0.44112638059E+02  0.23508826854E+02  0.50185479156E+02  0.00000000000E+00 0.  1.
<mgrwt>
<rscale>  0 0.13408753E+04</rscale>
<asrwt>0</asrwt>
<pdfrwt beam="1">  1        1 0.14100287E+00 0.13408753E+04</pdfrwt>
<pdfrwt beam="2">  1       -1 0.75450503E-01 0.13408753E+04</pdfrwt>
<totfact> 0.30514096E+01</totfact>
</mgrwt>
</event>
<event>
12    1  0.1960998E-007  0.3035573E+04  0.7818608E-02  0.8233645E-01
         -1   -1    0    0    0  501 -0.00000000000E+00  0.00000000000E+00  0.12370466023E+04  0.12370466023E+04  0.00000000000E+00 0.  1.
          1   -1    0    0  501    0  0.00000000000E+00 -0.00000000000E+00 -0.18622384804E+04  0.18622384804E+04  0.00000000000E+00 0. -1.
         23    2    1    2    0    0 -0.51092344258E+02  0.11681698791E+04 -0.10392257150E+04  0.15669678442E+04  0.90370592603E+02 0.  0.
        254    2    1    2    0    0  0.51092344258E+02 -0.11681698791E+04  0.41403383683E+03  0.15323172385E+04  0.89963370727E+03 0.  0.
        -24    2    4    4    0    0  0.27407137739E+03 -0.96387656297E+03 -0.98807352263E+01  0.10054591078E+04  0.81714380634E+02 0.  0.
         24    2    4    4    0    0 -0.22297903314E+03 -0.20429331613E+03  0.42391457206E+03  0.52685813068E+03  0.80128130056E+02 0.  0.
         13    1    3    3    0    0 -0.47415768900E+02  0.82496131592E+03 -0.78595510299E+03  0.11404099490E+04  0.00000000000E+00 0. -1.
        -13    1    3    3    0    0 -0.36765753575E+01  0.34320856318E+03 -0.25327061202E+03  0.42655789520E+03  0.00000000000E+00 0.  1.
          2    1    6    6  502    0 -0.48704875648E+01 -0.33290595081E+02  0.29142202257E+02  0.44511271858E+02  0.00000000000E+00 0. -1.
          3    1    5    5  503    0  0.31772227891E+02 -0.54313038490E+02 -0.12594528092E+02  0.64171666279E+02  0.00000000000E+00 0. -1.
         -4    1    5    5    0  503  0.24229914950E+03 -0.90956352448E+03  0.27137928654E+01  0.94128744153E+03  0.00000000000E+00 0.  1.
         -1    1    6    6    0  502 -0.21810854557E+03 -0.17100272105E+03  0.39477236980E+03  0.48234685882E+03  0.00000000000E+00 0.  1.
<mgrwt>
<rscale>  0 0.30355730E+04</rscale>
<asrwt>0</asrwt>
<pdfrwt beam="1">  1        1 0.28649823E+00 0.30355730E+04</pdfrwt>
<pdfrwt beam="2">  1       -1 0.19031486E+00 0.30355730E+04</pdfrwt>
<totfact> 0.55132858E-01</totfact>
</mgrwt>
</event>
<event>
12    1  0.1960998E-007  0.1752609E+04  0.7818608E-02  0.8731916E-01
          2   -1    0    0  501    0  0.00000000000E+00  0.00000000000E+00  0.15945949572E+04  0.15945949572E+04  0.00000000000E+00 0. -1.
         -2   -1    0    0    0  501 -0.00000000000E+00 -0.00000000000E+00 -0.48157020380E+03  0.48157020380E+03  0.00000000000E+00 0.  1.
         23    2    1    2    0    0 -0.27393047015E+03  0.43950661486E+03 -0.36067791619E+02  0.52699398033E+03  0.90652097185E+02 0.  0.
        254    2    1    2    0    0  0.27393047015E+03 -0.43950661486E+03  0.11490925450E+04  0.15491711806E+04  0.90072953931E+03 0.  0.
        -24    2    4    4    0    0 -0.16994443669E+03 -0.51450257647E+03  0.42725225152E+03  0.69466094475E+03  0.80095748815E+02 0.  0.
         24    2    4    4    0    0  0.44387490684E+03  0.74995961607E+02  0.72184029347E+03  0.85451023589E+03  0.80529539755E+02 0.  0.
         13    1    3    3    0    0 -0.14059993708E+03  0.19108037423E+03 -0.57925455004E+02  0.24420362418E+03  0.00000000000E+00 0.  1.
        -13    1    3    3    0    0 -0.13333053307E+03  0.24842624063E+03  0.21857663385E+02  0.28279035615E+03  0.00000000000E+00 0. -1.
          2    1    6    6  502    0  0.65985239309E+02 -0.25210593601E+01  0.15895451235E+03  0.17212479352E+03  0.00000000000E+00 0. -1.
          3    1    5    5  503    0  0.36099322444E+01 -0.30918858526E+00  0.83399077091E+01  0.90929241164E+01  0.00000000000E+00 0. -1.
         -4    1    5    5    0  503 -0.17355436894E+03 -0.51419338789E+03  0.41891234381E+03  0.68556802064E+03  0.00000000000E+00 0.  1.
         -1    1    6    6    0  502  0.37788966753E+03  0.77517020968E+02  0.56288578113E+03  0.68238544237E+03  0.00000000000E+00 0.  1.
<mgrwt>
<rscale>  0 0.17526088E+04</rscale>
<asrwt>0</asrwt>
<pdfrwt beam="1">  1        2 0.24532230E+00 0.17526088E+04</pdfrwt>
<pdfrwt beam="2">  1       -2 0.74087725E-01 0.17526088E+04</pdfrwt>
<totfact> 0.17458827E+01</totfact>
</mgrwt>
</event>
<event>
12    1  0.1960998E-007  0.1709969E+04  0.7818608E-02  0.8755699E-01
         -2   -1    0    0    0  501 -0.00000000000E+00  0.00000000000E+00  0.32566194457E+03  0.32566194457E+03  0.00000000000E+00 0.  1.
          2   -1    0    0  501    0  0.00000000000E+00 -0.00000000000E+00 -0.22446554142E+04  0.22446554142E+04  0.00000000000E+00 0. -1.
         23    2    1    2    0    0 -0.16690865922E+03 -0.54344684328E+03 -0.10493603492E+04  0.11969563513E+04  0.91402365183E+02 0.  0.
        254    2    1    2    0    0  0.16690865922E+03  0.54344684328E+03 -0.86963312044E+03  0.13733610075E+04  0.89814571245E+03 0.  0.
        -24    2    4    4    0    0 -0.25714988305E+03  0.22186092193E+03 -0.74301136330E+03  0.82083280732E+03  0.79701195430E+02 0.  0.
         24    2    4    4    0    0  0.42405854226E+03  0.32158592134E+03 -0.12662175715E+03  0.55252820019E+03  0.77531867996E+02 0.  0.
         13    1    3    3    0    0 -0.10936393081E+03 -0.38464839967E+03 -0.64735237499E+03  0.76090732559E+03  0.00000000000E+00 0.  1.
        -13    1    3    3    0    0 -0.57544728403E+02 -0.15879844360E+03 -0.40200797422E+03  0.43604902567E+03  0.00000000000E+00 0. -1.
          2    1    6    6  502    0  0.69680367906E+02  0.20851248396E+02 -0.10814717984E+02  0.73532893022E+02  0.00000000000E+00 0. -1.
          3    1    5    5  503    0 -0.18378633597E+03  0.19155483742E+03 -0.61991755991E+03  0.67436522309E+03  0.00000000000E+00 0. -1.
         -4    1    5    5    0  503 -0.73363547074E+02  0.30306084515E+02 -0.12309380338E+03  0.14646758423E+03  0.00000000000E+00 0.  1.
         -1    1    6    6    0  502  0.35437817436E+03  0.30073467295E+03 -0.11580703916E+03  0.47899530717E+03  0.00000000000E+00 0.  1.
<mgrwt>
<rscale>  0 0.17099694E+04</rscale>
<asrwt>0</asrwt>
<pdfrwt beam="1">  1        2 0.34533161E+00 0.17099694E+04</pdfrwt>
<pdfrwt beam="2">  1       -2 0.50101836E-01 0.17099694E+04</pdfrwt>
<totfact> 0.17471202E+01</totfact>
</mgrwt>
</event>
<event>
12    1  0.1960998E-007  0.1783808E+04  0.7818608E-02  0.8714958E-01
         -2   -1    0    0    0  501 -0.00000000000E+00  0.00000000000E+00  0.44675841654E+03  0.44675841654E+03  0.00000000000E+00 0.  1.
          2   -1    0    0  501    0  0.00000000000E+00 -0.00000000000E+00 -0.17805885341E+04  0.17805885341E+04  0.00000000000E+00 0. -1.
         23    2    1    2    0    0  0.42631640937E+03  0.11652927322E+03  0.11382256837E+03  0.46589421616E+03  0.93686131154E+02 0.  0.
        254    2    1    2    0    0 -0.42631640937E+03 -0.11652927322E+03 -0.14476526860E+04  0.17614527345E+04  0.90093988942E+03 0.  0.
        -24    2    4    4    0    0 -0.55428568094E+03 -0.11586663963E+03 -0.38795824617E+03  0.69101280013E+03  0.79557494271E+02 0.  0.
         24    2    4    4    0    0  0.12796927158E+03 -0.66263359326E+00 -0.10596944398E+04  0.10704399344E+04  0.80701758704E+02 0.  0.
         11    1    3    3    0    0  0.37331341331E+03  0.12217581375E+03  0.12342684265E+03  0.41173294683E+03  0.00000000000E+00 0.  1.
        -11    1    3    3    0    0  0.53002996061E+02 -0.56465405268E+01 -0.96042742781E+01  0.54161269333E+02  0.00000000000E+00 0. -1.
          2    1    6    6  502    0  0.52610648561E+02  0.94417402700E+01 -0.18843847366E+03  0.19587262482E+03  0.00000000000E+00 0. -1.
          3    1    5    5  503    0 -0.19699693378E+03 -0.56414131880E+02 -0.18361465712E+03  0.27514485004E+03  0.00000000000E+00 0. -1.
         -4    1    5    5    0  503 -0.35728874716E+03 -0.59452507747E+02 -0.20434358906E+03  0.41586795009E+03  0.00000000000E+00 0.  1.
         -1    1    6    6    0  502  0.75358623015E+02 -0.10104373863E+02 -0.87125596613E+03  0.87456730956E+03  0.00000000000E+00 0.  1.
<mgrwt>
<rscale>  0 0.17838082E+04</rscale>
<asrwt>0</asrwt>
<pdfrwt beam="1">  1        2 0.27393670E+00 0.17838082E+04</pdfrwt>
<pdfrwt beam="2">  1       -2 0.68732064E-01 0.17838082E+04</pdfrwt>
<totfact> 0.16174529E+01</totfact>
</mgrwt>
</event>
<event>
12    1  0.1960998E-007  0.1189817E+04  0.7818608E-02  0.9121817E-01
          2   -1    0    0  501    0  0.00000000000E+00  0.00000000000E+00  0.25027348930E+04  0.25027348930E+04  0.00000000000E+00 0.  1.
         -2   -1    0    0    0  501 -0.00000000000E+00 -0.00000000000E+00 -0.14141177599E+03  0.14141177599E+03  0.00000000000E+00 0. -1.
         23    2    1    2    0    0  0.10593862920E+03 -0.16362698506E+03  0.83021969567E+03  0.85756893062E+03  0.90349013823E+02 0.  0.
        254    2    1    2    0    0 -0.10593862920E+03  0.16362698506E+03  0.15311034213E+04  0.17865777383E+04  0.89976971775E+03 0.  0.
        -24    2    4    4    0    0  0.83498545835E+02 -0.20130981884E+03  0.12744980315E+04  0.12956207746E+04  0.82403330880E+02 0.  0.
         24    2    4    4    0    0 -0.18943717504E+03  0.36493680390E+03  0.25660538980E+03  0.49095696374E+03  0.78275794756E+02 0.  0.
         13    1    3    3    0    0  0.12166661256E+02 -0.96708022912E+02  0.32052732243E+03  0.33501975131E+03  0.00000000000E+00 0.  1.
        -13    1    3    3    0    0  0.93771967946E+02 -0.66918962146E+02  0.50969237324E+03  0.52254917931E+03  0.00000000000E+00 0. -1.
          4    1    6    6  502    0 -0.81896737217E+02  0.17444620798E+03  0.16538015056E+03  0.25394713868E+03  0.00000000000E+00 0. -1.
          3    1    5    5  503    0 -0.14639214403E+02 -0.36512504353E+02  0.16188374709E+03  0.16659476926E+03  0.00000000000E+00 0. -1.
         -4    1    5    5    0  503  0.98137760238E+02 -0.16479731449E+03  0.11126142844E+04  0.11290260053E+04  0.00000000000E+00 0.  1.
         -3    1    6    6    0  502 -0.10754043782E+03  0.19049059592E+03  0.91225239241E+02  0.23700982506E+03  0.00000000000E+00 0.  1.
<mgrwt>
<rscale>  0 0.11898171E+04</rscale>
<asrwt>0</asrwt>
<pdfrwt beam="1">  1        2 0.38503611E+00 0.11898171E+04</pdfrwt>
<pdfrwt beam="2">  1       -2 0.21755660E-01 0.11898171E+04</pdfrwt>
<totfact> 0.63497807E+01</totfact>
</mgrwt>
</event>
<event>
12    1  0.1960998E-007  0.2571139E+04  0.7818608E-02  0.8378071E-01
          2   -1    0    0  501    0  0.00000000000E+00  0.00000000000E+00  0.28970943313E+04  0.28970943313E+04  0.00000000000E+00 0. -1.
         -2   -1    0    0    0  501 -0.00000000000E+00 -0.00000000000E+00 -0.57046435472E+03  0.57046435472E+03  0.00000000000E+00 0.  1.
         23    2    1    2    0    0 -0.10906128710E+04  0.17644372379E+03  0.73306293336E+03  0.13290372082E+04  0.91595930546E+02 0.  0.
        254    2    1    2    0    0  0.10906128710E+04 -0.17644372379E+03  0.15935670432E+04  0.21385214777E+04  0.90180339738E+03 0.  0.
        -24    2    4    4    0    0  0.82519643907E+03 -0.58375590620E+01  0.16119967841E+04  0.18127315342E+04  0.80490640123E+02 0.  0.
         24    2    4    4    0    0  0.26541643195E+03 -0.17060616472E+03 -0.18429740872E+02  0.32578994354E+03  0.79038510664E+02 0.  0.
         13    1    3    3    0    0 -0.55155426032E+03  0.83465866352E+02  0.42457227557E+03  0.70102800950E+03  0.00000000000E+00 0. -1.
        -13    1    3    3    0    0 -0.53905861070E+03  0.92977857434E+02  0.30849065780E+03  0.62800919873E+03  0.00000000000E+00 0.  1.
          4    1    6    6  502    0  0.11822219541E+03 -0.10948528512E+03 -0.37019115093E+02  0.16532976147E+03  0.00000000000E+00 0. -1.
          3    1    5    5  503    0  0.45284140906E+03 -0.15623102433E+01  0.97134829937E+03  0.10717207198E+04  0.00000000000E+00 0. -1.
         -4    1    5    5    0  503  0.37235503001E+03 -0.42752488187E+01  0.64064848468E+03  0.74101081439E+03  0.00000000000E+00 0.  1.
         -3    1    6    6    0  502  0.14719423654E+03 -0.61120879606E+02  0.18589374221E+02  0.16046018207E+03  0.00000000000E+00 0.  1.
<mgrwt>
<rscale>  0 0.25711391E+04</rscale>
<asrwt>0</asrwt>
<pdfrwt beam="1">  1        2 0.44570681E+00 0.25711391E+04</pdfrwt>
<pdfrwt beam="2">  1       -2 0.87763749E-01 0.25711391E+04</pdfrwt>
<totfact> 0.20029121E+00</totfact>
</mgrwt>
</event>
<event>
12    1  0.1960998E-007  0.2683486E+04  0.7818608E-02  0.8340383E-01
          1   -1    0    0  501    0  0.00000000000E+00  0.00000000000E+00  0.39105846277E+04  0.39105846277E+04  0.00000000000E+00 0. -1.
         -1   -1    0    0    0  501 -0.00000000000E+00 -0.00000000000E+00 -0.46035930320E+03  0.46035930320E+03  0.00000000000E+00 0.  1.
         23    2    1    2    0    0  0.10052299670E+04 -0.56500119050E+03  0.20047857291E+04  0.23145702658E+04  0.91411508438E+02 0.  0.
        254    2    1    2    0    0 -0.10052299670E+04  0.56500119050E+03  0.14454395953E+04  0.20563736650E+04  0.89981297767E+03 0.  0.
        -24    2    4    4    0    0 -0.10793787655E+04  0.50172231474E+03  0.15025087528E+04  0.19184617999E+04  0.78608680695E+02 0.  0.
         24    2    4    4    0    0  0.74148798576E+02  0.63278875760E+02 -0.57069157477E+02  0.13791186518E+03  0.79123532362E+02 0.  0.
         13    1    3    3    0    0  0.70079233368E+03 -0.37384195778E+03  0.14553802439E+04  0.16580106630E+04  0.00000000000E+00 0. -1.
        -13    1    3    3    0    0  0.30443763329E+03 -0.19115923272E+03  0.54940548525E+03  0.65655960281E+03  0.00000000000E+00 0.  1.
          4    1    6    6  502    0  0.11690172054E+01  0.50463074044E+02 -0.14776326293E+02  0.52594945212E+02  0.00000000000E+00 0. -1.
          1    1    5    5  503    0 -0.73010286522E+02  0.33774989076E+02  0.72427467322E+02  0.10824504537E+03  0.00000000000E+00 0. -1.
         -2    1    5    5    0  503 -0.10063684790E+04  0.46794732566E+03  0.14300812855E+04  0.18102167545E+04  0.00000000000E+00 0.  1.
         -3    1    6    6    0  502  0.72979781371E+02  0.12815801716E+02 -0.42292831184E+02  0.85316919964E+02  0.00000000000E+00 0.  1.
<mgrwt>
<rscale>  0 0.26834858E+04</rscale>
<asrwt>0</asrwt>
<pdfrwt beam="1">  1        1 0.60162838E+00 0.26834858E+04</pdfrwt>
<pdfrwt beam="2">  1       -1 0.70824511E-01 0.26834858E+04</pdfrwt>
<totfact> 0.20232784E-01</totfact>
</mgrwt>
</event>
<event>
12    1  0.1960998E-007  0.1170173E+04  0.7818608E-02  0.9139372E-01
         -1   -1    0    0    0  501 -0.00000000000E+00  0.00000000000E+00  0.11541290908E+03  0.11541290908E+03  0.00000000000E+00 0.  1.
          1   -1    0    0  501    0  0.00000000000E+00 -0.00000000000E+00 -0.29661022546E+04  0.29661022546E+04  0.00000000000E+00 0. -1.
         23    2    1    2    0    0 -0.13166889828E+03  0.15289502450E+03 -0.31847166316E+03  0.38719503740E+03  0.88216832059E+02 0.  0.
        254    2    1    2    0    0  0.13166889828E+03 -0.15289502450E+03 -0.25322176823E+04  0.26943201263E+04  0.89806512279E+03 0.  0.
        -24    2    4    4    0    0 -0.16688388854E+03 -0.19939525998E+03 -0.19143878243E+03  0.33284133671E+03  0.80782708851E+02 0.  0.
         24    2    4    4    0    0  0.29855278681E+03  0.46500235483E+02 -0.23407788999E+04  0.23614787896E+04  0.77718574708E+02 0.  0.
         13    1    3    3    0    0 -0.54938593262E+02  0.11352951862E+03 -0.13665005637E+03  0.18595816340E+03  0.00000000000E+00 0. -1.
        -13    1    3    3    0    0 -0.76730305014E+02  0.39365505872E+02 -0.18182160679E+03  0.20123687400E+03  0.00000000000E+00 0.  1.
          2    1    6    6  502    0  0.30078248270E+03  0.52727825133E+02 -0.22927689164E+04  0.23130152678E+04  0.00000000000E+00 0. -1.
          3    1    5    5  503    0 -0.38491352886E+02 -0.10699865879E+03 -0.71408618325E+02  0.13427392897E+03  0.00000000000E+00 0. -1.
         -4    1    5    5    0  503 -0.12839253565E+03 -0.92396601192E+02 -0.12003016411E+03  0.19856740774E+03  0.00000000000E+00 0.  1.
         -1    1    6    6    0  502 -0.22296958911E+01 -0.62275896502E+01 -0.48009983556E+02  0.48463521722E+02  0.00000000000E+00 0.  1.
<mgrwt>
<rscale>  0 0.11701735E+04</rscale>
<asrwt>0</asrwt>
<pdfrwt beam="1">  1        1 0.45632331E+00 0.11701735E+04</pdfrwt>
<pdfrwt beam="2">  1       -1 0.17755837E-01 0.11701735E+04</pdfrwt>
<totfact> 0.15867547E+01</totfact>
</mgrwt>
</event>
<event>
12    1  0.1960998E-007  0.1718893E+04  0.7818608E-02  0.8750662E-01
          2   -1    0    0  501    0  0.00000000000E+00  0.00000000000E+00  0.42791807250E+04  0.42791807250E+04  0.00000000000E+00 0. -1.
         -2   -1    0    0    0  501 -0.00000000000E+00 -0.00000000000E+00 -0.17261441348E+03  0.17261441348E+03  0.00000000000E+00 0.  1.
         23    2    1    2    0    0 -0.28964556753E+03  0.43981649149E+03  0.23452660622E+04  0.24052022404E+04  0.85975658176E+02 0.  0.
        254    2    1    2    0    0  0.28964556753E+03 -0.43981649149E+03  0.17613002494E+04  0.20465928981E+04  0.89946140620E+03 0.  0.
        -24    2    4    4    0    0  0.12311211316E+03  0.26257706025E+03  0.36909372050E+03  0.47629723439E+03  0.80781037363E+02 0.  0.
         24    2    4    4    0    0  0.16653345436E+03 -0.70239355174E+03  0.13922065289E+04  0.15702956637E+04  0.80618605623E+02 0.  0.
         11    1    3    3    0    0 -0.27886604907E+03  0.40929473118E+03  0.22676985885E+04  0.23211517268E+04  0.00000000000E+00 0. -1.
        -11    1    3    3    0    0 -0.10779518459E+02  0.30521760309E+02  0.77567473641E+02  0.84050513607E+02  0.00000000000E+00 0.  1.
          4    1    6    6  502    0  0.11717763178E+03 -0.61271480794E+03  0.12075895401E+04  0.13591992240E+04  0.00000000000E+00 0. -1.
          1    1    5    5  503    0  0.94230411533E+02  0.22931677292E+03  0.26306045053E+03  0.36147801238E+03  0.00000000000E+00 0. -1.
         -2    1    5    5    0  503  0.28881701632E+02  0.33260287327E+02  0.10603326997E+03  0.11481922201E+03  0.00000000000E+00 0.  1.
         -1    1    6    6    0  502  0.49355822578E+02 -0.89678743797E+02  0.18461698878E+03  0.21109643971E+03  0.00000000000E+00 0.  1.
<mgrwt>
<rscale>  0 0.17188930E+04</rscale>
<asrwt>0</asrwt>
<pdfrwt beam="1">  1        2 0.65833542E+00 0.17188930E+04</pdfrwt>
<pdfrwt beam="2">  1       -2 0.26556067E-01 0.17188930E+04</pdfrwt>
<totfact> 0.24701970E+00</totfact>
</mgrwt>
</event>
<event>
12    1  0.1960998E-007  0.1535567E+04  0.7818608E-02  0.8861140E-01
          2   -1    0    0  501    0  0.00000000000E+00  0.00000000000E+00  0.76761713925E+03  0.76761713925E+03  0.00000000000E+00 0. -1.
         -2   -1    0    0    0  501 -0.00000000000E+00 -0.00000000000E+00 -0.76795016654E+03  0.76795016654E+03  0.00000000000E+00 0.  1.
         23    2    1    2    0    0 -0.36879912452E+03 -0.29928764071E+03 -0.15076987203E+03  0.50673420756E+03  0.91989763981E+02 0.  0.
        254    2    1    2    0    0  0.36879912452E+03  0.29928764071E+03  0.15043684474E+03  0.10288330982E+04  0.90015577187E+03 0.  0.
        -24    2    4    4    0    0 -0.24914643247E+02  0.22489004634E+03  0.45799682090E+03  0.51752086590E+03  0.82888396699E+02 0.  0.
         24    2    4    4    0    0  0.39371376776E+03  0.74397594375E+02 -0.30755997616E+03  0.51131223232E+03  0.79382158024E+02 0.  0.
         13    1    3    3    0    0 -0.51147341851E+02 -0.84593631052E+02 -0.14901678214E+02  0.99970960817E+02  0.00000000000E+00 0. -1.
        -13    1    3    3    0    0 -0.31765178267E+03 -0.21469400966E+03 -0.13586819381E+03  0.40676324675E+03  0.00000000000E+00 0.  1.
          4    1    6    6  502    0  0.35933407724E+03  0.86791474804E+02 -0.29403061110E+03  0.47234281981E+03  0.00000000000E+00 0. -1.
          1    1    5    5  503    0 -0.34264836473E+02  0.21723607831E+03  0.45454794572E+03  0.50495487689E+03  0.00000000000E+00 0. -1.
         -2    1    5    5    0  503  0.93501932263E+01  0.76539680288E+01  0.34488751765E+01  0.12565989016E+02  0.00000000000E+00 0.  1.
         -3    1    6    6    0  502  0.34379690521E+02 -0.12393880429E+02 -0.13529365062E+02  0.38969412510E+02  0.00000000000E+00 0.  1.
<mgrwt>
<rscale>  0 0.15355673E+04</rscale>
<asrwt>0</asrwt>
<pdfrwt beam="1">  1        2 0.11809494E+00 0.15355673E+04</pdfrwt>
<pdfrwt beam="2">  1       -2 0.11814618E+00 0.15355673E+04</pdfrwt>
<totfact> 0.19347291E+01</totfact>
</mgrwt>
</event>
<event>
12    1  0.1960998E-007  0.3965132E+04  0.7818608E-02  0.8011618E-01
         -1   -1    0    0    0  501 -0.00000000000E+00  0.00000000000E+00  0.17045247736E+04  0.17045247736E+04  0.00000000000E+00 0.  1.
          1   -1    0    0  501    0  0.00000000000E+00 -0.00000000000E+00 -0.23059615230E+04  0.23059615230E+04  0.00000000000E+00 0. -1.
         23    2    1    2    0    0  0.42020934366E+03  0.15239111969E+04  0.74459306520E+03  0.17484476142E+04  0.61392168829E+02 0.  0.
        254    2    1    2    0    0 -0.42020934366E+03 -0.15239111969E+04 -0.13460298146E+04  0.22620386824E+04  0.89785383588E+03 0.  0.
        -24    2    4    4    0    0 -0.25715637134E+03 -0.37537349050E+03  0.27932071749E+02  0.46210075668E+03  0.75645568263E+02 0.  0.
         24    2    4    4    0    0 -0.16305297232E+03 -0.11485377064E+04 -0.13739618863E+04  0.17999379258E+04  0.79247313591E+02 0.  0.
         11    1    3    3    0    0  0.23549296744E+03  0.77594275322E+03  0.35683342087E+03  0.88593125255E+03  0.00000000000E+00 0. -1.
        -11    1    3    3    0    0  0.18471637622E+03  0.74796844365E+03  0.38775964433E+03  0.86251636164E+03  0.00000000000E+00 0.  1.
          4    1    6    6  502    0 -0.15335070838E+03 -0.87401600578E+03 -0.10222562452E+04  0.13536721350E+04  0.00000000000E+00 0. -1.
          1    1    5    5  503    0 -0.24378082885E+03 -0.33172471132E+03  0.66250715781E+01  0.41172110486E+03  0.00000000000E+00 0. -1.
         -2    1    5    5    0  503 -0.13375542494E+02 -0.43648779182E+02  0.21307000171E+02  0.50379651819E+02  0.00000000000E+00 0.  1.
         -3    1    6    6    0  502 -0.97022639309E+01 -0.27452170058E+03 -0.35170564113E+03  0.44626579078E+03  0.00000000000E+00 0.  1.
<mgrwt>
<rscale>  0 0.39651323E+04</rscale>
<asrwt>0</asrwt>
<pdfrwt beam="1">  1        1 0.35476331E+00 0.39651323E+04</pdfrwt>
<pdfrwt beam="2">  1       -1 0.26223458E+00 0.39651323E+04</pdfrwt>
<totfact> 0.83978221E-02</totfact>
</mgrwt>
</event>
<event>
12    1  0.1960998E-007  0.3793666E+04  0.7818608E-02  0.8047516E-01
         -1   -1    0    0    0  501 -0.00000000000E+00  0.00000000000E+00  0.21815837665E+04  0.21815837665E+04  0.00000000000E+00 0.  1.
          1   -1    0    0  501    0  0.00000000000E+00 -0.00000000000E+00 -0.16492491465E+04  0.16492491465E+04  0.00000000000E+00 0. -1.
         23    2    1    2    0    0  0.16956710441E+04 -0.47486397878E+03 -0.56960012105E+02  0.17641640216E+04  0.90742295407E+02 0.  0.
        254    2    1    2    0    0 -0.16956710441E+04  0.47486397878E+03  0.58929463210E+03  0.20666688913E+04  0.90722436856E+03 0.  0.
        -24    2    4    4    0    0 -0.14457601574E+04  0.69274722889E+03  0.62929749671E+03  0.17241476245E+04  0.80923025016E+02 0.  0.
         24    2    4    4    0    0 -0.24991088672E+03 -0.21788325010E+03 -0.40002864613E+02  0.34252126683E+03  0.76105368250E+02 0.  0.
         13    1    3    3    0    0  0.45011884214E+03 -0.14553338152E+03 -0.50928715744E+02  0.47579477852E+03  0.00000000000E+00 0. -1.
        -13    1    3    3    0    0  0.12455522019E+04 -0.32933059726E+03 -0.60312963610E+01  0.12883692431E+04  0.00000000000E+00 0.  1.
          2    1    6    6  502    0 -0.23589624567E+03 -0.21487733712E+03 -0.52650133074E+02  0.32340585221E+03  0.00000000000E+00 0. -1.
          3    1    5    5  503    0 -0.10764488657E+04  0.55372094794E+03  0.46753422547E+03  0.12976660975E+04  0.00000000000E+00 0. -1.
         -4    1    5    5    0  503 -0.36931129162E+03  0.13902628094E+03  0.16176327124E+03  0.42648152695E+03  0.00000000000E+00 0.  1.
         -1    1    6    6    0  502 -0.14014641054E+02 -0.30059129810E+01  0.12647268461E+02  0.19115414624E+02  0.00000000000E+00 0.  1.
<mgrwt>
<rscale>  0 0.37936659E+04</rscale>
<asrwt>0</asrwt>
<pdfrwt beam="1">  1        1 0.25373064E+00 0.37936659E+04</pdfrwt>
<pdfrwt beam="2">  1       -1 0.33562827E+00 0.37936659E+04</pdfrwt>
<totfact> 0.79433192E-02</totfact>
</mgrwt>
</event>
<event>
12    1  0.1960998E-007  0.1868651E+04  0.7818608E-02  0.8670620E-01
          2   -1    0    0  501    0  0.00000000000E+00  0.00000000000E+00  0.11130372959E+04  0.11130372959E+04  0.00000000000E+00 0. -1.
         -2   -1    0    0    0  501 -0.00000000000E+00 -0.00000000000E+00 -0.78430835270E+03  0.78430835270E+03  0.00000000000E+00 0.  1.
         23    2    1    2    0    0 -0.32923891104E+03 -0.55331708776E+03  0.43701221550E+03  0.78668107015E+03  0.11545288860E+03 0.  0.
        254    2    1    2    0    0  0.32923891104E+03  0.55331708776E+03 -0.10828327225E+03  0.11106645785E+04  0.89849456243E+03 0.  0.
        -24    2    4    4    0    0  0.48404418114E+02  0.53862860745E+03  0.28813342995E+03  0.61812282158E+03  0.81186111155E+02 0.  0.
         24    2    4    4    0    0  0.28083449292E+03  0.14688480314E+02 -0.39641670220E+03  0.49254175692E+03  0.79796094241E+02 0.  0.
         13    1    3    3    0    0 -0.85343673277E+00 -0.50659621709E+02  0.56270713611E+02  0.75720002881E+02  0.00000000000E+00 0. -1.
        -13    1    3    3    0    0 -0.32838547430E+03 -0.50265746605E+03  0.38074150189E+03  0.71096106727E+03  0.00000000000E+00 0.  1.
          4    1    6    6  502    0 -0.41455856281E+01  0.26183808544E+01 -0.18058918331E+02  0.18712731757E+02  0.00000000000E+00 0. -1.
          3    1    5    5  503    0  0.28907835773E+02  0.52833394343E+02  0.24097574329E+02  0.64866968600E+02  0.00000000000E+00 0. -1.
         -4    1    5    5    0  503  0.19496582341E+02  0.48579521310E+03  0.26403585562E+03  0.55325585298E+03  0.00000000000E+00 0.  1.
         -3    1    6    6    0  502  0.28498007855E+03  0.12070099460E+02 -0.37835778387E+03  0.47382902516E+03  0.00000000000E+00 0.  1.
<mgrwt>
<rscale>  0 0.18686513E+04</rscale>
<asrwt>0</asrwt>
<pdfrwt beam="1">  1        2 0.17123651E+00 0.18686513E+04</pdfrwt>
<pdfrwt beam="2">  1       -2 0.12066282E+00 0.18686513E+04</pdfrwt>
<totfact> 0.10518701E+01</totfact>
</mgrwt>
</event>
<event>
12    1  0.1960998E-007  0.1131402E+04  0.7818608E-02  0.9175115E-01
         -1   -1    0    0    0  501 -0.00000000000E+00  0.00000000000E+00  0.40840243632E+03  0.40840243632E+03  0.00000000000E+00 0.  1.
          1   -1    0    0  501    0  0.00000000000E+00 -0.00000000000E+00 -0.78358381323E+03  0.78358381323E+03  0.00000000000E+00 0. -1.
         23    2    1    2    0    0  0.16833793329E+03  0.68337018984E+02 -0.12841114141E+03  0.24018308420E+03  0.90503506834E+02 0.  0.
        254    2    1    2    0    0 -0.16833793329E+03 -0.68337018984E+02 -0.24677023550E+03  0.95180316535E+03  0.90112491281E+03 0.  0.
        -24    2    4    4    0    0  0.33266469352E+03 -0.88829407737E+02  0.60273111411E+02  0.35818677177E+03  0.78156596161E+02 0.  0.
         24    2    4    4    0    0 -0.50100262680E+03  0.20492388753E+02 -0.30704334691E+03  0.59361639357E+03  0.81738826620E+02 0.  0.
         11    1    3    3    0    0 -0.33896070910E+01  0.16828184161E+02 -0.32740948613E+02  0.36968188142E+02  0.00000000000E+00 0. -1.
        -11    1    3    3    0    0  0.17172754038E+03  0.51508834823E+02 -0.95670192798E+02  0.20321489606E+03  0.00000000000E+00 0.  1.
          2    1    6    6  502    0 -0.92967703124E+02  0.25122376708E+01 -0.22039988345E+02  0.95577540502E+02  0.00000000000E+00 0. -1.
          1    1    5    5  503    0  0.61998040696E+02 -0.39399499804E+02 -0.10197338094E+02  0.74162411902E+02  0.00000000000E+00 0. -1.
         -2    1    5    5    0  503  0.27066665282E+03 -0.49429907933E+02  0.70470449505E+02  0.28402435987E+03  0.00000000000E+00 0.  1.
         -1    1    6    6    0  502 -0.40803492368E+03  0.17980151082E+02 -0.28500335857E+03  0.49803885307E+03  0.00000000000E+00 0.  1.
<mgrwt>
<rscale>  0 0.11314019E+04</rscale>
<asrwt>0</asrwt>
<pdfrwt beam="1">  1        1 0.12055135E+00 0.11314019E+04</pdfrwt>
<pdfrwt beam="2">  1       -1 0.62831145E-01 0.11314019E+04</pdfrwt>
<totfact> 0.58404463E+01</totfact>
</mgrwt>
</event>
<event>
12    1  0.1960998E-007  0.1353555E+04  0.7818608E-02  0.8988141E-01
          1   -1    0    0  501    0  0.00000000000E+00  0.00000000000E+00  0.61483653275E+03  0.61483653275E+03  0.00000000000E+00 0. -1.
         -1   -1    0    0    0  501 -0.00000000000E+00 -0.00000000000E+00 -0.74495869181E+03  0.74495869181E+03  0.00000000000E+00 0.  1.
         23    2    1    2    0    0  0.34939024881E+03  0.47891212256E+01  0.89066823830E+02  0.37093041707E+03  0.86948223406E+02 0.  0.
        254    2    1    2    0    0 -0.34939024881E+03 -0.47891212256E+01 -0.21918898289E+03  0.98886480749E+03  0.89872872193E+03 0.  0.
        -24    2    4    4    0    0 -0.50672634317E+01  0.38625854576E+03 -0.23979028565E+03  0.46158267875E+03  0.79610595412E+02 0.  0.
         24    2    4    4    0    0 -0.34432298538E+03 -0.39104766698E+03  0.20601302762E+02  0.52728212874E+03  0.78265148710E+02 0.  0.
         13    1    3    3    0    0  0.24595128099E+03 -0.14540634919E+02  0.24794593697E+02  0.24762518968E+03  0.00000000000E+00 0.  1.
        -13    1    3    3    0    0  0.10343896782E+03  0.19329756145E+02  0.64272230134E+02  0.12330522739E+03  0.00000000000E+00 0. -1.
          2    1    6    6  502    0 -0.18660891956E+03 -0.22820710176E+03  0.48930228913E+02  0.29882358918E+03  0.00000000000E+00 0. -1.
          3    1    5    5  503    0  0.18671101034E+02  0.34211190376E+03 -0.22264454921E+03  0.40860709735E+03  0.00000000000E+00 0. -1.
         -2    1    5    5    0  503 -0.23738364466E+02  0.44146641996E+02 -0.17145736436E+02  0.52975581403E+02  0.00000000000E+00 0.  1.
         -1    1    6    6    0  502 -0.15771406581E+03 -0.16284056523E+03 -0.28328926150E+02  0.22845853956E+03  0.00000000000E+00 0.  1.
<mgrwt>
<rscale>  0 0.13535551E+04</rscale>
<asrwt>0</asrwt>
<pdfrwt beam="1">  1        1 0.94590236E-01 0.13535551E+04</pdfrwt>
<pdfrwt beam="2">  1       -1 0.11460903E+00 0.13535551E+04</pdfrwt>
<totfact> 0.22393492E+01</totfact>
</mgrwt>
</event>
<event>
12    1  0.1960998E-007  0.1611935E+04  0.7818608E-02  0.8813249E-01
         -1   -1    0    0    0  501 -0.00000000000E+00  0.00000000000E+00  0.13161303714E+03  0.13161303714E+03  0.00000000000E+00 0.  1.
          1   -1    0    0  501    0  0.00000000000E+00 -0.00000000000E+00 -0.49355571154E+04  0.49355571154E+04  0.00000000000E+00 0. -1.
         23    2    1    2    0    0  0.53574483669E+03 -0.74267085891E+00 -0.20441691899E+04  0.21157164096E+04  0.10298139417E+03 0.  0.
        254    2    1    2    0    0 -0.53574483669E+03  0.74267085891E+00 -0.27597748883E+04  0.29514537429E+04  0.89872057969E+03 0.  0.
        -24    2    4    4    0    0 -0.60891613655E+03 -0.13606771448E+03 -0.26906138293E+04  0.27631565390E+04  0.79611531200E+02 0.  0.
         24    2    4    4    0    0  0.73171299856E+02  0.13681038534E+03 -0.69161058996E+02  0.18829720390E+03  0.81249395414E+02 0.  0.
         11    1    3    3    0    0  0.24147550968E+03  0.67621375304E+01 -0.72808418478E+03  0.76711324354E+03  0.00000000000E+00 0.  1.
        -11    1    3    3    0    0  0.29426932701E+03 -0.75048083893E+01 -0.13160850051E+04  0.13486031661E+04  0.00000000000E+00 0. -1.
          2    1    6    6  502    0  0.39893489184E+02  0.10560534576E+03 -0.96339384189E+01  0.11329956885E+03  0.00000000000E+00 0. -1.
          3    1    5    5  503    0 -0.54285106399E+03 -0.11841515147E+03 -0.24890186038E+04  0.25502790114E+04  0.00000000000E+00 0. -1.
         -4    1    5    5    0  503 -0.66065072555E+02 -0.17652563014E+02 -0.20159522552E+03  0.21287752757E+03  0.00000000000E+00 0.  1.
         -1    1    6    6    0  502  0.33277810672E+02  0.31205039578E+02 -0.59527120577E+02  0.74997635046E+02  0.00000000000E+00 0.  1.
<mgrwt>
<rscale>  0 0.16119351E+04</rscale>
<asrwt>0</asrwt>
<pdfrwt beam="1">  1        1 0.75931650E+00 0.16119351E+04</pdfrwt>
<pdfrwt beam="2">  1       -1 0.20248159E-01 0.16119351E+04</pdfrwt>
<totfact> 0.20751272E-01</totfact>
</mgrwt>
</event>
<event>
12    1  0.1960998E-007  0.2349472E+04  0.7818608E-02  0.8458666E-01
          1   -1    0    0  501    0  0.00000000000E+00  0.00000000000E+00  0.81861709932E+03  0.81861709932E+03  0.00000000000E+00 0. -1.
         -1   -1    0    0    0  501 -0.00000000000E+00 -0.00000000000E+00 -0.16857757134E+04  0.16857757134E+04  0.00000000000E+00 0.  1.
         23    2    1    2    0    0  0.55694949429E+03 -0.72405793479E+03 -0.80334963004E+03  0.12193267025E+04  0.83272727525E+02 0.  0.
        254    2    1    2    0    0 -0.55694949429E+03  0.72405793479E+03 -0.63808984039E+02  0.12850661102E+04  0.90159341674E+03 0.  0.
        -24    2    4    4    0    0 -0.37141843637E+02  0.83754154857E+02 -0.37922937293E+03  0.39832385216E+03  0.80328692915E+02 0.  0.
         24    2    4    4    0    0 -0.51980765066E+03  0.64030377994E+03  0.31542038889E+03  0.88674225808E+03  0.81442533426E+02 0.  0.
         11    1    3    3    0    0  0.46336734282E+03 -0.55735746451E+03 -0.66126655267E+03  0.98113714195E+03  0.00000000000E+00 0. -1.
        -11    1    3    3    0    0  0.93582151477E+02 -0.16670047028E+03 -0.14208307737E+03  0.23818956052E+03  0.00000000000E+00 0.  1.
          4    1    6    6  502    0 -0.20456226209E+03  0.20250458102E+03  0.13458154590E+03  0.31775150180E+03  0.00000000000E+00 0. -1.
          1    1    5    5  503    0 -0.50623455759E+02  0.56170822441E+02 -0.16015674321E+03  0.17711035532E+03  0.00000000000E+00 0. -1.
         -2    1    5    5    0  503  0.13481612122E+02  0.27583332416E+02 -0.21907262972E+03  0.22121349684E+03  0.00000000000E+00 0.  1.
         -3    1    6    6    0  502 -0.31524538857E+03  0.43779919892E+03  0.18083884299E+03  0.56899075627E+03  0.00000000000E+00 0.  1.
<mgrwt>
<rscale>  0 0.23494721E+04</rscale>
<asrwt>0</asrwt>
<pdfrwt beam="1">  1        1 0.12594109E+00 0.23494721E+04</pdfrwt>
<pdfrwt beam="2">  1       -1 0.25935011E+00 0.23494721E+04</pdfrwt>
<totfact> 0.11616146E+00</totfact>
</mgrwt>
</event>
<event>
12    1  0.1960998E-007  0.2593800E+04  0.7818608E-02  0.8370310E-01
         -2   -1    0    0    0  501 -0.00000000000E+00  0.00000000000E+00  0.92337218794E+03  0.92337218794E+03  0.00000000000E+00 0.  1.
          2   -1    0    0  501    0  0.00000000000E+00 -0.00000000000E+00 -0.18215300162E+04  0.18215300162E+04  0.00000000000E+00 0. -1.
         23    2    1    2    0    0  0.79146788951E+03 -0.69981883631E+03 -0.84297169630E+03  0.13543205397E+04  0.86110509194E+02 0.  0.
        254    2    1    2    0    0 -0.79146788951E+03  0.69981883631E+03 -0.55186131992E+02  0.13905816645E+04  0.90249877150E+03 0.  0.
        -24    2    4    4    0    0 -0.15645915979E+02  0.58727700019E+03  0.55852361814E+02  0.59577060182E+03  0.81756064207E+02 0.  0.
         24    2    4    4    0    0 -0.77582197353E+03  0.11254183612E+03 -0.11103849381E+03  0.79481106263E+03  0.69495889730E+02 0.  0.
         11    1    3    3    0    0  0.18504014593E+03 -0.11987643793E+03 -0.19098917415E+03  0.29169689854E+03  0.00000000000E+00 0. -1.
        -11    1    3    3    0    0  0.60642774357E+03 -0.57994239839E+03 -0.65198252216E+03  0.10626236412E+04  0.00000000000E+00 0.  1.
          4    1    6    6  502    0 -0.32237904717E+03  0.74742263360E+02 -0.67242669917E+02  0.33769251197E+03  0.00000000000E+00 0. -1.
          1    1    5    5  503    0 -0.23596762482E+02  0.60221845189E+02  0.18791296122E+02  0.67354217741E+02  0.00000000000E+00 0. -1.
         -2    1    5    5    0  503  0.79508465037E+01  0.52705515500E+03  0.37061065693E+02  0.52841638408E+03  0.00000000000E+00 0.  1.
         -3    1    6    6    0  502 -0.45344292636E+03  0.37799572765E+02 -0.43795823889E+02  0.45711855066E+03  0.00000000000E+00 0.  1.
<mgrwt>
<rscale>  0 0.25938004E+04</rscale>
<asrwt>0</asrwt>
<pdfrwt beam="1">  1        2 0.28023539E+00 0.25938004E+04</pdfrwt>
<pdfrwt beam="2">  1       -2 0.14205726E+00 0.25938004E+04</pdfrwt>
<totfact> 0.25690707E+00</totfact>
</mgrwt>
</event>
<event>
12    1  0.1960998E-007  0.2145932E+04  0.7818608E-02  0.8541276E-01
         -2   -1    0    0    0  501 -0.00000000000E+00  0.00000000000E+00  0.72587496945E+03  0.72587496945E+03  0.00000000000E+00 0.  1.
          2   -1    0    0  501    0  0.00000000000E+00 -0.00000000000E+00 -0.15860247008E+04  0.15860247008E+04  0.00000000000E+00 0. -1.
         23    2    1    2    0    0 -0.66079311960E+03  0.48059286265E+03  0.74239366091E+01  0.82218711822E+03  0.91211271231E+02 0.  0.
        254    2    1    2    0    0  0.66079311960E+03 -0.48059286265E+03 -0.86757366792E+03  0.14897125520E+04  0.89383576330E+03 0.  0.
        -24    2    4    4    0    0  0.13750459147E+03  0.13719627277E+03  0.93991394400E+02  0.23026485947E+03  0.80356663377E+02 0.  0.
         24    2    4    4    0    0  0.52328852813E+03 -0.61778913541E+03 -0.96156506232E+03  0.12594476925E+04  0.78146155408E+02 0.  0.
         13    1    3    3    0    0 -0.53907049088E+03  0.34885395830E+03 -0.80835189916E+01  0.64215373676E+03  0.00000000000E+00 0. -1.
        -13    1    3    3    0    0 -0.12172262872E+03  0.13173890435E+03  0.15507455601E+02  0.18003338146E+03  0.00000000000E+00 0.  1.
          4    1    6    6  502    0 -0.90682450653E+00 -0.20733304233E+01  0.84851727274E+00  0.24168184234E+01  0.00000000000E+00 0. -1.
          1    1    5    5  503    0  0.11356445761E+03  0.61644744337E+02  0.72423619502E+02  0.14812879935E+03  0.00000000000E+00 0. -1.
         -2    1    5    5    0  503  0.23940133862E+02  0.75551528430E+02  0.21567774898E+02  0.82136060117E+02  0.00000000000E+00 0.  1.
         -3    1    6    6    0  502  0.52419535263E+03 -0.61571580499E+03 -0.96241357959E+03  0.12570308741E+04  0.00000000000E+00 0.  1.
<mgrwt>
<rscale>  0 0.21459316E+04</rscale>
<asrwt>0</asrwt>
<pdfrwt beam="1">  1        2 0.24400380E+00 0.21459316E+04</pdfrwt>
<pdfrwt beam="2">  1       -2 0.11167307E+00 0.21459316E+04</pdfrwt>
<totfact> 0.66037152E+00</totfact>
</mgrwt>
</event>
<event>
12    1  0.1960998E-007  0.2209660E+04  0.7818608E-02  0.8514418E-01
          1   -1    0    0  501    0  0.00000000000E+00  0.00000000000E+00  0.26508763399E+04  0.26508763399E+04  0.00000000000E+00 0. -1.
         -1   -1    0    0    0  501 -0.00000000000E+00 -0.00000000000E+00 -0.46047022101E+03  0.46047022101E+03  0.00000000000E+00 0.  1.
         23    2    1    2    0    0 -0.54340092402E+03 -0.15473331038E+03 -0.10634769796E+03  0.58102093289E+03  0.83955524099E+02 0.  0.
        254    2    1    2    0    0  0.54340092402E+03  0.15473331038E+03  0.22967538169E+04  0.25303256281E+04  0.89902320716E+03 0.  0.
        -24    2    4    4    0    0  0.30548635820E+03  0.38679323092E+03  0.20475247096E+04  0.21075773737E+04  0.81203639646E+02 0.  0.
         24    2    4    4    0    0  0.23791456581E+03 -0.23205992054E+03  0.24922910728E+03  0.42274825436E+03  0.78395097428E+02 0.  0.
         11    1    3    3    0    0 -0.32683031712E+03 -0.12357213610E+03 -0.36353823379E+02  0.35129720962E+03  0.00000000000E+00 0. -1.
        -11    1    3    3    0    0 -0.21657060690E+03 -0.31161174277E+02 -0.69993874584E+02  0.22972372327E+03  0.00000000000E+00 0.  1.
          2    1    6    6  502    0  0.14713207219E+03 -0.19044094001E+03  0.16154004982E+03  0.28984614193E+03  0.00000000000E+00 0. -1.
          1    1    5    5  503    0  0.13715945715E+03  0.13605110571E+03  0.66754083723E+03  0.69493408998E+03  0.00000000000E+00 0. -1.
         -2    1    5    5    0  503  0.16832690105E+03  0.25074212521E+03  0.13799838724E+04  0.14126432837E+04  0.00000000000E+00 0.  1.
         -1    1    6    6    0  502  0.90782493625E+02 -0.41618980538E+02  0.87689057466E+02  0.13290211243E+03  0.00000000000E+00 0.  1.
<mgrwt>
<rscale>  0 0.22096603E+04</rscale>
<asrwt>0</asrwt>
<pdfrwt beam="1">  1        1 0.40782712E+00 0.22096603E+04</pdfrwt>
<pdfrwt beam="2">  1       -1 0.70841574E-01 0.22096603E+04</pdfrwt>
<totfact> 0.19493506E+00</totfact>
</mgrwt>
</event>
<event>
12    1  0.1960998E-007  0.1809573E+04  0.7818608E-02  0.8701225E-01
         -1   -1    0    0    0  501 -0.00000000000E+00  0.00000000000E+00  0.37047163688E+03  0.37047163688E+03  0.00000000000E+00 0.  1.
          1   -1    0    0  501    0  0.00000000000E+00 -0.00000000000E+00 -0.22097190675E+04  0.22097190675E+04  0.00000000000E+00 0. -1.
         23    2    1    2    0    0 -0.18855855309E+03 -0.31573972974E+03 -0.15018812382E+04  0.15490340755E+04  0.92808450314E+02 0.  0.
        254    2    1    2    0    0  0.18855855309E+03  0.31573972974E+03 -0.33736619235E+03  0.10311566288E+04  0.90234258493E+03 0.  0.
        -24    2    4    4    0    0  0.48973971014E+02 -0.31101663888E+03 -0.13631469438E+03  0.35294917440E+03  0.82834922000E+02 0.  0.
         24    2    4    4    0    0  0.13958458207E+03  0.62675636863E+03 -0.20105149797E+03  0.67820745444E+03  0.85066122833E+02 0.  0.
         13    1    3    3    0    0 -0.98607601065E+02 -0.23401370358E+03 -0.90778525405E+03  0.94263457390E+03  0.00000000000E+00 0.  1.
        -13    1    3    3    0    0 -0.89950952023E+02 -0.81726026163E+02 -0.59409598419E+03  0.60639950161E+03  0.00000000000E+00 0. -1.
          4    1    6    6  502    0  0.13829222850E+03  0.57957715032E+03 -0.16343940520E+03  0.61785666041E+03  0.00000000000E+00 0. -1.
          3    1    5    5  503    0  0.52252785622E+02 -0.29455467045E+03 -0.10432382722E+03  0.31682214003E+03  0.00000000000E+00 0. -1.
         -4    1    5    5    0  503 -0.32788146074E+01 -0.16461968432E+02 -0.31990867164E+02  0.36127034362E+02  0.00000000000E+00 0.  1.
         -3    1    6    6    0  502  0.12923535745E+01  0.47179218304E+02 -0.37612092770E+02  0.60350794030E+02  0.00000000000E+00 0.  1.
<mgrwt>
<rscale>  0 0.18095726E+04</rscale>
<asrwt>0</asrwt>
<pdfrwt beam="1">  1        1 0.33995679E+00 0.18095726E+04</pdfrwt>
<pdfrwt beam="2">  1       -1 0.56995635E-01 0.18095726E+04</pdfrwt>
<totfact> 0.63070919E+00</totfact>
</mgrwt>
</event>
<event>
12    1  0.1960998E-007  0.2537171E+04  0.7818608E-02  0.8389861E-01
          2   -1    0    0  501    0  0.00000000000E+00  0.00000000000E+00  0.11661307756E+04  0.11661307756E+04  0.00000000000E+00 0.  1.
         -2   -1    0    0    0  501 -0.00000000000E+00 -0.00000000000E+00 -0.13800421460E+04  0.13800421460E+04  0.00000000000E+00 0. -1.
         23    2    1    2    0    0  0.94347820276E+03 -0.15259142268E+03  0.46662952248E+03  0.10674968885E+04  0.91494449267E+02 0.  0.
        254    2    1    2    0    0 -0.94347820276E+03  0.15259142268E+03 -0.68054089287E+03  0.14786760331E+04  0.89995091119E+03 0.  0.
        -24    2    4    4    0    0 -0.63452686965E+03  0.36199656434E+03 -0.43613154973E+02  0.73612417074E+03  0.79440710996E+02 0.  0.
         24    2    4    4    0    0 -0.30895133311E+03 -0.20940514166E+03 -0.63692773790E+03  0.74255186233E+03  0.80030527673E+02 0.  0.
         11    1    3    3    0    0  0.63633193437E+03 -0.14334987352E+03  0.30034528959E+03  0.71810501316E+03  0.00000000000E+00 0.  1.
        -11    1    3    3    0    0  0.30714626839E+03 -0.92415491590E+01  0.16628423289E+03  0.34939187530E+03  0.00000000000E+00 0. -1.
          2    1    6    6  502    0 -0.28331616994E+03 -0.16538554878E+03 -0.51758944050E+03  0.61279626371E+03  0.00000000000E+00 0. -1.
          1    1    5    5  503    0 -0.36919088624E+03  0.25276482947E+03 -0.13824036185E+02  0.44764167978E+03  0.00000000000E+00 0. -1.
         -2    1    5    5    0  503 -0.26533598341E+03  0.10923173488E+03 -0.29789118788E+02  0.28848249096E+03  0.00000000000E+00 0.  1.
         -1    1    6    6    0  502 -0.25635163170E+02 -0.44019592880E+02 -0.11933829740E+03  0.12975559862E+03  0.00000000000E+00 0.  1.
<mgrwt>
<rscale>  0 0.25371714E+04</rscale>
<asrwt>0</asrwt>
<pdfrwt beam="1">  1        2 0.17940473E+00 0.25371714E+04</pdfrwt>
<pdfrwt beam="2">  1       -2 0.21231418E+00 0.25371714E+04</pdfrwt>
<totfact> 0.19528706E+00</totfact>
</mgrwt>
</event>
<event>
12    1  0.1960998E-007  0.4116130E+04  0.7818608E-02  0.7981521E-01
          2   -1    0    0  501    0  0.00000000000E+00  0.00000000000E+00  0.23507558900E+04  0.23507558900E+04  0.00000000000E+00 0. -1.
         -2   -1    0    0    0  501 -0.00000000000E+00 -0.00000000000E+00 -0.18018169550E+04  0.18018169550E+04  0.00000000000E+00 0.  1.
         23    2    1    2    0    0  0.19421184441E+04  0.18185270301E+03  0.44166707762E+03  0.20020288674E+04  0.90306821978E+02 0.  0.
        254    2    1    2    0    0 -0.19421184441E+04 -0.18185270301E+03  0.10727185739E+03  0.21505439776E+04  0.89913163210E+03 0.  0.
        -24    2    4    4    0    0 -0.87080332617E+03  0.35525051827E+03  0.10319710429E+03  0.94952498702E+03  0.80291313611E+02 0.  0.
         24    2    4    4    0    0 -0.10713151179E+04 -0.53710322128E+03  0.40747530997E+01  0.12010189906E+04  0.78956063599E+02 0.  0.
         13    1    3    3    0    0  0.41953745178E+03  0.23800123601E+02  0.60712216513E+02  0.42457519070E+03  0.00000000000E+00 0. -1.
        -13    1    3    3    0    0  0.15225809923E+04  0.15805257941E+03  0.38095486111E+03  0.15774536767E+04  0.00000000000E+00 0.  1.
          2    1    6    6  502    0 -0.70345779198E+03 -0.31771321031E+03 -0.18678636839E+02  0.77210325772E+03  0.00000000000E+00 0. -1.
          1    1    5    5  503    0 -0.25736569454E+02  0.22092029129E+02  0.14328143758E+02  0.36820163794E+02  0.00000000000E+00 0. -1.
         -2    1    5    5    0  503 -0.84506675672E+03  0.33315848915E+03  0.88868960530E+02  0.91270482323E+03  0.00000000000E+00 0.  1.
         -1    1    6    6    0  502 -0.36785732591E+03 -0.21939001097E+03  0.22753389938E+02  0.42891573286E+03  0.00000000000E+00 0.  1.
<mgrwt>
<rscale>  0 0.41161301E+04</rscale>
<asrwt>0</asrwt>
<pdfrwt beam="1">  1        2 0.36165475E+00 0.41161301E+04</pdfrwt>
<pdfrwt beam="2">  1       -2 0.27720261E+00 0.41161301E+04</pdfrwt>
<totfact> 0.14521256E-01</totfact>
</mgrwt>
</event>
<event>
12    1  0.1960998E-007  0.2259055E+04  0.7818608E-02  0.8494242E-01
          2   -1    0    0  501    0  0.00000000000E+00  0.00000000000E+00  0.41413061910E+04  0.41413061910E+04  0.00000000000E+00 0. -1.
         -2   -1    0    0    0  501 -0.00000000000E+00 -0.00000000000E+00 -0.30807483079E+03  0.30807483079E+03  0.00000000000E+00 0.  1.
         23    2    1    2    0    0  0.14377801862E+03  0.93712282115E+03  0.16184151908E+04  0.18777238629E+04  0.87794503016E+02 0.  0.
        254    2    1    2    0    0 -0.14377801862E+03 -0.93712282115E+03  0.22148161694E+04  0.25716571589E+04  0.89952130505E+03 0.  0.
        -24    2    4    4    0    0  0.51531224253E+02 -0.97041538212E+03  0.21279735957E+04  0.23407521416E+04  0.80544915367E+02 0.  0.
         24    2    4    4    0    0 -0.19530924287E+03  0.33292560973E+02  0.86842573728E+02  0.23090501736E+03  0.80755182286E+02 0.  0.
         13    1    3    3    0    0  0.12196339255E+03  0.50878539996E+03  0.87954009927E+03  0.10233906578E+04  0.00000000000E+00 0. -1.
        -13    1    3    3    0    0  0.21814626070E+02  0.42833742119E+03  0.73887509153E+03  0.85433320501E+03  0.00000000000E+00 0.  1.
          4    1    6    6  502    0 -0.76074617770E+02  0.48611853805E+02  0.16975776269E+02  0.91862052988E+02  0.00000000000E+00 0. -1.
          3    1    5    5  503    0 -0.10519035868E+02 -0.54539686813E+03  0.11745194474E+04  0.12950151838E+04  0.00000000000E+00 0. -1.
         -4    1    5    5    0  503  0.62050260121E+02 -0.42501851399E+03  0.95345414828E+03  0.10457369578E+04  0.00000000000E+00 0.  1.
         -3    1    6    6    0  502 -0.11923462510E+03 -0.15319292832E+02  0.69866797459E+02  0.13904296438E+03  0.00000000000E+00 0.  1.
<mgrwt>
<rscale>  0 0.22590549E+04</rscale>
<asrwt>0</asrwt>
<pdfrwt beam="1">  1        2 0.63712399E+00 0.22590549E+04</pdfrwt>
<pdfrwt beam="2">  1       -2 0.47396131E-01 0.22590549E+04</pdfrwt>
<totfact> 0.10097267E+00</totfact>
</mgrwt>
</event>
<event>
12    1  0.1960998E-007  0.2153312E+04  0.7818608E-02  0.8538116E-01
          2   -1    0    0  501    0  0.00000000000E+00  0.00000000000E+00  0.17347932236E+04  0.17347932236E+04  0.00000000000E+00 0. -1.
         -2   -1    0    0    0  501 -0.00000000000E+00 -0.00000000000E+00 -0.66819986147E+03  0.66819986147E+03  0.00000000000E+00 0.  1.
         23    2    1    2    0    0 -0.89252568098E+02 -0.86443321735E+03  0.25103146025E+03  0.90913977246E+03  0.91145617880E+02 0.  0.
        254    2    1    2    0    0  0.89252568098E+02  0.86443321735E+03  0.81556190183E+03  0.14938533126E+04  0.90069178724E+03 0.  0.
        -24    2    4    4    0    0  0.20985308900E+03  0.73179417061E+03  0.12443703319E+03  0.77548544216E+03  0.79574296619E+02 0.  0.
         24    2    4    4    0    0 -0.12060052090E+03  0.13263904674E+03  0.69112486865E+03  0.71836787041E+03  0.79127813160E+02 0.  0.
         11    1    3    3    0    0 -0.10407706309E+03 -0.70207885138E+03  0.18687646500E+03  0.73394111603E+03  0.00000000000E+00 0.  1.
        -11    1    3    3    0    0  0.14824494993E+02 -0.16235436596E+03  0.64154995249E+02  0.17519865643E+03  0.00000000000E+00 0. -1.
          2    1    6    6  502    0 -0.29509020094E+02  0.48580687960E+02  0.36655268305E+03  0.37093359913E+03  0.00000000000E+00 0. -1.
          3    1    5    5  503    0  0.77373645957E+02  0.41231122815E+03  0.73301388246E+02  0.42586420778E+03  0.00000000000E+00 0. -1.
         -4    1    5    5    0  503  0.13247944304E+03  0.31948294245E+03  0.51135644940E+02  0.34962123438E+03  0.00000000000E+00 0.  1.
         -1    1    6    6    0  502 -0.91091500810E+02  0.84058358781E+02  0.32457218560E+03  0.34743427129E+03  0.00000000000E+00 0.  1.
<mgrwt>
<rscale>  0 0.21533124E+04</rscale>
<asrwt>0</asrwt>
<pdfrwt beam="1">  1        2 0.26689126E+00 0.21533124E+04</pdfrwt>
<pdfrwt beam="2">  1       -2 0.10279998E+00 0.21533124E+04</pdfrwt>
<totfact> 0.66558829E+00</totfact>
</mgrwt>
</event>
<event>
12    1  0.1960998E-007  0.2201525E+04  0.7818608E-02  0.8517794E-01
          2   -1    0    0  501    0  0.00000000000E+00  0.00000000000E+00  0.17546143013E+04  0.17546143013E+04  0.00000000000E+00 0. -1.
         -2   -1    0    0    0  501 -0.00000000000E+00 -0.00000000000E+00 -0.69056641701E+03  0.69056641701E+03  0.00000000000E+00 0.  1.
         23    2    1    2    0    0 -0.27956936195E+03  0.47871056864E+03  0.12499102099E+04  0.13704576846E+04  0.92498084484E+02 0.  0.
        254    2    1    2    0    0  0.27956936195E+03 -0.47871056864E+03 -0.18586232568E+03  0.10747230337E+04  0.90175493256E+03 0.  0.
        -24    2    4    4    0    0  0.81196478827E+02  0.10791246531E+03 -0.38700877130E+03  0.41841200443E+03  0.83993142884E+02 0.  0.
         24    2    4    4    0    0  0.19837288313E+03 -0.58662303395E+03  0.20114644562E+03  0.65631102927E+03  0.82497817153E+02 0.  0.
         11    1    3    3    0    0 -0.72275784836E+02  0.11539336918E+03  0.21847679975E+03  0.25743257515E+03  0.00000000000E+00 0.  1.
        -11    1    3    3    0    0 -0.20729357712E+03  0.36331719946E+03  0.10314334102E+04  0.11130251094E+04  0.00000000000E+00 0. -1.
          2    1    6    6  502    0  0.15579928251E+02 -0.20177723937E+02 -0.58143490475E+01  0.26147301246E+02  0.00000000000E+00 0. -1.
          1    1    5    5  503    0 -0.69794836428E+01  0.35017787050E+02 -0.43078428301E+02  0.55952744229E+02  0.00000000000E+00 0. -1.
         -2    1    5    5    0  503  0.88175962470E+02  0.72894678256E+02 -0.34393034300E+03  0.36245926021E+03  0.00000000000E+00 0.  1.
         -1    1    6    6    0  502  0.18279295488E+03 -0.56644531001E+03  0.20696079467E+03  0.63016372802E+03  0.00000000000E+00 0.  1.
<mgrwt>
<rscale>  0 0.22015247E+04</rscale>
<asrwt>0</asrwt>
<pdfrwt beam="1">  1        2 0.26994066E+00 0.22015247E+04</pdfrwt>
<pdfrwt beam="2">  1       -2 0.10624099E+00 0.22015247E+04</pdfrwt>
<totfact> 0.59724332E+00</totfact>
</mgrwt>
</event>
<event>
12    1  0.1960998E-007  0.1311196E+04  0.7818608E-02  0.9020733E-01
          1   -1    0    0  501    0  0.00000000000E+00  0.00000000000E+00  0.74708536201E+03  0.74708536201E+03  0.00000000000E+00 0. -1.
         -1   -1    0    0    0  501 -0.00000000000E+00 -0.00000000000E+00 -0.57531408908E+03  0.57531408908E+03  0.00000000000E+00 0.  1.
         23    2    1    2    0    0 -0.23976292390E+02 -0.32029085631E+03 -0.59821273869E+02  0.33944649706E+03  0.92109957803E+02 0.  0.
        254    2    1    2    0    0  0.23976292390E+02  0.32029085631E+03  0.23159254680E+03  0.98295295403E+03  0.89966677546E+03 0.  0.
        -24    2    4    4    0    0  0.36317584761E+02 -0.29773058988E+03 -0.19756062098E+02  0.31097715324E+03  0.79712086507E+02 0.  0.
         24    2    4    4    0    0 -0.12341292371E+02  0.61802144619E+03  0.25134860890E+03  0.67197580079E+03  0.79199357329E+02 0.  0.
         13    1    3    3    0    0 -0.12365300304E+02 -0.61380016875E+01  0.10458300687E+02  0.17319115727E+02  0.00000000000E+00 0. -1.
        -13    1    3    3    0    0 -0.11610992087E+02 -0.31415285462E+03 -0.70279574555E+02  0.32212738133E+03  0.00000000000E+00 0.  1.
          4    1    6    6  502    0 -0.24690308664E+02  0.54061183794E+03  0.24272094393E+03  0.59311400867E+03  0.00000000000E+00 0. -1.
          1    1    5    5  503    0  0.53502642314E+02 -0.24388463424E+03 -0.35762954020E+02  0.25223250472E+03  0.00000000000E+00 0. -1.
         -2    1    5    5    0  503 -0.17185057552E+02 -0.53845955634E+02  0.16006891921E+02  0.58744648524E+02  0.00000000000E+00 0.  1.
         -1    1    6    6    0  502  0.12349016293E+02  0.77409608250E+02  0.86276649720E+01  0.78861792116E+02  0.00000000000E+00 0.  1.
<mgrwt>
<rscale>  0 0.13111960E+04</rscale>
<asrwt>0</asrwt>
<pdfrwt beam="1">  1        1 0.11493621E+00 0.13111960E+04</pdfrwt>
<pdfrwt beam="2">  1       -1 0.88509860E-01 0.13111960E+04</pdfrwt>
<totfact> 0.30331456E+01</totfact>
</mgrwt>
</event>
<event>
12    1  0.1960998E-007  0.1531517E+04  0.7818608E-02  0.8863761E-01
          2   -1    0    0  501    0  0.00000000000E+00  0.00000000000E+00  0.76998756590E+03  0.76998756590E+03  0.00000000000E+00 0.  1.
         -2   -1    0    0    0  501 -0.00000000000E+00 -0.00000000000E+00 -0.76155285590E+03  0.76155285590E+03  0.00000000000E+00 0. -1.
         23    2    1    2    0    0 -0.60716421965E+02  0.36452507830E+03  0.33233476210E+03  0.50208983993E+03  0.71293735038E+02 0.  0.
        254    2    1    2    0    0  0.60716421965E+02 -0.36452507830E+03 -0.32390005211E+03  0.10294505819E+04  0.90459506971E+03 0.  0.
        -24    2    4    4    0    0  0.30778360815E+03  0.11407179387E+03 -0.34688337668E+03  0.48439018829E+03  0.81010208552E+02 0.  0.
         24    2    4    4    0    0 -0.24706718618E+03 -0.47859687217E+03  0.22983324573E+02  0.54506039358E+03  0.80407952992E+02 0.  0.
         11    1    3    3    0    0 -0.52046839543E+02  0.31993164814E+03  0.31891262784E+03  0.45472013061E+03  0.00000000000E+00 0.  1.
        -11    1    3    3    0    0 -0.86695824214E+01  0.44593430162E+02  0.13422134260E+02  0.47369709320E+02  0.00000000000E+00 0. -1.
          4    1    6    6  502    0 -0.65629449088E+02 -0.14726708618E+03 -0.28771725642E+02  0.16377616266E+03  0.00000000000E+00 0. -1.
          3    1    5    5  503    0  0.51803472904E+02  0.45593361969E+02 -0.10477023273E+03  0.12545579352E+03  0.00000000000E+00 0. -1.
         -4    1    5    5    0  503  0.25598013524E+03  0.68478431899E+02 -0.24211314395E+03  0.35893439477E+03  0.00000000000E+00 0.  1.
         -3    1    6    6    0  502 -0.18143773709E+03 -0.33132978599E+03  0.51755050215E+02  0.38128423092E+03  0.00000000000E+00 0.  1.
<mgrwt>
<rscale>  0 0.15315172E+04</rscale>
<asrwt>0</asrwt>
<pdfrwt beam="1">  1        2 0.11845963E+00 0.15315172E+04</pdfrwt>
<pdfrwt beam="2">  1       -2 0.11716198E+00 0.15315172E+04</pdfrwt>
<totfact> 0.19675379E+01</totfact>
</mgrwt>
</event>
<event>
12    1  0.1960998E-007  0.3379364E+04  0.7818608E-02  0.8142990E-01
         -2   -1    0    0    0  501 -0.00000000000E+00  0.00000000000E+00  0.13096473052E+04  0.13096473052E+04  0.00000000000E+00 0.  1.
          2   -1    0    0  501    0  0.00000000000E+00 -0.00000000000E+00 -0.21799957975E+04  0.21799957975E+04  0.00000000000E+00 0. -1.
         23    2    1    2    0    0  0.18354043216E+03 -0.14578022737E+04  0.15903613217E+03  0.14806085985E+04  0.89636885739E+02 0.  0.
        254    2    1    2    0    0 -0.18354043216E+03  0.14578022737E+04 -0.10293846244E+04  0.20090345041E+04  0.90427450169E+03 0.  0.
        -24    2    4    4    0    0 -0.27724922736E+03  0.10769191011E+03 -0.42613034755E+03  0.52516576120E+03  0.75811094582E+02 0.  0.
         24    2    4    4    0    0  0.93708795206E+02  0.13501103636E+04 -0.60325427687E+03  0.14838687429E+04  0.79820996934E+02 0.  0.
         13    1    3    3    0    0 -0.88696584689E+01 -0.13388963102E+03  0.17562273254E+02  0.13532751966E+03  0.00000000000E+00 0.  1.
        -13    1    3    3    0    0  0.19241009062E+03 -0.13239126427E+04  0.14147385892E+03  0.13452810789E+04  0.00000000000E+00 0. -1.
          4    1    6    6  502    0  0.82021483014E+02  0.67194076668E+03 -0.28094349072E+03  0.73291279330E+03  0.00000000000E+00 0. -1.
          1    1    5    5  503    0 -0.19872553339E+03  0.40218578517E+02 -0.29801392719E+03  0.36044649045E+03  0.00000000000E+00 0. -1.
         -2    1    5    5    0  503 -0.78523693968E+02  0.67473331596E+02 -0.12811642036E+03  0.16471927075E+03  0.00000000000E+00 0.  1.
         -3    1    6    6    0  502  0.11687312192E+02  0.67816959690E+03 -0.32231078615E+03  0.75095594964E+03  0.00000000000E+00 0.  1.
<mgrwt>
<rscale>  0 0.33793642E+04</rscale>
<asrwt>0</asrwt>
<pdfrwt beam="1">  1        2 0.33538397E+00 0.33793642E+04</pdfrwt>
<pdfrwt beam="2">  1       -2 0.20148420E+00 0.33793642E+04</pdfrwt>
<totfact> 0.57192409E-01</totfact>
</mgrwt>
</event>
<event>
12    1  0.1960998E-007  0.3078721E+04  0.7818608E-02  0.8221602E-01
         -2   -1    0    0    0  501 -0.00000000000E+00  0.00000000000E+00  0.10847496077E+04  0.10847496077E+04  0.00000000000E+00 0.  1.
          2   -1    0    0  501    0  0.00000000000E+00 -0.00000000000E+00 -0.21844957409E+04  0.21844957409E+04  0.00000000000E+00 0. -1.
         23    2    1    2    0    0 -0.11511464113E+04  0.69936544697E+03 -0.93549352727E+03  0.16418747629E+04  0.79715172929E+02 0.  0.
        254    2    1    2    0    0  0.11511464113E+04 -0.69936544697E+03 -0.16425260593E+03  0.16273705857E+04  0.89839079258E+03 0.  0.
        -24    2    4    4    0    0 -0.93410912679E+02 -0.62906342950E+02  0.13761946806E+03  0.19456993186E+03  0.78965396241E+02 0.  0.
         24    2    4    4    0    0  0.12445573239E+04 -0.63645910402E+03 -0.30187207398E+03  0.14328006539E+04  0.88248745251E+02 0.  0.
         13    1    3    3    0    0 -0.92987451282E+03  0.58788656428E+03 -0.79194349293E+03  0.13555263620E+04  0.00000000000E+00 0. -1.
        -13    1    3    3    0    0 -0.22127189843E+03  0.11147888269E+03 -0.14355003434E+03  0.28634840087E+03  0.00000000000E+00 0.  1.
          4    1    6    6  502    0  0.79548475897E+03 -0.40255200869E+03 -0.23558805569E+03  0.92214199201E+03  0.00000000000E+00 0. -1.
          1    1    5    5  503    0 -0.50737510267E+02 -0.25697407453E+02  0.12387634102E+03  0.13630847208E+03  0.00000000000E+00 0. -1.
         -2    1    5    5    0  503 -0.42673402412E+02 -0.37208935497E+02  0.13743127042E+02  0.58261459775E+02  0.00000000000E+00 0.  1.
         -3    1    6    6    0  502  0.44907256496E+03 -0.23390709533E+03 -0.66284018296E+02  0.51065866186E+03  0.00000000000E+00 0.  1.
<mgrwt>
<rscale>  0 0.30787211E+04</rscale>
<asrwt>0</asrwt>
<pdfrwt beam="1">  1        2 0.33607627E+00 0.30787211E+04</pdfrwt>
<pdfrwt beam="2">  1       -2 0.16688456E+00 0.30787211E+04</pdfrwt>
<totfact> 0.10053832E+00</totfact>
</mgrwt>
</event>
<event>
12    1  0.1960998E-007  0.2696737E+04  0.7818608E-02  0.8336064E-01
         -1   -1    0    0    0  501 -0.00000000000E+00  0.00000000000E+00  0.12766717690E+04  0.12766717690E+04  0.00000000000E+00 0.  1.
          1   -1    0    0  501    0  0.00000000000E+00 -0.00000000000E+00 -0.14240920434E+04  0.14240920434E+04  0.00000000000E+00 0. -1.
         23    2    1    2    0    0 -0.95321667114E+03  0.27930067032E+03 -0.73445931770E+03  0.12385033158E+04  0.88482129403E+02 0.  0.
        254    2    1    2    0    0  0.95321667114E+03 -0.27930067032E+03  0.58703904330E+03  0.14622604966E+04  0.89830954300E+03 0.  0.
        -24    2    4    4    0    0  0.19538449506E+03 -0.90407861955E+02  0.63528458137E+03  0.67563707085E+03  0.80933736952E+02 0.  0.
         24    2    4    4    0    0  0.75783217608E+03 -0.18889280837E+03 -0.48245538069E+02  0.78662342577E+03  0.80365924781E+02 0.  0.
         11    1    3    3    0    0 -0.68712382426E+03  0.22083630979E+03 -0.48899674845E+03  0.87179449734E+03  0.00000000000E+00 0.  1.
        -11    1    3    3    0    0 -0.26609284688E+03  0.58464360537E+02 -0.24546256924E+03  0.36670881843E+03  0.00000000000E+00 0. -1.
          2    1    6    6  502    0  0.56812276783E+03 -0.12065347026E+03 -0.64480593633E+02  0.58436160566E+03  0.00000000000E+00 0. -1.
          3    1    5    5  503    0  0.10938456202E+03 -0.50614527664E+02  0.23282587897E+03  0.26217303969E+03  0.00000000000E+00 0. -1.
         -4    1    5    5    0  503  0.85999933040E+02 -0.39793334291E+02  0.40245870239E+03  0.41346403117E+03  0.00000000000E+00 0.  1.
         -1    1    6    6    0  502  0.18970940825E+03 -0.68239338112E+02  0.16235055564E+02  0.20226182011E+03  0.00000000000E+00 0.  1.
<mgrwt>
<rscale>  0 0.26967374E+04</rscale>
<asrwt>0</asrwt>
<pdfrwt beam="1">  1        1 0.21909108E+00 0.26967374E+04</pdfrwt>
<pdfrwt beam="2">  1       -1 0.19641104E+00 0.26967374E+04</pdfrwt>
<totfact> 0.10286281E+00</totfact>
</mgrwt>
</event>
<event>
12    1  0.1960998E-007  0.2952664E+04  0.7818608E-02  0.8257379E-01
         -2   -1    0    0    0  501 -0.00000000000E+00  0.00000000000E+00  0.68994838682E+03  0.68994838682E+03  0.00000000000E+00 0.  1.
          2   -1    0    0  501    0  0.00000000000E+00 -0.00000000000E+00 -0.31590134937E+04  0.31590134937E+04  0.00000000000E+00 0. -1.
         23    2    1    2    0    0  0.50880828925E+03 -0.11229773718E+04 -0.18013606991E+04  0.21846830755E+04  0.89306884708E+02 0.  0.
        254    2    1    2    0    0 -0.50880828925E+03  0.11229773718E+04 -0.66770440782E+03  0.16642788050E+04  0.89667759638E+03 0.  0.
        -24    2    4    4    0    0 -0.54072716231E+03  0.72837512168E+03 -0.31526625844E+02  0.91112129970E+03  0.78942464493E+02 0.  0.
         24    2    4    4    0    0  0.31918873060E+02  0.39460225008E+03 -0.63617778197E+03  0.75315750529E+03  0.76120347313E+02 0.  0.
         11    1    3    3    0    0  0.25686299100E+03 -0.58817983072E+03 -0.10148063634E+04  0.12007356348E+04  0.00000000000E+00 0. -1.
        -11    1    3    3    0    0  0.25194529825E+03 -0.53479754104E+03 -0.78655433565E+03  0.98394744074E+03  0.00000000000E+00 0.  1.
          4    1    6    6  502    0  0.38791118618E+02  0.37029445582E+03 -0.55643393953E+03  0.66950837482E+03  0.00000000000E+00 0. -1.
          1    1    5    5  503    0 -0.39755055888E+03  0.56695296830E+03  0.39297234608E+01  0.69245762170E+03  0.00000000000E+00 0. -1.
         -2    1    5    5    0  503 -0.14317660343E+03  0.16142215338E+03 -0.35456349305E+02  0.21866367800E+03  0.00000000000E+00 0.  1.
         -3    1    6    6    0  502 -0.68722455578E+01  0.24307794258E+02 -0.79743842442E+02  0.83649130469E+02  0.00000000000E+00 0.  1.
<mgrwt>
<rscale>  0 0.29526641E+04</rscale>
<asrwt>0</asrwt>
<pdfrwt beam="1">  1        2 0.48600207E+00 0.29526641E+04</pdfrwt>
<pdfrwt beam="2">  1       -2 0.10614591E+00 0.29526641E+04</pdfrwt>
<totfact> 0.84801447E-01</totfact>
</mgrwt>
</event>
<event>
12    1  0.1960998E-007  0.2496254E+04  0.7818608E-02  0.8404321E-01
          1   -1    0    0  501    0  0.00000000000E+00  0.00000000000E+00  0.10176782445E+04  0.10176782445E+04  0.00000000000E+00 0. -1.
         -1   -1    0    0    0  501 -0.00000000000E+00 -0.00000000000E+00 -0.15307595263E+04  0.15307595263E+04  0.00000000000E+00 0.  1.
         23    2    1    2    0    0 -0.74628343474E+03  0.64661125721E+03 -0.67567343169E+03  0.12002562085E+04  0.95054178610E+02 0.  0.
        254    2    1    2    0    0  0.74628343474E+03 -0.64661125721E+03  0.16259214990E+03  0.13481815623E+04  0.90338930418E+03 0.  0.
        -24    2    4    4    0    0  0.33917107675E+03 -0.80308753853E+03 -0.27220256907E+01  0.87523385304E+03  0.77719201261E+02 0.  0.
         24    2    4    4    0    0  0.40711235799E+03  0.15647628132E+03  0.16531417560E+03  0.47294770930E+03  0.78265320760E+02 0.  0.
         11    1    3    3    0    0 -0.43269982577E+03  0.36630468808E+03 -0.44377268764E+03  0.71996004197E+03  0.00000000000E+00 0.  1.
        -11    1    3    3    0    0 -0.31358360897E+03  0.28030656913E+03 -0.23190074404E+03  0.48029616655E+03  0.00000000000E+00 0. -1.
          4    1    6    6  502    0  0.22983858440E+01  0.13343670159E+02  0.26607894382E+01  0.13799127191E+02  0.00000000000E+00 0. -1.
          3    1    5    5  503    0  0.10572789547E+03 -0.30182787850E+03 -0.32645016592E+02  0.32147185449E+03  0.00000000000E+00 0. -1.
         -4    1    5    5    0  503  0.23344318128E+03 -0.50125966002E+03  0.29922990902E+02  0.55376199855E+03  0.00000000000E+00 0.  1.
         -3    1    6    6    0  502  0.40481397215E+03  0.14313261116E+03  0.16265338616E+03  0.45914858211E+03  0.00000000000E+00 0.  1.
<mgrwt>
<rscale>  0 0.24962537E+04</rscale>
<asrwt>0</asrwt>
<pdfrwt beam="1">  1        1 0.15656588E+00 0.24962537E+04</pdfrwt>
<pdfrwt beam="2">  1       -1 0.23550147E+00 0.24962537E+04</pdfrwt>
<totfact> 0.11306507E+00</totfact>
</mgrwt>
</event>
<event>
12    1  0.1960998E-007  0.1478724E+04  0.7818608E-02  0.8898726E-01
         -2   -1    0    0    0  501 -0.00000000000E+00  0.00000000000E+00  0.42927063666E+03  0.42927063666E+03  0.00000000000E+00 0.  1.
          2   -1    0    0  501    0  0.00000000000E+00 -0.00000000000E+00 -0.12734538278E+04  0.12734538278E+04  0.00000000000E+00 0. -1.
         23    2    1    2    0    0 -0.42346146972E+03 -0.11818317293E+03 -0.43345191697E+03  0.62478245970E+03  0.95841947604E+02 0.  0.
        254    2    1    2    0    0  0.42346146972E+03  0.11818317293E+03 -0.41073127416E+03  0.10779420047E+04  0.89441148658E+03 0.  0.
        -24    2    4    4    0    0  0.44127527912E+03 -0.93837850664E+02 -0.61872253750E+03  0.76986380481E+03  0.79644744733E+02 0.  0.
         24    2    4    4    0    0 -0.17813809397E+02  0.21202102359E+03  0.20799126334E+03  0.30807819994E+03  0.79884700657E+02 0.  0.
         11    1    3    3    0    0 -0.17068479933E+03 -0.58478933518E+01 -0.19845404461E+03  0.26182342600E+03  0.00000000000E+00 0. -1.
        -11    1    3    3    0    0 -0.25277667039E+03 -0.11233527958E+03 -0.23499787236E+03  0.36295903370E+03  0.00000000000E+00 0.  1.
          2    1    6    6  502    0 -0.22093278009E+01 -0.71512073977E+01  0.81525757033E+01  0.11067311651E+02  0.00000000000E+00 0. -1.
          3    1    5    5  503    0  0.12211634974E+02  0.10993551918E+02 -0.22711351509E+02  0.28031905035E+02  0.00000000000E+00 0. -1.
         -4    1    5    5    0  503  0.42906364414E+03 -0.10483140258E+03 -0.59601118599E+03  0.74183189977E+03  0.00000000000E+00 0.  1.
         -1    1    6    6    0  502 -0.15604481596E+02  0.21917223099E+03  0.19983868764E+03  0.29701088828E+03  0.00000000000E+00 0.  1.
<mgrwt>
<rscale>  0 0.14787242E+04</rscale>
<asrwt>0</asrwt>
<pdfrwt beam="1">  1        2 0.19591598E+00 0.14787242E+04</pdfrwt>
<pdfrwt beam="2">  1       -2 0.66041636E-01 0.14787242E+04</pdfrwt>
<totfact> 0.34979175E+01</totfact>
</mgrwt>
</event>
<event>
12    1  0.1960998E-007  0.1726272E+04  0.7818608E-02  0.8746521E-01
         -2   -1    0    0    0  501 -0.00000000000E+00  0.00000000000E+00  0.88956574822E+03  0.88956574822E+03  0.00000000000E+00 0.  1.
          2   -1    0    0  501    0  0.00000000000E+00 -0.00000000000E+00 -0.83749119650E+03  0.83749119650E+03  0.00000000000E+00 0. -1.
         23    2    1    2    0    0 -0.36354253388E+03  0.10985933982E+03 -0.47624776529E+03  0.61602644766E+03  0.91893426236E+02 0.  0.
        254    2    1    2    0    0  0.36354253388E+03 -0.10985933982E+03  0.52832231701E+03  0.11110304971E+04  0.90057317652E+03 0.  0.
        -24    2    4    4    0    0 -0.30470356448E+02 -0.14370221652E+02 -0.23103847304E+03  0.24656045049E+03  0.79235937712E+02 0.  0.
         24    2    4    4    0    0  0.39401289032E+03 -0.95489118172E+02  0.75936079006E+03  0.86447004658E+03  0.79469003537E+02 0.  0.
         13    1    3    3    0    0 -0.17274422472E+03  0.47773437465E+02 -0.15341500342E+03  0.23592166449E+03  0.00000000000E+00 0. -1.
        -13    1    3    3    0    0 -0.19079830915E+03  0.62085902358E+02 -0.32283276187E+03  0.38010478317E+03  0.00000000000E+00 0.  1.
          4    1    6    6  502    0  0.11949842798E+01 -0.10449657291E+02  0.12539675420E+02  0.16366636324E+02  0.00000000000E+00 0. -1.
          1    1    5    5  503    0  0.29864700101E+01 -0.30821853504E+02 -0.33845816610E+02  0.45874229787E+02  0.00000000000E+00 0. -1.
         -2    1    5    5    0  503 -0.33456826458E+02  0.16451631852E+02 -0.19719265643E+03  0.20068622070E+03  0.00000000000E+00 0.  1.
         -3    1    6    6    0  502  0.39281790604E+03 -0.85039460881E+02  0.74682111464E+03  0.84810341025E+03  0.00000000000E+00 0.  1.
<mgrwt>
<rscale>  0 0.17262717E+04</rscale>
<asrwt>0</asrwt>
<pdfrwt beam="1">  1        2 0.12884480E+00 0.17262717E+04</pdfrwt>
<pdfrwt beam="2">  1       -2 0.13685627E+00 0.17262717E+04</pdfrwt>
<totfact> 0.11712993E+01</totfact>
</mgrwt>
</event>
<event>
12    1  0.1960998E-007  0.2882682E+04  0.7818608E-02  0.8278049E-01
          2   -1    0    0  501    0  0.00000000000E+00  0.00000000000E+00  0.31556207127E+04  0.31556207127E+04  0.00000000000E+00 0. -1.
         -2   -1    0    0    0  501 -0.00000000000E+00 -0.00000000000E+00 -0.65833745619E+03  0.65833745619E+03  0.00000000000E+00 0.  1.
         23    2    1    2    0    0 -0.31391716491E+03  0.12604449297E+04  0.11198755103E+04  0.17176981081E+04  0.95395097274E+02 0.  0.
        254    2    1    2    0    0  0.31391716491E+03 -0.12604449297E+04  0.13774077462E+04  0.20962600608E+04  0.89988262339E+03 0.  0.
        -24    2    4    4    0    0  0.37291903164E+02  0.23300010095E+02 -0.88635938672E+02  0.12637196468E+03  0.78612768178E+02 0.  0.
         24    2    4    4    0    0  0.27662526175E+03 -0.12837449398E+04  0.14660436849E+04  0.19698880961E+04  0.81562364468E+02 0.  0.
         11    1    3    3    0    0 -0.15926450590E+03  0.71142790587E+03  0.56991392945E+03  0.92536302880E+03  0.00000000000E+00 0.  1.
        -11    1    3    3    0    0 -0.15465265902E+03  0.54901702387E+03  0.54996158085E+03  0.79233507927E+03  0.00000000000E+00 0. -1.
          4    1    6    6  502    0  0.23682199947E+03 -0.10683751678E+04  0.11752198157E+04  0.16058181011E+04  0.00000000000E+00 0. -1.
          1    1    5    5  503    0 -0.89572696043E+01  0.33429743070E+02 -0.12660916375E+02  0.36852126180E+02  0.00000000000E+00 0. -1.
         -2    1    5    5    0  503  0.46249172768E+02 -0.10129732976E+02 -0.75975022297E+02  0.89519838500E+02  0.00000000000E+00 0.  1.
         -3    1    6    6    0  502  0.39803262280E+02 -0.21536977203E+03  0.29082386918E+03  0.36406999502E+03  0.00000000000E+00 0.  1.
<mgrwt>
<rscale>  0 0.28826816E+04</rscale>
<asrwt>0</asrwt>
<pdfrwt beam="1">  1        2 0.48548010E+00 0.28826816E+04</pdfrwt>
<pdfrwt beam="2">  1       -2 0.10128269E+00 0.28826816E+04</pdfrwt>
<totfact> 0.95928643E-01</totfact>
</mgrwt>
</event>
<event>
12    1  0.1960998E-007  0.2299891E+04  0.7818608E-02  0.8477964E-01
         -2   -1    0    0    0  501 -0.00000000000E+00  0.00000000000E+00  0.97904334813E+03  0.97904334813E+03  0.00000000000E+00 0.  1.
          2   -1    0    0  501    0  0.00000000000E+00 -0.00000000000E+00 -0.13506798978E+04  0.13506798978E+04  0.00000000000E+00 0. -1.
         23    2    1    2    0    0 -0.34340038424E+02 -0.52644456816E+03 -0.98831208454E+03  0.11242518716E+04  0.94118928888E+02 0.  0.
        254    2    1    2    0    0  0.34340038424E+02  0.52644456816E+03  0.61667553486E+03  0.12054713743E+04  0.89137500383E+03 0.  0.
        -24    2    4    4    0    0 -0.37797184848E+03  0.47737288232E+03  0.36837898708E+03  0.71606975285E+03  0.79405452032E+02 0.  0.
         24    2    4    4    0    0  0.41231188691E+03  0.49071685843E+02  0.24829654778E+03  0.48940162148E+03  0.73848825545E+02 0.  0.
         11    1    3    3    0    0  0.14405087859E+02 -0.11888672993E+02 -0.27528919792E+02  0.33266928423E+02  0.00000000000E+00 0.  1.
        -11    1    3    3    0    0 -0.48745126283E+02 -0.51455589517E+03 -0.96078316475E+03  0.10909849432E+04  0.00000000000E+00 0. -1.
          4    1    6    6  502    0  0.37618582023E+03  0.48962766757E+02  0.24808240669E+03  0.45327475595E+03  0.00000000000E+00 0. -1.
          1    1    5    5  503    0 -0.14020102056E+03  0.23087777438E+03  0.13811110560E+03  0.30337361514E+03  0.00000000000E+00 0. -1.
         -2    1    5    5    0  503 -0.23777082792E+03  0.24649510794E+03  0.23026788148E+03  0.41269613772E+03  0.00000000000E+00 0.  1.
         -3    1    6    6    0  502  0.36126066670E+02  0.10891908579E+00  0.21414108642E+00  0.36126865527E+02  0.00000000000E+00 0.  1.
<mgrwt>
<rscale>  0 0.22998906E+04</rscale>
<asrwt>0</asrwt>
<pdfrwt beam="1">  1        2 0.20779691E+00 0.22998906E+04</pdfrwt>
<pdfrwt beam="2">  1       -2 0.15062206E+00 0.22998906E+04</pdfrwt>
<totfact> 0.41510248E+00</totfact>
</mgrwt>
</event>
<event>
12    1  0.1960998E-007  0.1909543E+04  0.7818608E-02  0.8650121E-01
          2   -1    0    0  501    0  0.00000000000E+00  0.00000000000E+00  0.85925219459E+03  0.85925219459E+03  0.00000000000E+00 0. -1.
         -2   -1    0    0    0  501 -0.00000000000E+00 -0.00000000000E+00 -0.10609087646E+04  0.10609087646E+04  0.00000000000E+00 0.  1.
         23    2    1    2    0    0 -0.53369695753E+03 -0.47827574060E+02 -0.59174128992E+03  0.80357456887E+03  0.91947888676E+02 0.  0.
        254    2    1    2    0    0  0.53369695753E+03  0.47827574060E+02  0.39008471988E+03  0.11165863903E+04  0.89859844150E+03 0.  0.
        -24    2    4    4    0    0  0.53111841320E+03  0.39822890740E+03  0.15155111435E+03  0.68524962676E+03  0.76982330340E+02 0.  0.
         24    2    4    4    0    0  0.25785443250E+01 -0.35040133334E+03  0.23853360554E+03  0.43133676357E+03  0.79783327448E+02 0.  0.
         13    1    3    3    0    0 -0.27879413369E+03 -0.10661047348E+02 -0.37190759724E+03  0.46492481951E+03  0.00000000000E+00 0. -1.
        -13    1    3    3    0    0 -0.25490282384E+03 -0.37166526712E+02 -0.21983369268E+03  0.33864974937E+03  0.00000000000E+00 0.  1.
          4    1    6    6  502    0  0.11405315191E+02 -0.56129501569E+01  0.14174367244E+01  0.12790447644E+02  0.00000000000E+00 0. -1.
          3    1    5    5  503    0  0.73847667747E+02  0.26728305773E+02  0.86789045428E+01  0.79013946523E+02  0.00000000000E+00 0. -1.
         -4    1    5    5    0  503  0.45727074546E+03  0.37150060162E+03  0.14287220981E+03  0.60623568024E+03  0.00000000000E+00 0.  1.
         -3    1    6    6    0  502 -0.88267708664E+01 -0.34478838318E+03  0.23711616881E+03  0.41854631592E+03  0.00000000000E+00 0.  1.
<mgrwt>
<rscale>  0 0.19095425E+04</rscale>
<asrwt>0</asrwt>
<pdfrwt beam="1">  1        2 0.13219265E+00 0.19095425E+04</pdfrwt>
<pdfrwt beam="2">  1       -2 0.16321673E+00 0.19095425E+04</pdfrwt>
<totfact> 0.69783744E+00</totfact>
</mgrwt>
</event>
<event>
12    1  0.1960998E-007  0.1415483E+04  0.7818608E-02  0.8942687E-01
          2   -1    0    0  501    0  0.00000000000E+00  0.00000000000E+00  0.27207548396E+04  0.27207548396E+04  0.00000000000E+00 0. -1.
         -2   -1    0    0    0  501 -0.00000000000E+00 -0.00000000000E+00 -0.18410251759E+03  0.18410251759E+03  0.00000000000E+00 0.  1.
         23    2    1    2    0    0  0.24331884401E+03 -0.17909544780E+03  0.13418226898E+04  0.13787690769E+04  0.96108259070E+02 0.  0.
        254    2    1    2    0    0 -0.24331884401E+03  0.17909544780E+03  0.11948296323E+04  0.15260882803E+04  0.90002686060E+03 0.  0.
        -24    2    4    4    0    0 -0.68451476544E+02  0.32989814774E+03  0.43614376205E+02  0.34914956284E+03  0.80528323541E+02 0.  0.
         24    2    4    4    0    0 -0.17486736746E+03 -0.15080269994E+03  0.11512152561E+04  0.11769387174E+04  0.81043990003E+02 0.  0.
         11    1    3    3    0    0  0.14814104545E+03 -0.12886057880E+03  0.66279069097E+03  0.69126139640E+03  0.00000000000E+00 0.  1.
        -11    1    3    3    0    0  0.95177798555E+02 -0.50234868996E+02  0.67903199879E+03  0.68750768052E+03  0.00000000000E+00 0. -1.
          4    1    6    6  502    0 -0.10661240789E+03 -0.13324561543E+03  0.89946350036E+03  0.91550815836E+03  0.00000000000E+00 0. -1.
          1    1    5    5  503    0 -0.60271534306E+02  0.27966306396E+03  0.65918567153E+02  0.29358021848E+03  0.00000000000E+00 0. -1.
         -2    1    5    5    0  503 -0.81799422384E+01  0.50235083785E+02 -0.22304190948E+02  0.55569344353E+02  0.00000000000E+00 0.  1.
         -3    1    6    6    0  502 -0.68254959574E+02 -0.17557084514E+02  0.25175175570E+03  0.26143055908E+03  0.00000000000E+00 0.  1.
<mgrwt>
<rscale>  0 0.14154827E+04</rscale>
<asrwt>0</asrwt>
<pdfrwt beam="1">  1        2 0.41857764E+00 0.14154827E+04</pdfrwt>
<pdfrwt beam="2">  1       -2 0.28323466E-01 0.14154827E+04</pdfrwt>
<totfact> 0.28794185E+01</totfact>
</mgrwt>
</event>
<event>
12    1  0.1960998E-007  0.2329510E+04  0.7818608E-02  0.8466376E-01
          2   -1    0    0  501    0  0.00000000000E+00  0.00000000000E+00  0.88552313471E+03  0.88552313471E+03  0.00000000000E+00 0. -1.
         -2   -1    0    0    0  501 -0.00000000000E+00 -0.00000000000E+00 -0.15320368106E+04  0.15320368106E+04  0.00000000000E+00 0.  1.
         23    2    1    2    0    0  0.35711235642E+03  0.91076001398E+03 -0.13355327971E+03  0.99140111637E+03  0.89591611519E+02 0.  0.
        254    2    1    2    0    0 -0.35711235642E+03 -0.91076001398E+03 -0.51296039618E+03  0.14261588289E+04  0.90210176761E+03 0.  0.
        -24    2    4    4    0    0 -0.84945779108E+01 -0.95501259106E+03 -0.45290401053E+03  0.10605588475E+04  0.86843648498E+02 0.  0.
         24    2    4    4    0    0 -0.34861777851E+03  0.44252577082E+02 -0.60056385647E+02  0.36559998145E+03  0.81018089990E+02 0.  0.
         13    1    3    3    0    0  0.21149689747E+03  0.56843458590E+03 -0.12523057366E+03  0.61929921094E+03  0.00000000000E+00 0.  1.
        -13    1    3    3    0    0  0.14561545895E+03  0.34232542807E+03 -0.83227060524E+01  0.37210190543E+03  0.00000000000E+00 0. -1.
          2    1    6    6  502    0 -0.71611201359E+02 -0.10978088740E+02  0.13558924659E+02  0.73705678414E+02  0.00000000000E+00 0. -1.
          1    1    5    5  503    0 -0.21237943560E+01 -0.18723374765E+03 -0.12814214404E+03  0.22689512080E+03  0.00000000000E+00 0. -1.
         -2    1    5    5    0  503 -0.63707835547E+01 -0.76777884341E+03 -0.32476186649E+03  0.83366372669E+03  0.00000000000E+00 0.  1.
         -1    1    6    6    0  502 -0.27700657715E+03  0.55230665822E+02 -0.73615310306E+02  0.29189430303E+03  0.00000000000E+00 0.  1.
<mgrwt>
<rscale>  0 0.23295099E+04</rscale>
<asrwt>0</asrwt>
<pdfrwt beam="1">  1        2 0.13623433E+00 0.23295099E+04</pdfrwt>
<pdfrwt beam="2">  1       -2 0.23569797E+00 0.23295099E+04</pdfrwt>
<totfact> 0.21364846E+00</totfact>
</mgrwt>
</event>
<event>
12    1  0.1960998E-007  0.2128121E+04  0.7818608E-02  0.8548956E-01
         -2   -1    0    0    0  501 -0.00000000000E+00  0.00000000000E+00  0.41056835064E+03  0.41056835064E+03  0.00000000000E+00 0.  1.
          2   -1    0    0  501    0  0.00000000000E+00 -0.00000000000E+00 -0.27577012006E+04  0.27577012006E+04  0.00000000000E+00 0. -1.
         23    2    1    2    0    0 -0.16906620818E+03 -0.76811330394E+03 -0.41847126174E+03  0.89563279936E+03  0.91970016587E+02 0.  0.
        254    2    1    2    0    0  0.16906620818E+03  0.76811330394E+03 -0.19286615882E+04  0.22726367519E+04  0.90915392189E+03 0.  0.
        -24    2    4    4    0    0 -0.33474565485E+03  0.13807079558E+03 -0.81580566379E+03  0.89615766938E+03  0.80258889194E+02 0.  0.
         24    2    4    4    0    0  0.50381186303E+03  0.63004250836E+03 -0.11128559245E+04  0.13764790825E+04  0.73935109019E+02 0.  0.
         11    1    3    3    0    0 -0.89639805649E+02 -0.28181117402E+03 -0.19748152381E+03  0.35560059731E+03  0.00000000000E+00 0. -1.
        -11    1    3    3    0    0 -0.79426402531E+02 -0.48630212992E+03 -0.22098973793E+03  0.54003220205E+03  0.00000000000E+00 0.  1.
          4    1    6    6  502    0  0.34627079778E+03  0.38788525350E+03 -0.67845818258E+03  0.85478882818E+03  0.00000000000E+00 0. -1.
          1    1    5    5  503    0 -0.28585324037E+03  0.13378928362E+03 -0.75286086604E+03  0.81634008296E+03  0.00000000000E+00 0. -1.
         -2    1    5    5    0  503 -0.48892414478E+02  0.42815119640E+01 -0.62944797749E+02  0.79817586420E+02  0.00000000000E+00 0.  1.
         -3    1    6    6    0  502  0.15754106525E+03  0.24215725485E+03 -0.43439774187E+03  0.52169025433E+03  0.00000000000E+00 0.  1.
<mgrwt>
<rscale>  0 0.21281211E+04</rscale>
<asrwt>0</asrwt>
<pdfrwt beam="1">  1        2 0.42426174E+00 0.21281211E+04</pdfrwt>
<pdfrwt beam="2">  1       -2 0.63164359E-01 0.21281211E+04</pdfrwt>
<totfact> 0.52390750E+00</totfact>
</mgrwt>
</event>
<event>
12    1  0.1960998E-007  0.1393091E+04  0.7818608E-02  0.8958835E-01
          1   -1    0    0  501    0  0.00000000000E+00  0.00000000000E+00  0.20357627973E+04  0.20357627973E+04  0.00000000000E+00 0. -1.
         -1   -1    0    0    0  501 -0.00000000000E+00 -0.00000000000E+00 -0.23832613817E+03  0.23832613817E+03  0.00000000000E+00 0.  1.
         23    2    1    2    0    0 -0.19226927184E+01 -0.38080526561E+03  0.71015565707E+03  0.81085326725E+03  0.90253070264E+02 0.  0.
        254    2    1    2    0    0  0.19226927184E+01  0.38080526561E+03  0.10872810020E+04  0.14632356682E+04  0.90214316836E+03 0.  0.
        -24    2    4    4    0    0  0.32474619984E+03 -0.88017729170E+02  0.18091172411E+03  0.39008567074E+03  0.78933919435E+02 0.  0.
         24    2    4    4    0    0 -0.32282350712E+03  0.46882299478E+03  0.90636927792E+03  0.10731499974E+04  0.78330274274E+02 0.  0.
         11    1    3    3    0    0 -0.43401038906E+02 -0.22930002566E+03  0.39707371369E+03  0.46057538585E+03  0.00000000000E+00 0. -1.
        -11    1    3    3    0    0  0.41478346188E+02 -0.15150523995E+03  0.31308194338E+03  0.35027788141E+03  0.00000000000E+00 0.  1.
          4    1    6    6  502    0 -0.14311075711E+03  0.14629906385E+03  0.34917407321E+03  0.40473032785E+03  0.00000000000E+00 0. -1.
          1    1    5    5  503    0  0.25528107580E+02  0.95688098826E+01  0.40168705632E+00  0.27265504794E+02  0.00000000000E+00 0. -1.
         -2    1    5    5    0  503  0.29921809226E+03 -0.97586539053E+02  0.18051003705E+03  0.36282016595E+03  0.00000000000E+00 0.  1.
         -3    1    6    6    0  502 -0.17971275002E+03  0.32252393093E+03  0.55719520472E+03  0.66841966959E+03  0.00000000000E+00 0.  1.
<mgrwt>
<rscale>  0 0.13930908E+04</rscale>
<asrwt>0</asrwt>
<pdfrwt beam="1">  1        1 0.31319426E+00 0.13930908E+04</pdfrwt>
<pdfrwt beam="2">  1       -1 0.36665561E-01 0.13930908E+04</pdfrwt>
<totfact> 0.19640136E+01</totfact>
</mgrwt>
</event>
<event>
12    1  0.1960998E-007  0.1470276E+04  0.7818608E-02  0.8904463E-01
          1   -1    0    0  501    0  0.00000000000E+00  0.00000000000E+00  0.47844226949E+03  0.47844226949E+03  0.00000000000E+00 0. -1.
         -1   -1    0    0    0  501 -0.00000000000E+00 -0.00000000000E+00 -0.11295566160E+04  0.11295566160E+04  0.00000000000E+00 0.  1.
         23    2    1    2    0    0 -0.41084840372E+03 -0.12411913921E+02 -0.19925079263E+02  0.42231920686E+03  0.94900143599E+02 0.  0.
        254    2    1    2    0    0  0.41084840372E+03  0.12411913921E+02 -0.63118926722E+03  0.11856796786E+04  0.91568878050E+03 0.  0.
        -24    2    4    4    0    0  0.35323658036E+03 -0.36501757381E+03 -0.60583512458E+03  0.79480154613E+03  0.81605077517E+02 0.  0.
         24    2    4    4    0    0  0.57611823362E+02  0.37742948773E+03 -0.25354142642E+02  0.39087813246E+03  0.79816924825E+02 0.  0.
         13    1    3    3    0    0 -0.48656361532E+02  0.29968203696E+02 -0.47157742054E+01  0.57339107742E+02  0.00000000000E+00 0.  1.
        -13    1    3    3    0    0 -0.36219204219E+03 -0.42380117618E+02 -0.15209305058E+02  0.36498009912E+03  0.00000000000E+00 0. -1.
          4    1    6    6  502    0  0.22285690180E+02  0.31619530248E+03 -0.39098886773E+01  0.31700379892E+03  0.00000000000E+00 0. -1.
          3    1    5    5  503    0  0.32176280203E+03 -0.29247918484E+03 -0.52559468701E+03  0.68214745426E+03  0.00000000000E+00 0. -1.
         -4    1    5    5    0  503  0.31473778328E+02 -0.72538388966E+02 -0.80240437567E+02  0.11265409188E+03  0.00000000000E+00 0.  1.
         -3    1    6    6    0  502  0.35326133182E+02  0.61234185248E+02 -0.21444253965E+02  0.73874333545E+02  0.00000000000E+00 0.  1.
<mgrwt>
<rscale>  0 0.14702757E+04</rscale>
<asrwt>0</asrwt>
<pdfrwt beam="1">  1        1 0.73606504E-01 0.14702757E+04</pdfrwt>
<pdfrwt beam="2">  1       -1 0.17377794E+00 0.14702757E+04</pdfrwt>
<totfact> 0.10542487E+01</totfact>
</mgrwt>
</event>
<event>
12    1  0.1960998E-007  0.1696366E+04  0.7818608E-02  0.8763440E-01
         -1   -1    0    0    0  501 -0.00000000000E+00  0.00000000000E+00  0.21254112883E+03  0.21254112883E+03  0.00000000000E+00 0.  1.
          1   -1    0    0  501    0  0.00000000000E+00 -0.00000000000E+00 -0.33848253028E+04  0.33848253028E+04  0.00000000000E+00 0. -1.
         23    2    1    2    0    0 -0.24001749289E+03 -0.48963858155E+03 -0.58879968959E+03  0.80749648819E+03  0.89505120171E+02 0.  0.
        254    2    1    2    0    0  0.24001749289E+03  0.48963858155E+03 -0.25834844843E+04  0.27898699434E+04  0.90090392541E+03 0.  0.
        -24    2    4    4    0    0  0.46990182503E+03 -0.22242415327E+02 -0.10006967917E+04  0.11086804768E+04  0.80472855704E+02 0.  0.
         24    2    4    4    0    0 -0.22988433214E+03  0.51188099688E+03 -0.15827876927E+04  0.16811894667E+04  0.79449238556E+02 0.  0.
         13    1    3    3    0    0 -0.91039786025E+02 -0.22303985571E+03 -0.20008180210E+03  0.31315770373E+03  0.00000000000E+00 0.  1.
        -13    1    3    3    0    0 -0.14897770687E+03 -0.26659872584E+03 -0.38871788749E+03  0.49433878446E+03  0.00000000000E+00 0. -1.
          4    1    6    6  502    0 -0.94048757073E+02  0.21168906198E+03 -0.54005769871E+03  0.58763912872E+03  0.00000000000E+00 0. -1.
          3    1    5    5  503    0  0.17442661346E+03  0.15763900851E+02 -0.44380465132E+03  0.47711184494E+03  0.00000000000E+00 0. -1.
         -2    1    5    5    0  503  0.29547521157E+03 -0.38006316178E+02 -0.55689214034E+03  0.63156863181E+03  0.00000000000E+00 0.  1.
         -3    1    6    6    0  502 -0.13583557506E+03  0.30019193490E+03 -0.10427299940E+04  0.10935503379E+04  0.00000000000E+00 0.  1.
<mgrwt>
<rscale>  0 0.16963662E+04</rscale>
<asrwt>0</asrwt>
<pdfrwt beam="1">  1        1 0.52074235E+00 0.16963662E+04</pdfrwt>
<pdfrwt beam="2">  1       -1 0.32698636E-01 0.16963662E+04</pdfrwt>
<totfact> 0.25820076E+00</totfact>
</mgrwt>
</event>
<event>
12    1  0.1960998E-007  0.1768579E+04  0.7818608E-02  0.8723190E-01
         -1   -1    0    0    0  501 -0.00000000000E+00  0.00000000000E+00  0.55614199056E+03  0.55614199056E+03  0.00000000000E+00 0.  1.
          1   -1    0    0  501    0  0.00000000000E+00 -0.00000000000E+00 -0.14060576934E+04  0.14060576934E+04  0.00000000000E+00 0. -1.
         23    2    1    2    0    0 -0.31799751753E+02  0.62697478257E+03 -0.50654153671E+03  0.81185388619E+03  0.91726778702E+02 0.  0.
        254    2    1    2    0    0  0.31799751753E+02 -0.62697478257E+03 -0.34337416616E+03  0.11503457978E+04  0.90071140457E+03 0.  0.
        -24    2    4    4    0    0 -0.38060586086E+03 -0.17089506651E+03 -0.31711772860E+03  0.52972492604E+03  0.77323336646E+02 0.  0.
         24    2    4    4    0    0  0.41240561262E+03 -0.45607971606E+03 -0.26256437555E+02  0.62062087176E+03  0.79961048211E+02 0.  0.
         13    1    3    3    0    0 -0.61589097429E+02  0.41545238915E+03 -0.35534226062E+03  0.55014727733E+03  0.00000000000E+00 0.  1.
        -13    1    3    3    0    0  0.29789345677E+02  0.21152239342E+03 -0.15119927609E+03  0.26170660886E+03  0.00000000000E+00 0. -1.
          4    1    6    6  502    0  0.74850391658E+02 -0.11420599693E+03  0.19812225422E+02  0.13797867640E+03  0.00000000000E+00 0. -1.
          3    1    5    5  503    0 -0.24869756940E+03 -0.13021822955E+03 -0.25140325886E+03  0.37684329223E+03  0.00000000000E+00 0. -1.
         -4    1    5    5    0  503 -0.13190829146E+03 -0.40676836958E+02 -0.65714469737E+02  0.15288163380E+03  0.00000000000E+00 0.  1.
         -3    1    6    6    0  502  0.33755522096E+03 -0.34187371913E+03 -0.46068662977E+02  0.48264219535E+03  0.00000000000E+00 0.  1.
<mgrwt>
<rscale>  0 0.17685788E+04</rscale>
<asrwt>0</asrwt>
<pdfrwt beam="1">  1        1 0.21631656E+00 0.17685788E+04</pdfrwt>
<pdfrwt beam="2">  1       -1 0.85560308E-01 0.17685788E+04</pdfrwt>
<totfact> 0.97149951E+00</totfact>
</mgrwt>
</event>
<event>
12    1  0.1960998E-007  0.1598187E+04  0.7818608E-02  0.8821662E-01
          2   -1    0    0  501    0  0.00000000000E+00  0.00000000000E+00  0.14309859304E+04  0.14309859304E+04  0.00000000000E+00 0. -1.
         -2   -1    0    0    0  501 -0.00000000000E+00 -0.00000000000E+00 -0.44623130956E+03  0.44623130956E+03  0.00000000000E+00 0.  1.
         23    2    1    2    0    0  0.14020498987E+03  0.19078246591E+03  0.90644742882E+03  0.94122255839E+03  0.90540459101E+02 0.  0.
        254    2    1    2    0    0 -0.14020498987E+03 -0.19078246591E+03  0.78307191983E+02  0.93599468153E+03  0.90216331063E+03 0.  0.
        -24    2    4    4    0    0 -0.32185521138E+03  0.26513503918E+03 -0.36407362017E+02  0.42583735617E+03  0.78259771302E+02 0.  0.
         24    2    4    4    0    0  0.18165022151E+03 -0.45591750509E+03  0.11471455400E+03  0.51015732536E+03  0.79015778753E+02 0.  0.
         13    1    3    3    0    0  0.11240292124E+02  0.30361753831E+02  0.27909912961E+03  0.28097064689E+03  0.00000000000E+00 0. -1.
        -13    1    3    3    0    0  0.12896469775E+03  0.16042071208E+03  0.62734829921E+03  0.66025191151E+03  0.00000000000E+00 0.  1.
          4    1    6    6  502    0  0.34671251998E+02 -0.59198770246E+02  0.43233273704E+02  0.81090727391E+02  0.00000000000E+00 0. -1.
          3    1    5    5  503    0 -0.10708252136E+03  0.73322285399E+02  0.23036058076E+02  0.13180851220E+03  0.00000000000E+00 0. -1.
         -4    1    5    5    0  503 -0.21477269003E+03  0.19181275378E+03 -0.59443420093E+02  0.29402884397E+03  0.00000000000E+00 0.  1.
         -3    1    6    6    0  502  0.14697896951E+03 -0.39671873485E+03  0.71481280296E+02  0.42906659797E+03  0.00000000000E+00 0.  1.
<mgrwt>
<rscale>  0 0.15981874E+04</rscale>
<asrwt>0</asrwt>
<pdfrwt beam="1">  1        2 0.22015168E+00 0.15981874E+04</pdfrwt>
<pdfrwt beam="2">  1       -2 0.68650971E-01 0.15981874E+04</pdfrwt>
<totfact> 0.25840516E+01</totfact>
</mgrwt>
</event>
<event>
12    1  0.1960998E-007  0.1080002E+04  0.7818608E-02  0.9224905E-01
          1   -1    0    0  501    0  0.00000000000E+00  0.00000000000E+00  0.17772684398E+04  0.17772684398E+04  0.00000000000E+00 0. -1.
         -1   -1    0    0    0  501 -0.00000000000E+00 -0.00000000000E+00 -0.16407274260E+03  0.16407274260E+03  0.00000000000E+00 0.  1.
         23    2    1    2    0    0  0.12105033443E+03 -0.75104090042E+02  0.32113930511E+03  0.36212314773E+03  0.87800415867E+02 0.  0.
        254    2    1    2    0    0 -0.12105033443E+03  0.75104090042E+02  0.12920563921E+04  0.15792180347E+04  0.89678652583E+03 0.  0.
        -24    2    4    4    0    0  0.31454651858E+03  0.13378573921E+03  0.21014757260E+03  0.40875325400E+03  0.77968480932E+02 0.  0.
         24    2    4    4    0    0 -0.43559685302E+03 -0.58681649165E+02  0.10819088195E+04  0.11704647807E+04  0.79201987365E+02 0.  0.
         11    1    3    3    0    0  0.95127169925E+02 -0.20171507484E+02  0.25189077491E+03  0.27000931587E+03  0.00000000000E+00 0. -1.
        -11    1    3    3    0    0  0.25923164509E+02 -0.54932582558E+02  0.69248530199E+02  0.92113831857E+02  0.00000000000E+00 0.  1.
          4    1    6    6  502    0 -0.11852908335E+03  0.88083399206E+01  0.35997114309E+03  0.37908568201E+03  0.00000000000E+00 0. -1.
          1    1    5    5  503    0  0.88227515698E+01  0.22035085209E+02  0.58530577029E+01  0.24446762769E+02  0.00000000000E+00 0. -1.
         -2    1    5    5    0  503  0.30572376701E+03  0.11175065400E+03  0.20429451490E+03  0.38430649123E+03  0.00000000000E+00 0.  1.
         -3    1    6    6    0  502 -0.31706776967E+03 -0.67489989086E+02  0.72193767642E+03  0.79137909867E+03  0.00000000000E+00 0.  1.
<mgrwt>
<rscale>  0 0.10800024E+04</rscale>
<asrwt>0</asrwt>
<pdfrwt beam="1">  1        1 0.27342590E+00 0.10800024E+04</pdfrwt>
<pdfrwt beam="2">  1       -1 0.25241962E-01 0.10800024E+04</pdfrwt>
<totfact> 0.58108475E+01</totfact>
</mgrwt>
</event>
<event>
12    1  0.1960998E-007  0.1439257E+04  0.7818608E-02  0.8925883E-01
          2   -1    0    0  501    0  0.00000000000E+00  0.00000000000E+00  0.46161838314E+03  0.46161838314E+03  0.00000000000E+00 0. -1.
         -2   -1    0    0    0  501 -0.00000000000E+00 -0.00000000000E+00 -0.11218465083E+04  0.11218465083E+04  0.00000000000E+00 0.  1.
         23    2    1    2    0    0  0.38208130936E+03 -0.12285472222E+03 -0.38714695313E+03  0.56516441084E+03  0.91916474172E+02 0.  0.
        254    2    1    2    0    0 -0.38208130936E+03  0.12285472222E+03 -0.27308117202E+03  0.10183004806E+04  0.89514419650E+03 0.  0.
        -24    2    4    4    0    0 -0.65773597251E+03 -0.27182538051E+01 -0.13640853085E+03  0.67655381079E+03  0.80583951120E+02 0.  0.
         24    2    4    4    0    0  0.27565466315E+03  0.12557297603E+03 -0.13667264118E+03  0.34174666980E+03  0.79732740144E+02 0.  0.
         13    1    3    3    0    0  0.78949556917E+02 -0.66840663790E+02 -0.10024827413E+03  0.14405007233E+03  0.00000000000E+00 0. -1.
        -13    1    3    3    0    0  0.30313175245E+03 -0.56014058434E+02 -0.28689867900E+03  0.42111433851E+03  0.00000000000E+00 0.  1.
          2    1    6    6  502    0  0.24208343150E+02 -0.69560052796E+01 -0.27434493590E+02  0.37243540730E+02  0.00000000000E+00 0. -1.
          1    1    5    5  503    0 -0.24513530214E+03  0.14155877184E+02 -0.14420172407E+02  0.24596675911E+03  0.00000000000E+00 0. -1.
         -2    1    5    5    0  503 -0.41260067036E+03 -0.16874130990E+02 -0.12198835844E+03  0.43058705168E+03  0.00000000000E+00 0.  1.
         -1    1    6    6    0  502  0.25144631999E+03  0.13252898131E+03 -0.10923814759E+03  0.30450312907E+03  0.00000000000E+00 0.  1.
<mgrwt>
<rscale>  0 0.14392567E+04</rscale>
<asrwt>0</asrwt>
<pdfrwt beam="1">  1        2 0.71018213E-01 0.14392567E+04</pdfrwt>
<pdfrwt beam="2">  1       -2 0.17259177E+00 0.14392567E+04</pdfrwt>
<totfact> 0.13377647E+01</totfact>
</mgrwt>
</event>
<event>
12    1  0.1960998E-007  0.1592102E+04  0.7818608E-02  0.8825415E-01
         -2   -1    0    0    0  501 -0.00000000000E+00  0.00000000000E+00  0.44707979176E+03  0.44707979176E+03  0.00000000000E+00 0.  1.
          2   -1    0    0  501    0  0.00000000000E+00 -0.00000000000E+00 -0.14174147571E+04  0.14174147571E+04  0.00000000000E+00 0. -1.
         23    2    1    2    0    0  0.27007622665E+03  0.32066357418E+03 -0.72365175864E+03  0.84132977539E+03  0.91638568137E+02 0.  0.
        254    2    1    2    0    0 -0.27007622665E+03 -0.32066357418E+03 -0.24668320669E+03  0.10231647735E+04  0.90013735239E+03 0.  0.
        -24    2    4    4    0    0 -0.38660703213E+03 -0.29478144261E+03  0.21633918404E+03  0.53821910559E+03  0.80722158493E+02 0.  0.
         24    2    4    4    0    0  0.11653080547E+03 -0.25882131566E+02 -0.46302239073E+03  0.48494566787E+03  0.80828541411E+02 0.  0.
         13    1    3    3    0    0  0.17286359129E+03  0.15610913563E+03 -0.46099227370E+03  0.51649371713E+03  0.00000000000E+00 0. -1.
        -13    1    3    3    0    0  0.97212635364E+02  0.16455443855E+03 -0.26265948494E+03  0.32483605826E+03  0.00000000000E+00 0.  1.
          2    1    6    6  502    0  0.14675051111E+02 -0.47546398934E+01 -0.22070934674E+03  0.22124777844E+03  0.00000000000E+00 0. -1.
          1    1    5    5  503    0 -0.22594199979E+03 -0.19327822533E+03  0.17041611306E+03  0.34270674234E+03  0.00000000000E+00 0. -1.
         -2    1    5    5    0  503 -0.16066503234E+03 -0.10150321728E+03  0.45923070983E+02  0.19551236325E+03  0.00000000000E+00 0.  1.
         -1    1    6    6    0  502  0.10185575436E+03 -0.21127491672E+02 -0.24231304399E+03  0.26369788943E+03  0.00000000000E+00 0.  1.
<mgrwt>
<rscale>  0 0.15921024E+04</rscale>
<asrwt>0</asrwt>
<pdfrwt beam="1">  1        2 0.21806381E+00 0.15921024E+04</pdfrwt>
<pdfrwt beam="2">  1       -2 0.68781507E-01 0.15921024E+04</pdfrwt>
<totfact> 0.26209388E+01</totfact>
</mgrwt>
</event>
<event>
12    1  0.1960998E-007  0.3331975E+04  0.7818608E-02  0.8154807E-01
          1   -1    0    0  501    0  0.00000000000E+00  0.00000000000E+00  0.92859307561E+03  0.92859307561E+03  0.00000000000E+00 0. -1.
         -1   -1    0    0    0  501 -0.00000000000E+00 -0.00000000000E+00 -0.29889452489E+04  0.29889452489E+04  0.00000000000E+00 0.  1.
         23    2    1    2    0    0  0.43328844117E+03 -0.11833919056E+04  0.92425592611E+02  0.12669134590E+04  0.91498343622E+02 0.  0.
        254    2    1    2    0    0 -0.43328844117E+03  0.11833919056E+04 -0.21527777659E+04  0.26506248655E+04  0.89621693405E+03 0.  0.
        -24    2    4    4    0    0  0.19724367536E+03  0.71575912836E+03 -0.89064262891E+03  0.11622474749E+04  0.79741477150E+02 0.  0.
         24    2    4    4    0    0 -0.63053211653E+03  0.46763277725E+03 -0.12621351370E+04  0.14883773906E+04  0.77659439727E+02 0.  0.
         11    1    3    3    0    0  0.34015854017E+03 -0.99149300259E+03  0.10353244266E+03  0.10533210210E+04  0.00000000000E+00 0. -1.
        -11    1    3    3    0    0  0.93129900998E+02 -0.19189890302E+03 -0.11106850053E+02  0.21359243797E+03  0.00000000000E+00 0.  1.
          2    1    6    6  502    0 -0.12856677663E+03  0.96441425974E+02 -0.32126166792E+03  0.35922057844E+03  0.00000000000E+00 0. -1.
          3    1    5    5  503    0 -0.54189988165E+01  0.11624387038E+02 -0.80458803853E+01  0.15140281152E+02  0.00000000000E+00 0. -1.
         -2    1    5    5    0  503  0.20266267418E+03  0.70413474132E+03 -0.88259674853E+03  0.11471071937E+04  0.00000000000E+00 0.  1.
         -1    1    6    6    0  502 -0.50196533990E+03  0.37119135128E+03 -0.94087346905E+03  0.11291568122E+04  0.00000000000E+00 0.  1.
<mgrwt>
<rscale>  0 0.33319747E+04</rscale>
<asrwt>0</asrwt>
<pdfrwt beam="1">  1        1 0.14286047E+00 0.33319747E+04</pdfrwt>
<pdfrwt beam="2">  1       -1 0.45983773E+00 0.33319747E+04</pdfrwt>
<totfact> 0.39467274E-02</totfact>
</mgrwt>
</event>
<event>
12    1  0.2386963E-007  0.1938421E+04  0.7818608E-02  0.8635965E-01
          2   -1    0    0  501    0  0.00000000000E+00  0.00000000000E+00  0.13520391812E+04  0.13520391812E+04  0.00000000000E+00 0. -1.
         -2   -1    0    0    0  501 -0.00000000000E+00 -0.00000000000E+00 -0.69477954777E+03  0.69477954777E+03  0.00000000000E+00 0.  1.
         23    2    1    2    0    0  0.55365630389E+03  0.27666947131E+03 -0.20449814118E+03  0.65822751058E+03  0.91447617457E+02 0.  0.
        254    2    1    2    0    0 -0.55365630389E+03 -0.27666947131E+03  0.86175777460E+03  0.13885912184E+04  0.89581125829E+03 0.  0.
        -24    2    4    4    0    0 -0.94513603971E+02  0.27076544217E+03  0.45792308274E+02  0.30087613688E+03  0.78630580813E+02 0.  0.
         24    2    4    4    0    0 -0.45914269992E+03 -0.54743491348E+03  0.81596546633E+03  0.10877150815E+04  0.82628402495E+02 0.  0.
         13    1    3    3    0    0  0.13880544856E+03  0.61647204090E+02 -0.10341934295E+02  0.15223102814E+03  0.00000000000E+00 0. -1.
        -13    1    3    3    0    0  0.41485085533E+03  0.21502226722E+03 -0.19415620689E+03  0.50599648244E+03  0.00000000000E+00 0.  1.
          2    1    6    6  502    0 -0.21126966393E+03 -0.24429853316E+03  0.30757256751E+03  0.44600171355E+03  0.00000000000E+00 0. -1.
          1    1    5    5  503    0 -0.19968326981E+02  0.13030053669E+03  0.52067948569E+02  0.14173226596E+03  0.00000000000E+00 0. -1.
         -2    1    5    5    0  503 -0.74545276990E+02  0.14046490548E+03 -0.62756402950E+01  0.15914387093E+03  0.00000000000E+00 0.  1.
         -1    1    6    6    0  502 -0.24787303599E+03 -0.30313638032E+03  0.50839289881E+03  0.64171336795E+03  0.00000000000E+00 0.  1.
<mgrwt>
<rscale>  0 0.19384212E+04</rscale>
<asrwt>0</asrwt>
<pdfrwt beam="1">  1        2 0.20800603E+00 0.19384212E+04</pdfrwt>
<pdfrwt beam="2">  1       -2 0.10688916E+00 0.19384212E+04</pdfrwt>
<totfact> 0.10140353E+01</totfact>
</mgrwt>
</event>
<event>
12    1  0.1960998E-007  0.1522237E+04  0.7818608E-02  0.8869799E-01
         -2   -1    0    0    0  501 -0.00000000000E+00  0.00000000000E+00  0.34323287836E+03  0.34323287836E+03  0.00000000000E+00 0.  1.
          2   -1    0    0  501    0  0.00000000000E+00 -0.00000000000E+00 -0.16877788639E+04  0.16877788639E+04  0.00000000000E+00 0. -1.
         23    2    1    2    0    0  0.93213372775E+02 -0.24249958789E+03  0.11337864434E+03  0.29796452197E+03  0.91833307533E+02 0.  0.
        254    2    1    2    0    0 -0.93213372775E+02  0.24249958789E+03 -0.14579246299E+04  0.17330472203E+04  0.90022978084E+03 0.  0.
        -24    2    4    4    0    0 -0.18218381447E+03  0.16771914583E+03 -0.15437192321E+04  0.15656213734E+04  0.82344174143E+02 0.  0.
         24    2    4    4    0    0  0.88970441690E+02  0.74780442057E+02  0.85794602289E+02  0.16742584686E+03  0.84633600930E+02 0.  0.
         13    1    3    3    0    0  0.38155114814E+02 -0.12141544186E+03  0.66818619453E+01  0.12744477074E+03  0.00000000000E+00 0. -1.
        -13    1    3    3    0    0  0.55058257962E+02 -0.12108414602E+03  0.10669678239E+03  0.17051975123E+03  0.00000000000E+00 0.  1.
          4    1    6    6  502    0  0.67304000015E+02  0.23331416811E+02  0.85909990356E+02  0.11160067146E+03  0.00000000000E+00 0. -1.
          1    1    5    5  503    0 -0.18503169673E+03  0.16624263573E+03 -0.14039402225E+04  0.14258055586E+04  0.00000000000E+00 0. -1.
         -2    1    5    5    0  503  0.28478822690E+01  0.14765101021E+01 -0.13977900969E+03  0.13981581479E+03  0.00000000000E+00 0.  1.
         -3    1    6    6    0  502  0.21666441675E+02  0.51449025246E+02 -0.11538806719E+00  0.55825175396E+02  0.00000000000E+00 0.  1.
<mgrwt>
<rscale>  0 0.15222368E+04</rscale>
<asrwt>0</asrwt>
<pdfrwt beam="1">  1        2 0.25965829E+00 0.15222368E+04</pdfrwt>
<pdfrwt beam="2">  1       -2 0.52805058E-01 0.15222368E+04</pdfrwt>
<totfact> 0.32501740E+01</totfact>
</mgrwt>
</event>
<event>
12    1  0.1960998E-007  0.1096313E+04  0.7818608E-02  0.9208793E-01
          2   -1    0    0  501    0  0.00000000000E+00  0.00000000000E+00  0.28970600770E+04  0.28970600770E+04  0.00000000000E+00 0. -1.
         -2   -1    0    0    0  501 -0.00000000000E+00 -0.00000000000E+00 -0.10371737892E+03  0.10371737892E+03  0.00000000000E+00 0.  1.
         23    2    1    2    0    0  0.88796092782E+02  0.97252781606E+02  0.20398780530E+03  0.25769484799E+03  0.86329371289E+02 0.  0.
        254    2    1    2    0    0 -0.88796092782E+02 -0.97252781606E+02  0.25893548928E+04  0.27430826080E+04  0.89576815277E+03 0.  0.
        -24    2    4    4    0    0 -0.32437549047E+03 -0.34897255146E+03  0.94747831218E+03  0.10634569945E+04  0.78894401828E+02 0.  0.
         24    2    4    4    0    0  0.23557939769E+03  0.25171976985E+03  0.16418765806E+04  0.16796256135E+04  0.80765092401E+02 0.  0.
         13    1    3    3    0    0  0.37880650580E+02  0.22059214111E+01  0.10376203454E+03  0.11048244019E+03  0.00000000000E+00 0. -1.
        -13    1    3    3    0    0  0.50915442202E+02  0.95046860195E+02  0.10022577076E+03  0.14721240781E+03  0.00000000000E+00 0.  1.
          4    1    6    6  502    0  0.17978443530E+03  0.13819343575E+03  0.11082699452E+04  0.11312303657E+04  0.00000000000E+00 0. -1.
          3    1    5    5  503    0 -0.21694435400E+03 -0.17656361866E+03  0.53928698457E+03  0.60751132985E+03  0.00000000000E+00 0. -1.
         -4    1    5    5    0  503 -0.10743113647E+03 -0.17240893280E+03  0.40819132761E+03  0.45594566467E+03  0.00000000000E+00 0.  1.
         -3    1    6    6    0  502  0.55794962392E+02  0.11352633410E+03  0.53360663547E+03  0.54839524777E+03  0.00000000000E+00 0.  1.
<mgrwt>
<rscale>  0 0.10963129E+04</rscale>
<asrwt>0</asrwt>
<pdfrwt beam="1">  1        2 0.44570149E+00 0.10963129E+04</pdfrwt>
<pdfrwt beam="2">  1       -2 0.15956522E-01 0.10963129E+04</pdfrwt>
<totfact> 0.64392936E+01</totfact>
</mgrwt>
</event>
<event>
12    1  0.1960998E-007  0.1519129E+04  0.7818608E-02  0.8871831E-01
          1   -1    0    0  501    0  0.00000000000E+00  0.00000000000E+00  0.13527857948E+04  0.13527857948E+04  0.00000000000E+00 0. -1.
         -1   -1    0    0    0  501 -0.00000000000E+00 -0.00000000000E+00 -0.42648165269E+03  0.42648165269E+03  0.00000000000E+00 0.  1.
         23    2    1    2    0    0 -0.44590386660E+03  0.38246415327E+02  0.49722360903E+03  0.67552586562E+03  0.93866027962E+02 0.  0.
        254    2    1    2    0    0  0.44590386660E+03 -0.38246415327E+02  0.42908053306E+03  0.11037415819E+04  0.91314967510E+03 0.  0.
        -24    2    4    4    0    0  0.48230474335E+03 -0.16863394048E+03 -0.12136054533E+03  0.53132512392E+03  0.80763444801E+02 0.  0.
         24    2    4    4    0    0 -0.36400876749E+02  0.13038752515E+03  0.55044107839E+03  0.57241645793E+03  0.79682432101E+02 0.  0.
         11    1    3    3    0    0 -0.34622484433E+03  0.54593230386E+02  0.33773660616E+03  0.48674231250E+03  0.00000000000E+00 0.  1.
        -11    1    3    3    0    0 -0.99679022268E+02 -0.16346815059E+02  0.15948700287E+03  0.18878355312E+03  0.00000000000E+00 0. -1.
          2    1    6    6  502    0 -0.10686729135E+02  0.12699710998E+03  0.40174859047E+03  0.42147882754E+03  0.00000000000E+00 0. -1.
          1    1    5    5  503    0  0.28846020250E+03 -0.91176242565E+02 -0.11124860921E+03  0.32233313309E+03  0.00000000000E+00 0. -1.
         -2    1    5    5    0  503  0.19384454085E+03 -0.77457697912E+02 -0.10111936115E+02  0.20899199084E+03  0.00000000000E+00 0.  1.
         -1    1    6    6    0  502 -0.25714147613E+02  0.33904151721E+01  0.14869248793E+03  0.15093763039E+03  0.00000000000E+00 0.  1.
<mgrwt>
<rscale>  0 0.15191291E+04</rscale>
<asrwt>0</asrwt>
<pdfrwt beam="1">  1        1 0.20812089E+00 0.15191291E+04</pdfrwt>
<pdfrwt beam="2">  1       -1 0.65612563E-01 0.15191291E+04</pdfrwt>
<totfact> 0.18865299E+01</totfact>
</mgrwt>
</event>
<event>
12    1  0.1960998E-007  0.1634680E+04  0.7818608E-02  0.8799522E-01
         -2   -1    0    0    0  501 -0.00000000000E+00  0.00000000000E+00  0.11075945022E+04  0.11075945022E+04  0.00000000000E+00 0.  1.
          2   -1    0    0  501    0  0.00000000000E+00 -0.00000000000E+00 -0.60314884596E+03  0.60314884596E+03  0.00000000000E+00 0. -1.
         23    2    1    2    0    0 -0.26066774286E+03  0.35279614809E+02 -0.33801816593E+03  0.44453939414E+03  0.11902381717E+03 0.  0.
        254    2    1    2    0    0  0.26066774286E+03 -0.35279614809E+02  0.84246382217E+03  0.12662039540E+04  0.90792887283E+03 0.  0.
        -24    2    4    4    0    0  0.63797216044E+00  0.30636817574E+03  0.75810799219E+03  0.82152861908E+03  0.79496402548E+02 0.  0.
         24    2    4    4    0    0  0.26002977070E+03 -0.34164779055E+03  0.84355829979E+02  0.44467533495E+03  0.79256249079E+02 0.  0.
         13    1    3    3    0    0  0.11000717678E+02 -0.56269009018E+01 -0.64400644250E+01  0.13933852051E+02  0.00000000000E+00 0.  1.
        -13    1    3    3    0    0 -0.27166846054E+03  0.40906515711E+02 -0.33157810151E+03  0.43060554209E+03  0.00000000000E+00 0. -1.
          4    1    6    6  502    0  0.49246309282E+02 -0.10147813836E+03  0.49676127696E+02  0.12325067629E+03  0.00000000000E+00 0. -1.
          1    1    5    5  503    0  0.36696940182E+02  0.18636929726E+03  0.42021923503E+03  0.46115548990E+03  0.00000000000E+00 0. -1.
         -2    1    5    5    0  503 -0.36058968022E+02  0.11999887849E+03  0.33788875717E+03  0.36037312918E+03  0.00000000000E+00 0.  1.
         -3    1    6    6    0  502  0.21078346142E+03 -0.24016965219E+03  0.34679702283E+02  0.32142465866E+03  0.00000000000E+00 0.  1.
<mgrwt>
<rscale>  0 0.16346796E+04</rscale>
<asrwt>0</asrwt>
<pdfrwt beam="1">  1        2 0.92792130E-01 0.16346796E+04</pdfrwt>
<pdfrwt beam="2">  1       -2 0.17039915E+00 0.16346796E+04</pdfrwt>
<totfact> 0.99712468E+00</totfact>
</mgrwt>
</event>
<event>
12    1  0.1960998E-007  0.3843094E+04  0.7818608E-02  0.8036970E-01
         -2   -1    0    0    0  501 -0.00000000000E+00  0.00000000000E+00  0.17667414662E+04  0.17667414662E+04  0.00000000000E+00 0.  1.
          2   -1    0    0  501    0  0.00000000000E+00 -0.00000000000E+00 -0.20899170868E+04  0.20899170868E+04  0.00000000000E+00 0. -1.
         23    2    1    2    0    0 -0.15356371552E+03  0.17795877919E+04 -0.47401048127E+03  0.18502308817E+04  0.90298700169E+02 0.  0.
        254    2    1    2    0    0  0.15356371552E+03 -0.17795877919E+04  0.15083486064E+03  0.20064276713E+04  0.90138023113E+03 0.  0.
        -24    2    4    4    0    0 -0.22886700210E+03 -0.11055197001E+04 -0.20426772951E+03  0.11499417387E+04  0.78017851193E+02 0.  0.
         24    2    4    4    0    0  0.38243071763E+03 -0.67406809184E+03  0.35510259015E+03  0.85648593262E+03  0.82760238196E+02 0.  0.
         11    1    3    3    0    0 -0.65788520904E+02  0.45361787009E+03 -0.91561923005E+02  0.46741939122E+03  0.00000000000E+00 0.  1.
        -11    1    3    3    0    0 -0.87775194618E+02  0.13259699218E+04 -0.38244855826E+03  0.13828114904E+04  0.00000000000E+00 0. -1.
          4    1    6    6  502    0  0.11552392178E+03 -0.13378311119E+03  0.77498656908E+02  0.19300191492E+03  0.00000000000E+00 0. -1.
          1    1    5    5  503    0 -0.30850674348E+02 -0.83717362832E+02 -0.33022163295E+02  0.95135819836E+02  0.00000000000E+00 0. -1.
         -2    1    5    5    0  503 -0.19801632776E+03 -0.10218023372E+04 -0.17124556621E+03  0.10548059188E+04  0.00000000000E+00 0.  1.
         -3    1    6    6    0  502  0.26690679585E+03 -0.54028498065E+03  0.27760393324E+03  0.66348401770E+03  0.00000000000E+00 0.  1.
<mgrwt>
<rscale>  0 0.38430942E+04</rscale>
<asrwt>0</asrwt>
<pdfrwt beam="1">  1        2 0.32152570E+00 0.38430942E+04</pdfrwt>
<pdfrwt beam="2">  1       -2 0.27180638E+00 0.38430942E+04</pdfrwt>
<totfact> 0.22474667E-01</totfact>
</mgrwt>
</event>
<event>
12    1  0.1960998E-007  0.2156861E+04  0.7818608E-02  0.8536601E-01
         -2   -1    0    0    0  501 -0.00000000000E+00  0.00000000000E+00  0.70208671614E+03  0.70208671614E+03  0.00000000000E+00 0.  1.
          2   -1    0    0  501    0  0.00000000000E+00 -0.00000000000E+00 -0.16565077896E+04  0.16565077896E+04  0.00000000000E+00 0. -1.
         23    2    1    2    0    0  0.23142620503E+02  0.86990923415E+03 -0.20303736669E+03  0.89855840250E+03  0.94368288540E+02 0.  0.
        254    2    1    2    0    0 -0.23142620503E+02 -0.86990923415E+03 -0.75138370680E+03  0.14600361033E+04  0.89991682475E+03 0.  0.
        -24    2    4    4    0    0 -0.40043286901E+03 -0.48216195256E+03 -0.15383969002E+03  0.65014344142E+03  0.78696970161E+02 0.  0.
         24    2    4    4    0    0  0.37729024851E+03 -0.38774728159E+03 -0.59754401678E+03  0.80989266185E+03  0.78558167784E+02 0.  0.
         13    1    3    3    0    0 -0.16070248241E+02  0.41027010108E+03 -0.13529969117E+03  0.43230292059E+03  0.00000000000E+00 0. -1.
        -13    1    3    3    0    0  0.39212868744E+02  0.45963913307E+03 -0.67737675520E+02  0.46625548191E+03  0.00000000000E+00 0.  1.
          4    1    6    6  502    0  0.63630989985E+01 -0.21501992090E+02 -0.10325469783E+02  0.24686838983E+02  0.00000000000E+00 0. -1.
          3    1    5    5  503    0 -0.14224948772E+03 -0.14137172615E+03 -0.81693208935E+02  0.21655175386E+03  0.00000000000E+00 0. -1.
         -4    1    5    5    0  503 -0.25818338129E+03 -0.34079022641E+03 -0.72146481081E+02  0.43359168757E+03  0.00000000000E+00 0.  1.
         -3    1    6    6    0  502  0.37092714951E+03 -0.36624528950E+03 -0.58721854700E+03  0.78520582287E+03  0.00000000000E+00 0.  1.
<mgrwt>
<rscale>  0 0.21568608E+04</rscale>
<asrwt>0</asrwt>
<pdfrwt beam="1">  1        2 0.25484735E+00 0.21568608E+04</pdfrwt>
<pdfrwt beam="2">  1       -2 0.10801334E+00 0.21568608E+04</pdfrwt>
<totfact> 0.65319117E+00</totfact>
</mgrwt>
</event>
<event>
12    1  0.2233448E-007  0.2593685E+04  0.7818608E-02  0.8370349E-01
         -2   -1    0    0    0  501 -0.00000000000E+00  0.00000000000E+00  0.80652005409E+03  0.80652005409E+03  0.00000000000E+00 0.  1.
          2   -1    0    0  501    0  0.00000000000E+00 -0.00000000000E+00 -0.20852562204E+04  0.20852562204E+04  0.00000000000E+00 0. -1.
         23    2    1    2    0    0 -0.46048989449E+03  0.10359032501E+04 -0.68029989115E+03  0.13252356348E+04  0.91077215811E+02 0.  0.
        254    2    1    2    0    0  0.46048989449E+03 -0.10359032501E+04 -0.59843627519E+03  0.15665406398E+04  0.90043162654E+03 0.  0.
        -24    2    4    4    0    0  0.94399649681E+02 -0.64209935233E+03 -0.75649382440E+03  0.10002663770E+04  0.83946688005E+02 0.  0.
         24    2    4    4    0    0  0.36609024481E+03 -0.39380389778E+03  0.15805754920E+03  0.56627426280E+03  0.81121973585E+02 0.  0.
         11    1    3    3    0    0 -0.22787460099E+03  0.61493877149E+03 -0.41250169991E+03  0.77474781632E+03  0.00000000000E+00 0.  1.
        -11    1    3    3    0    0 -0.23261529350E+03  0.42096447861E+03 -0.26779819124E+03  0.55048781844E+03  0.00000000000E+00 0. -1.
          4    1    6    6  502    0  0.30307860353E+03 -0.34157053722E+03  0.16147573559E+03  0.48435677449E+03  0.00000000000E+00 0. -1.
          1    1    5    5  503    0  0.47116918491E+02 -0.53689210223E+03 -0.62999607136E+03  0.82907670536E+03  0.00000000000E+00 0. -1.
         -2    1    5    5    0  503  0.47282731191E+02 -0.10520725010E+03 -0.12649775304E+03  0.17118967161E+03  0.00000000000E+00 0.  1.
         -3    1    6    6    0  502  0.63011641279E+02 -0.52233360561E+02 -0.34181863871E+01  0.81917488306E+02  0.00000000000E+00 0.  1.
<mgrwt>
<rscale>  0 0.25936854E+04</rscale>
<asrwt>0</asrwt>
<pdfrwt beam="1">  1        2 0.32080864E+00 0.25936854E+04</pdfrwt>
<pdfrwt beam="2">  1       -2 0.12408001E+00 0.25936854E+04</pdfrwt>
<totfact> 0.25886911E+00</totfact>
</mgrwt>
</event>
<event>
12    1  0.1960998E-007  0.1988493E+04  0.7818608E-02  0.8612020E-01
          1   -1    0    0  501    0  0.00000000000E+00  0.00000000000E+00  0.87371549478E+03  0.87371549478E+03  0.00000000000E+00 0. -1.
         -1   -1    0    0    0  501 -0.00000000000E+00 -0.00000000000E+00 -0.11314050260E+04  0.11314050260E+04  0.00000000000E+00 0.  1.
         23    2    1    2    0    0 -0.59167531106E+02  0.72788227511E+03 -0.39740285049E+03  0.83640426267E+03  0.91266981381E+02 0.  0.
        254    2    1    2    0    0  0.59167531106E+02 -0.72788227511E+03  0.13971331924E+03  0.11687162581E+04  0.90170088017E+03 0.  0.
        -24    2    4    4    0    0 -0.28006835818E+03  0.37437198604E+02  0.14589554319E+03  0.32800653471E+03  0.80392463578E+02 0.  0.
         24    2    4    4    0    0  0.33923588929E+03 -0.76531947371E+03 -0.61822239423E+01  0.84070972342E+03  0.77199311791E+02 0.  0.
         11    1    3    3    0    0 -0.50027785251E+02  0.60101574027E+03 -0.28666047287E+03  0.66775513930E+03  0.00000000000E+00 0. -1.
        -11    1    3    3    0    0 -0.91397458548E+01  0.12686653484E+03 -0.11074237762E+03  0.16864912338E+03  0.00000000000E+00 0.  1.
          4    1    6    6  502    0  0.26707338204E+03 -0.61628540656E+03 -0.35255783557E+02  0.67259115665E+03  0.00000000000E+00 0. -1.
          3    1    5    5  503    0 -0.48111157377E+02  0.25357236311E+02  0.58401833983E+02  0.79802550774E+02  0.00000000000E+00 0. -1.
         -4    1    5    5    0  503 -0.23195720080E+03  0.12079962294E+02  0.87493709204E+02  0.24820398394E+03  0.00000000000E+00 0.  1.
         -3    1    6    6    0  502  0.72162507250E+02 -0.14903406715E+03  0.29073559615E+02  0.16811856677E+03  0.00000000000E+00 0.  1.
<mgrwt>
<rscale>  0 0.19884930E+04</rscale>
<asrwt>0</asrwt>
<pdfrwt beam="1">  1        1 0.13441777E+00 0.19884930E+04</pdfrwt>
<pdfrwt beam="2">  1       -1 0.17406231E+00 0.19884930E+04</pdfrwt>
<totfact> 0.40817325E+00</totfact>
</mgrwt>
</event>
<event>
12    1  0.1960998E-007  0.3238164E+04  0.7818608E-02  0.8178810E-01
          2   -1    0    0  501    0  0.00000000000E+00  0.00000000000E+00  0.16950750484E+04  0.16950750484E+04  0.00000000000E+00 0. -1.
         -2   -1    0    0    0  501 -0.00000000000E+00 -0.00000000000E+00 -0.15464954518E+04  0.15464954518E+04  0.00000000000E+00 0.  1.
         23    2    1    2    0    0 -0.10557404977E+04  0.10370407907E+04  0.26479023559E+03  0.15060140131E+04  0.89009766580E+02 0.  0.
        254    2    1    2    0    0  0.10557404977E+04 -0.10370407907E+04 -0.11621063906E+03  0.17355564872E+04  0.89922733907E+03 0.  0.
        -24    2    4    4    0    0  0.69712976670E+03 -0.80229637140E+02 -0.28713236629E+02  0.70686409784E+03  0.80035595583E+02 0.  0.
         24    2    4    4    0    0  0.35861073101E+03 -0.95681115358E+03 -0.87497402435E+02  0.10286923893E+04  0.80392763191E+02 0.  0.
         13    1    3    3    0    0 -0.98339669019E+03  0.94104316978E+03  0.25993083817E+03  0.13857111309E+04  0.00000000000E+00 0. -1.
        -13    1    3    3    0    0 -0.72343807522E+02  0.95997620948E+02  0.48593974176E+01  0.12030288217E+03  0.00000000000E+00 0.  1.
          4    1    6    6  502    0  0.28862899677E+03 -0.82847610754E+03 -0.55578717059E+02  0.87907243861E+03  0.00000000000E+00 0. -1.
          1    1    5    5  503    0  0.25310843468E+03 -0.15243097345E+02 -0.46338238669E+02  0.25776629742E+03  0.00000000000E+00 0. -1.
         -2    1    5    5    0  503  0.44402133203E+03 -0.64986539795E+02  0.17625002040E+02  0.44909780042E+03  0.00000000000E+00 0.  1.
         -3    1    6    6    0  502  0.69981734238E+02 -0.12833504605E+03 -0.31918685376E+02  0.14961995070E+03  0.00000000000E+00 0.  1.
<mgrwt>
<rscale>  0 0.32381636E+04</rscale>
<asrwt>0</asrwt>
<pdfrwt beam="1">  1        2 0.26078078E+00 0.32381636E+04</pdfrwt>
<pdfrwt beam="2">  1       -2 0.23792238E+00 0.32381636E+04</pdfrwt>
<totfact> 0.63217813E-01</totfact>
</mgrwt>
</event>
<event>
12    1  0.1960998E-007  0.1434206E+04  0.7818608E-02  0.8929424E-01
         -1   -1    0    0    0  501 -0.00000000000E+00  0.00000000000E+00  0.15669074408E+03  0.15669074408E+03  0.00000000000E+00 0.  1.
          1   -1    0    0  501    0  0.00000000000E+00 -0.00000000000E+00 -0.32818556981E+04  0.32818556981E+04  0.00000000000E+00 0. -1.
         23    2    1    2    0    0  0.29723749744E+03 -0.31273400762E+03 -0.97507975069E+03  0.10700385634E+04  0.89717988651E+02 0.  0.
        254    2    1    2    0    0 -0.29723749744E+03  0.31273400762E+03 -0.21500852033E+04  0.23685078788E+04  0.89488016010E+03 0.  0.
        -24    2    4    4    0    0  0.15671403946E+03 -0.18829702678E+03 -0.99134378137E+03  0.10246142236E+04  0.84004487629E+02 0.  0.
         24    2    4    4    0    0 -0.45395153690E+03  0.50103103440E+03 -0.11587414219E+04  0.13438936551E+04  0.79147824640E+02 0.  0.
         11    1    3    3    0    0  0.11172745618E+03 -0.15896421992E+03 -0.51980894530E+03  0.55493602090E+03  0.00000000000E+00 0. -1.
        -11    1    3    3    0    0  0.18551004126E+03 -0.15376978770E+03 -0.45527080539E+03  0.51510254247E+03  0.00000000000E+00 0.  1.
          4    1    6    6  502    0 -0.19318529856E+03  0.22219691834E+03 -0.42896722415E+03  0.52029309960E+03  0.00000000000E+00 0. -1.
          1    1    5    5  503    0  0.22238894503E+02 -0.54972206194E+02 -0.38045153830E+03  0.38504530237E+03  0.00000000000E+00 0. -1.
         -2    1    5    5    0  503  0.13447514496E+03 -0.13332482059E+03 -0.61089224306E+03  0.63956892125E+03  0.00000000000E+00 0.  1.
         -3    1    6    6    0  502 -0.26076623834E+03  0.27883411606E+03 -0.72977419777E+03  0.82360055553E+03  0.00000000000E+00 0.  1.
<mgrwt>
<rscale>  0 0.14342056E+04</rscale>
<asrwt>0</asrwt>
<pdfrwt beam="1">  1        1 0.50490085E+00 0.14342056E+04</pdfrwt>
<pdfrwt beam="2">  1       -1 0.24106270E-01 0.14342056E+04</pdfrwt>
<totfact> 0.54015922E+00</totfact>
</mgrwt>
</event>
<event>
12    1  0.1960998E-007  0.1712860E+04  0.7818608E-02  0.8754064E-01
         -1   -1    0    0    0  501 -0.00000000000E+00  0.00000000000E+00  0.63276377479E+03  0.63276377479E+03  0.00000000000E+00 0.  1.
          1   -1    0    0  501    0  0.00000000000E+00 -0.00000000000E+00 -0.11591565780E+04  0.11591565780E+04  0.00000000000E+00 0. -1.
         23    2    1    2    0    0  0.41439151738E+03  0.16110482690E+03  0.25648511022E+03  0.52248559308E+03  0.97629341327E+02 0.  0.
        254    2    1    2    0    0 -0.41439151738E+03 -0.16110482690E+03 -0.78287791342E+03  0.12694347597E+04  0.89492552032E+03 0.  0.
        -24    2    4    4    0    0 -0.17819662853E+03 -0.50027326001E+03 -0.25596928484E+03  0.59510145082E+03  0.81228621114E+02 0.  0.
         24    2    4    4    0    0 -0.23619488885E+03  0.33916843311E+03 -0.52690862858E+03  0.67433330889E+03  0.79179903197E+02 0.  0.
         13    1    3    3    0    0  0.33033538745E+03  0.16173079496E+03  0.18289739075E+03  0.41076729882E+03  0.00000000000E+00 0.  1.
        -13    1    3    3    0    0  0.84056129928E+02 -0.62596806499E+00  0.73587719472E+02  0.11171829426E+03  0.00000000000E+00 0. -1.
          2    1    6    6  502    0 -0.12815609745E+03  0.20449761132E+03 -0.24604256855E+03  0.34464504043E+03  0.00000000000E+00 0. -1.
          3    1    5    5  503    0 -0.10240613718E+02 -0.80214461164E+02 -0.66250042273E+02  0.10453850033E+03  0.00000000000E+00 0. -1.
         -4    1    5    5    0  503 -0.16795601481E+03 -0.42005879884E+03 -0.18971924257E+03  0.49056295050E+03  0.00000000000E+00 0.  1.
         -1    1    6    6    0  502 -0.10803879140E+03  0.13467082179E+03 -0.28086606003E+03  0.32968826846E+03  0.00000000000E+00 0.  1.
<mgrwt>
<rscale>  0 0.17128599E+04</rscale>
<asrwt>0</asrwt>
<pdfrwt beam="1">  1        1 0.17833178E+00 0.17128599E+04</pdfrwt>
<pdfrwt beam="2">  1       -1 0.97348275E-01 0.17128599E+04</pdfrwt>
<totfact> 0.11032345E+01</totfact>
</mgrwt>
</event>
<event>
12    1  0.1960998E-007  0.2754046E+04  0.7818608E-02  0.8317679E-01
         -1   -1    0    0    0  501 -0.00000000000E+00  0.00000000000E+00  0.98575625684E+03  0.98575625684E+03  0.00000000000E+00 0.  1.
          1   -1    0    0  501    0  0.00000000000E+00 -0.00000000000E+00 -0.19235919562E+04  0.19235919562E+04  0.00000000000E+00 0. -1.
         23    2    1    2    0    0 -0.11849886651E+03 -0.10403486328E+04  0.25865536595E+03  0.10824266568E+04  0.91529283805E+02 0.  0.
        254    2    1    2    0    0  0.11849886651E+03  0.10403486328E+04 -0.11964910654E+04  0.18269215563E+04  0.89982456295E+03 0.  0.
        -24    2    4    4    0    0 -0.18909234893E+03  0.62407386741E+03 -0.17752098282E+03  0.68074971224E+03  0.81745721384E+02 0.  0.
         24    2    4    4    0    0  0.30759121545E+03  0.41627476544E+03 -0.10189700825E+04  0.11461718440E+04  0.86676587341E+02 0.  0.
         13    1    3    3    0    0 -0.12486243417E+03 -0.98943242277E+03  0.26163263733E+03  0.10310280227E+04  0.00000000000E+00 0.  1.
        -13    1    3    3    0    0  0.63635676628E+01 -0.50916210075E+02 -0.29772713763E+01  0.51398634093E+02  0.00000000000E+00 0. -1.
          4    1    6    6  502    0  0.31593426314E+02  0.49855323484E+02 -0.66028028909E+02  0.88562963295E+02  0.00000000000E+00 0. -1.
          1    1    5    5  503    0 -0.48577787494E+02  0.74587589883E+02 -0.37260653767E+02  0.96495939405E+02  0.00000000000E+00 0. -1.
         -2    1    5    5    0  503 -0.14051456144E+03  0.54948627752E+03 -0.14026032905E+03  0.58425377283E+03  0.00000000000E+00 0.  1.
         -3    1    6    6    0  502  0.27599778913E+03  0.36641944196E+03 -0.95294205364E+03  0.10576088808E+04  0.00000000000E+00 0.  1.
<mgrwt>
<rscale>  0 0.27540463E+04</rscale>
<asrwt>0</asrwt>
<pdfrwt beam="1">  1        1 0.29593722E+00 0.27540463E+04</pdfrwt>
<pdfrwt beam="2">  1       -1 0.15165481E+00 0.27540463E+04</pdfrwt>
<totfact> 0.98841389E-01</totfact>
</mgrwt>
</event>
<event>
12    1  0.1960998E-007  0.1883110E+04  0.7818608E-02  0.8663310E-01
         -2   -1    0    0    0  501 -0.00000000000E+00  0.00000000000E+00  0.48478335363E+03  0.48478335363E+03  0.00000000000E+00 0.  1.
          2   -1    0    0  501    0  0.00000000000E+00 -0.00000000000E+00 -0.18287053604E+04  0.18287053604E+04  0.00000000000E+00 0. -1.
         23    2    1    2    0    0 -0.67075053843E+01 -0.33843565245E+03  0.26509381489E+03  0.44102979379E+03  0.98228645724E+02 0.  0.
        254    2    1    2    0    0  0.67075053843E+01  0.33843565245E+03 -0.16090158216E+04  0.18724589202E+04  0.89587209587E+03 0.  0.
        -24    2    4    4    0    0 -0.20382355566E+03  0.36371907036E+03 -0.15891484180E+04  0.16449323248E+04  0.81080544470E+02 0.  0.
         24    2    4    4    0    0  0.21053106104E+03 -0.25283417902E+02 -0.19867403578E+02  0.22752659539E+03  0.80069088919E+02 0.  0.
         11    1    3    3    0    0  0.11544397640E+02 -0.22709280749E+03  0.11962417061E+03  0.25693259530E+03  0.00000000000E+00 0. -1.
        -11    1    3    3    0    0 -0.18251903024E+02 -0.11134284496E+03  0.14546964428E+03  0.18409719850E+03  0.00000000000E+00 0.  1.
          2    1    6    6  502    0  0.47002598121E+02  0.17836611900E+02  0.19439653457E+02  0.53900733583E+02  0.00000000000E+00 0. -1.
          1    1    5    5  503    0 -0.13266700745E+02  0.29086217304E+02 -0.23255227752E+03  0.23473937711E+03  0.00000000000E+00 0. -1.
         -2    1    5    5    0  503 -0.19055685491E+03  0.33463285305E+03 -0.13565961405E+04  0.14101929477E+04  0.00000000000E+00 0.  1.
         -1    1    6    6    0  502  0.16352846292E+03 -0.43120029802E+02 -0.39307057036E+02  0.17362586181E+03  0.00000000000E+00 0.  1.
<mgrwt>
<rscale>  0 0.18831101E+04</rscale>
<asrwt>0</asrwt>
<pdfrwt beam="1">  1        2 0.28133929E+00 0.18831101E+04</pdfrwt>
<pdfrwt beam="2">  1       -2 0.74582054E-01 0.18831101E+04</pdfrwt>
<totfact> 0.12610462E+01</totfact>
</mgrwt>
</event>
<event>
12    1  0.1960998E-007  0.1756759E+04  0.7818608E-02  0.8729639E-01
         -2   -1    0    0    0  501 -0.00000000000E+00  0.00000000000E+00  0.22370746069E+03  0.22370746069E+03  0.00000000000E+00 0.  1.
          2   -1    0    0  501    0  0.00000000000E+00 -0.00000000000E+00 -0.34489246157E+04  0.34489246157E+04  0.00000000000E+00 0. -1.
         23    2    1    2    0    0 -0.10292411412E+03 -0.63531664808E+03 -0.11600286808E+04  0.13296544812E+04  0.89966007494E+02 0.  0.
        254    2    1    2    0    0  0.10292411412E+03  0.63531664808E+03 -0.20651884741E+04  0.23429775951E+04  0.90017773854E+03 0.  0.
        -24    2    4    4    0    0 -0.25511229267E+03  0.34117345712E+03 -0.16819125315E+04  0.17368609250E+04  0.79840462783E+02 0.  0.
         24    2    4    4    0    0  0.35803640679E+03  0.29414319096E+03 -0.38327594267E+03  0.60611667015E+03  0.75938687279E+02 0.  0.
         11    1    3    3    0    0 -0.55637962954E+01 -0.26064828725E+03 -0.41594324303E+03  0.49089435411E+03  0.00000000000E+00 0.  1.
        -11    1    3    3    0    0 -0.97360317823E+02 -0.37466836083E+03 -0.74408543781E+03  0.83876012712E+03  0.00000000000E+00 0. -1.
          4    1    6    6  502    0  0.30305318235E+03  0.21108903428E+03 -0.28881515877E+03  0.46884326556E+03  0.00000000000E+00 0. -1.
          3    1    5    5  503    0 -0.22386605046E+03  0.33176762311E+03 -0.15766639209E+04  0.16266698755E+04  0.00000000000E+00 0. -1.
         -4    1    5    5    0  503 -0.31246242211E+02  0.94058340119E+01 -0.10524861058E+03  0.11019104952E+03  0.00000000000E+00 0.  1.
         -3    1    6    6    0  502  0.54983224437E+02  0.83054156679E+02 -0.94460783903E+02  0.13727340459E+03  0.00000000000E+00 0.  1.
<mgrwt>
<rscale>  0 0.17567586E+04</rscale>
<asrwt>0</asrwt>
<pdfrwt beam="1">  1        2 0.53060379E+00 0.17567586E+04</pdfrwt>
<pdfrwt beam="2">  1       -2 0.34416532E-01 0.17567586E+04</pdfrwt>
<totfact> 0.66683212E+00</totfact>
</mgrwt>
</event>
<event>
12    1  0.1960998E-007  0.3219572E+04  0.7818608E-02  0.8183667E-01
          3   -1    0    0  501    0  0.00000000000E+00  0.00000000000E+00  0.12240026160E+04  0.12240026160E+04  0.00000000000E+00 0. -1.
         -3   -1    0    0    0  501 -0.00000000000E+00 -0.00000000000E+00 -0.21171613390E+04  0.21171613390E+04  0.00000000000E+00 0.  1.
         23    2    1    2    0    0  0.14740854443E+04  0.59579266777E+02 -0.25463864804E+03  0.14999362798E+04  0.92143455871E+02 0.  0.
        254    2    1    2    0    0 -0.14740854443E+04 -0.59579266777E+02 -0.63852007499E+03  0.18412276751E+04  0.89773820208E+03 0.  0.
        -24    2    4    4    0    0 -0.12636714552E+04 -0.18577967920E+03 -0.82536027509E+03  0.15228620058E+04  0.80681281372E+02 0.  0.
         24    2    4    4    0    0 -0.21041398908E+03  0.12620041242E+03  0.18684020010E+03  0.31836566932E+03  0.79037004843E+02 0.  0.
         11    1    3    3    0    0  0.25756724609E+03 -0.24582878328E+02 -0.44612626474E+02  0.26255569049E+03  0.00000000000E+00 0. -1.
        -11    1    3    3    0    0  0.12165181982E+04  0.84162145105E+02 -0.21002602157E+03  0.12373805894E+04  0.00000000000E+00 0.  1.
          2    1    6    6  502    0 -0.11171668688E+03  0.33646435620E+02  0.12029716114E+03  0.16758313679E+03  0.00000000000E+00 0. -1.
          1    1    5    5  503    0 -0.11837572394E+04 -0.16258277902E+03 -0.79019973764E+03  0.14325257370E+04  0.00000000000E+00 0. -1.
         -2    1    5    5    0  503 -0.79914215832E+02 -0.23196900184E+02 -0.35160537449E+02  0.90336268817E+02  0.00000000000E+00 0.  1.
         -1    1    6    6    0  502 -0.98697302196E+02  0.92553976805E+02  0.66543038957E+02  0.15078253253E+03  0.00000000000E+00 0.  1.
<mgrwt>
<rscale>  0 0.32195720E+04</rscale>
<asrwt>0</asrwt>
<pdfrwt beam="1">  1        3 0.18830810E+00 0.32195720E+04</pdfrwt>
<pdfrwt beam="2">  1       -3 0.32571712E+00 0.32195720E+04</pdfrwt>
<totfact> 0.10402092E-02</totfact>
</mgrwt>
</event>
<event>
12    1  0.1960998E-007  0.2945518E+04  0.7818608E-02  0.8259462E-01
         -2   -1    0    0    0  501 -0.00000000000E+00  0.00000000000E+00  0.75366792325E+03  0.75366792325E+03  0.00000000000E+00 0.  1.
          2   -1    0    0  501    0  0.00000000000E+00 -0.00000000000E+00 -0.28779508837E+04  0.28779508837E+04  0.00000000000E+00 0. -1.
         23    2    1    2    0    0  0.13201376062E+04 -0.21640064871E+02 -0.72835445444E+03  0.15104065431E+04  0.87155735640E+02 0.  0.
        254    2    1    2    0    0 -0.13201376062E+04  0.21640064871E+02 -0.13959285060E+04  0.21212122639E+04  0.89871768809E+03 0.  0.
        -24    2    4    4    0    0 -0.25823695847E+03 -0.33318601540E+03 -0.62936606769E+03  0.76185230902E+03  0.81351373792E+02 0.  0.
         24    2    4    4    0    0 -0.10619006478E+04  0.35482608027E+03 -0.76656243835E+03  0.13593599549E+04  0.81896167134E+02 0.  0.
         13    1    3    3    0    0  0.87474436357E+03 -0.45941179577E+02 -0.45219678987E+03  0.98578406883E+03  0.00000000000E+00 0.  1.
        -13    1    3    3    0    0  0.44539324265E+03  0.24301114705E+02 -0.27615766456E+03  0.52462247423E+03  0.00000000000E+00 0. -1.
          4    1    6    6  502    0 -0.10365815743E+04  0.33519755237E+03 -0.75420762011E+03  0.13250237332E+04  0.00000000000E+00 0. -1.
          1    1    5    5  503    0 -0.14749469843E+03 -0.24272757508E+03 -0.45472289744E+03  0.53613829859E+03  0.00000000000E+00 0. -1.
         -2    1    5    5    0  503 -0.11074226004E+03 -0.90458440318E+02 -0.17464317025E+03  0.22571401042E+03  0.00000000000E+00 0.  1.
         -1    1    6    6    0  502 -0.25319073412E+02  0.19628527901E+02 -0.12354818241E+02  0.34336221688E+02  0.00000000000E+00 0.  1.
<mgrwt>
<rscale>  0 0.29455181E+04</rscale>
<asrwt>0</asrwt>
<pdfrwt beam="1">  1        2 0.44276168E+00 0.29455181E+04</pdfrwt>
<pdfrwt beam="2">  1       -2 0.11594891E+00 0.29455181E+04</pdfrwt>
<totfact> 0.10295012E+00</totfact>
</mgrwt>
</event>
<event>
12    1  0.1960998E-007  0.1418018E+04  0.7818608E-02  0.8940878E-01
         -1   -1    0    0    0  501 -0.00000000000E+00  0.00000000000E+00  0.98674963416E+03  0.98674963416E+03  0.00000000000E+00 0.  1.
          1   -1    0    0  501    0  0.00000000000E+00 -0.00000000000E+00 -0.50944419182E+03  0.50944419182E+03  0.00000000000E+00 0. -1.
         23    2    1    2    0    0 -0.19864731315E+03 -0.36366358156E+03  0.20052290935E+03  0.46941249881E+03  0.91797065788E+02 0.  0.
        254    2    1    2    0    0  0.19864731315E+03  0.36366358156E+03  0.27678253299E+03  0.10267813272E+04  0.89775239775E+03 0.  0.
        -24    2    4    4    0    0 -0.62583148458E+02  0.47666782731E+03  0.46693735950E+03  0.67498207420E+03  0.80258549329E+02 0.  0.
         24    2    4    4    0    0  0.26123046160E+03 -0.11300424574E+03 -0.19015482651E+03  0.35179925296E+03  0.81194474642E+02 0.  0.
         13    1    3    3    0    0 -0.98588613234E+02 -0.93565253069E+02  0.74692876675E+02  0.15509093161E+03  0.00000000000E+00 0. -1.
        -13    1    3    3    0    0 -0.10005869991E+03 -0.27009832850E+03  0.12583003268E+03  0.31432156720E+03  0.00000000000E+00 0.  1.
          4    1    6    6  502    0  0.18370832491E+03 -0.37626992132E+02 -0.11254677236E+03  0.21870371544E+03  0.00000000000E+00 0. -1.
          1    1    5    5  503    0 -0.15858260271E+02  0.64650800864E+02  0.31331255218E+02  0.73572128043E+02  0.00000000000E+00 0. -1.
         -2    1    5    5    0  503 -0.46724888187E+02  0.41201702644E+03  0.43560610428E+03  0.60140994616E+03  0.00000000000E+00 0.  1.
         -3    1    6    6    0  502  0.77522136699E+02 -0.75377253609E+02 -0.77608054150E+02  0.13309553752E+03  0.00000000000E+00 0.  1.
<mgrwt>
<rscale>  0 0.14180182E+04</rscale>
<asrwt>0</asrwt>
<pdfrwt beam="1">  1        1 0.78376029E-01 0.14180182E+04</pdfrwt>
<pdfrwt beam="2">  1       -1 0.15180764E+00 0.14180182E+04</pdfrwt>
<totfact> 0.14204189E+01</totfact>
</mgrwt>
</event>
<event>
12    1  0.1960998E-007  0.2533282E+04  0.7818608E-02  0.8391224E-01
         -2   -1    0    0    0  501 -0.00000000000E+00  0.00000000000E+00  0.46641543872E+03  0.46641543872E+03  0.00000000000E+00 0.  1.
          2   -1    0    0  501    0  0.00000000000E+00 -0.00000000000E+00 -0.34398074089E+04  0.34398074089E+04  0.00000000000E+00 0. -1.
         23    2    1    2    0    0 -0.75257768355E+03  0.42959431970E+03 -0.23577375160E+04  0.25136547845E+04  0.92788641776E+02 0.  0.
        254    2    1    2    0    0  0.75257768355E+03 -0.42959431970E+03 -0.61565445417E+03  0.13925680631E+04  0.89960599940E+03 0.  0.
        -24    2    4    4    0    0  0.22968006950E+03  0.16844263823E+03 -0.50660948601E+03  0.58660812396E+03  0.79561693600E+02 0.  0.
         24    2    4    4    0    0  0.52289761405E+03 -0.59803695792E+03 -0.10904496816E+03  0.80595993914E+03  0.81304985073E+02 0.  0.
         13    1    3    3    0    0 -0.42220460603E+03  0.19547339872E+03 -0.13297223068E+04  0.14087682535E+04  0.00000000000E+00 0. -1.
        -13    1    3    3    0    0 -0.33037307751E+03  0.23412092098E+03 -0.10280152092E+04  0.11048865310E+04  0.00000000000E+00 0.  1.
          4    1    6    6  502    0  0.30389381490E+03 -0.40374740063E+03 -0.55995909737E+02  0.50842792622E+03  0.00000000000E+00 0. -1.
          1    1    5    5  503    0  0.20952050823E+03  0.16589138581E+03 -0.42129521430E+03  0.49890725876E+03  0.00000000000E+00 0. -1.
         -2    1    5    5    0  503  0.20159561267E+02  0.25512524142E+01 -0.85314271710E+02  0.87700865200E+02  0.00000000000E+00 0.  1.
         -3    1    6    6    0  502  0.21900379915E+03 -0.19428955730E+03 -0.53049058422E+02  0.29753201293E+03  0.00000000000E+00 0.  1.
<mgrwt>
<rscale>  0 0.25332819E+04</rscale>
<asrwt>0</asrwt>
<pdfrwt beam="1">  1        2 0.52920114E+00 0.25332819E+04</pdfrwt>
<pdfrwt beam="2">  1       -2 0.71756221E-01 0.25332819E+04</pdfrwt>
<totfact> 0.14032081E+00</totfact>
</mgrwt>
</event>
<event>
12    1  0.2468544E-007  0.2875668E+04  0.7818608E-02  0.8280154E-01
          1   -1    0    0  501    0  0.00000000000E+00  0.00000000000E+00  0.21569883138E+04  0.21569883138E+04  0.00000000000E+00 0. -1.
         -1   -1    0    0    0  501 -0.00000000000E+00 -0.00000000000E+00 -0.95845079499E+03  0.95845079499E+03  0.00000000000E+00 0.  1.
         23    2    1    2    0    0 -0.10878342025E+04  0.64289679675E+03  0.23276147889E+03  0.12882816933E+04  0.93767115204E+02 0.  0.
        254    2    1    2    0    0  0.10878342025E+04 -0.64289679675E+03  0.96577603996E+03  0.18271574155E+04  0.89948947652E+03 0.  0.
        -24    2    4    4    0    0 -0.71198397057E+02  0.32365551926E+02 -0.69596064274E+02  0.13087481908E+03  0.78535758813E+02 0.  0.
         24    2    4    4    0    0  0.11590325995E+04 -0.67526234867E+03  0.10353721042E+04  0.16962825964E+04  0.77739606516E+02 0.  0.
         13    1    3    3    0    0 -0.44223117070E+03  0.28318110233E+03  0.53853947583E+02  0.52788274525E+03  0.00000000000E+00 0. -1.
        -13    1    3    3    0    0 -0.64560303177E+03  0.35971569442E+03  0.17890753130E+03  0.76039894806E+03  0.00000000000E+00 0.  1.
          4    1    6    6  502    0  0.77181292608E+03 -0.48620663547E+03  0.68047263088E+03  0.11380400198E+04  0.00000000000E+00 0. -1.
          3    1    5    5  503    0 -0.75701793632E+02  0.48049100851E+02 -0.71178714406E+02  0.11448094617E+03  0.00000000000E+00 0. -1.
         -4    1    5    5    0  503  0.45033965749E+01 -0.15683548925E+02  0.15826501317E+01  0.16393872911E+02  0.00000000000E+00 0.  1.
         -3    1    6    6    0  502  0.38721967346E+03 -0.18905571320E+03  0.35489947336E+03  0.55824257666E+03  0.00000000000E+00 0.  1.
<mgrwt>
<rscale>  0 0.28756684E+04</rscale>
<asrwt>0</asrwt>
<pdfrwt beam="1">  1        1 0.33184435E+00 0.28756684E+04</pdfrwt>
<pdfrwt beam="2">  1       -1 0.14745397E+00 0.28756684E+04</pdfrwt>
<totfact> 0.73229319E-01</totfact>
</mgrwt>
</event>
<event>
12    1  0.1960998E-007  0.2233441E+04  0.7818608E-02  0.8504637E-01
         -2   -1    0    0    0  501 -0.00000000000E+00  0.00000000000E+00  0.97177597421E+03  0.97177597421E+03  0.00000000000E+00 0.  1.
          2   -1    0    0  501    0  0.00000000000E+00 -0.00000000000E+00 -0.12832835511E+04  0.12832835511E+04  0.00000000000E+00 0. -1.
         23    2    1    2    0    0 -0.86927733616E+03 -0.84989473733E+02  0.18826645928E+03  0.89829788667E+03  0.92889911788E+02 0.  0.
        254    2    1    2    0    0  0.86927733616E+03  0.84989473733E+02 -0.49977403617E+03  0.13567616386E+04  0.91003393291E+03 0.  0.
        -24    2    4    4    0    0  0.60720520278E+03  0.31538241135E+03 -0.66950130990E+03  0.96082008751E+03  0.82334761389E+02 0.  0.
         24    2    4    4    0    0  0.26207213337E+03 -0.23039293761E+03  0.16972727374E+03  0.39594155112E+03  0.78737892167E+02 0.  0.
         11    1    3    3    0    0 -0.41891432293E+03 -0.13133289358E+00  0.11282824699E+03  0.43384264489E+03  0.00000000000E+00 0.  1.
        -11    1    3    3    0    0 -0.45036301323E+03 -0.84858140839E+02  0.75438212288E+02  0.46445524179E+03  0.00000000000E+00 0. -1.
          4    1    6    6  502    0  0.25828571010E+03 -0.20008775978E+03  0.14943205421E+03  0.35927226233E+03  0.00000000000E+00 0. -1.
          3    1    5    5  503    0  0.55846030148E+03  0.27965767471E+03 -0.63738401945E+03  0.89238148322E+03  0.00000000000E+00 0. -1.
         -4    1    5    5    0  503  0.48744901303E+02  0.35724736637E+02 -0.32117290454E+02  0.68438604288E+02  0.00000000000E+00 0.  1.
         -3    1    6    6    0  502  0.37864232722E+01 -0.30305177837E+02  0.20295219526E+02  0.36669288793E+02  0.00000000000E+00 0.  1.
<mgrwt>
<rscale>  0 0.22334405E+04</rscale>
<asrwt>0</asrwt>
<pdfrwt beam="1">  1        2 0.19742824E+00 0.22334405E+04</pdfrwt>
<pdfrwt beam="2">  1       -2 0.14950399E+00 0.22334405E+04</pdfrwt>
<totfact> 0.46591383E+00</totfact>
</mgrwt>
</event>
<event>
12    1  0.1960998E-007  0.1470238E+04  0.7818608E-02  0.8904489E-01
          2   -1    0    0  501    0  0.00000000000E+00  0.00000000000E+00  0.45860819477E+03  0.45860819477E+03  0.00000000000E+00 0. -1.
         -2   -1    0    0    0  501 -0.00000000000E+00 -0.00000000000E+00 -0.11783476981E+04  0.11783476981E+04  0.00000000000E+00 0.  1.
         23    2    1    2    0    0 -0.26278664535E+03  0.29049291579E+03  0.27240099184E+02  0.40358945180E+03  0.93270935984E+02 0.  0.
        254    2    1    2    0    0  0.26278664535E+03 -0.29049291579E+03 -0.74697960249E+03  0.12333664410E+04  0.89987293338E+03 0.  0.
        -24    2    4    4    0    0  0.37985248123E+03  0.22323564259E+03 -0.32297488054E+03  0.55222416892E+03  0.80726077962E+02 0.  0.
         24    2    4    4    0    0 -0.11706583587E+03 -0.51372855839E+03 -0.42400472194E+03  0.68114227211E+03  0.80952757775E+02 0.  0.
         11    1    3    3    0    0 -0.23414392192E+03  0.29163617333E+03  0.25811767286E+02  0.37488835818E+03  0.00000000000E+00 0.  1.
        -11    1    3    3    0    0 -0.28642723430E+02 -0.11432575317E+01  0.14283318982E+01  0.28701093626E+02  0.00000000000E+00 0. -1.
          2    1    6    6  502    0 -0.69586757933E+02 -0.42196491558E+03 -0.31653399768E+03  0.53206247617E+03  0.00000000000E+00 0. -1.
          3    1    5    5  503    0  0.36467067123E+03  0.22941504137E+03 -0.31653897876E+03  0.53461470681E+03  0.00000000000E+00 0. -1.
         -4    1    5    5    0  503  0.15181810001E+02 -0.61793987813E+01 -0.64359017803E+01  0.17609462113E+02  0.00000000000E+00 0.  1.
         -1    1    6    6    0  502 -0.47479077942E+02 -0.91763642806E+02 -0.10747072427E+03  0.14907979594E+03  0.00000000000E+00 0.  1.
<mgrwt>
<rscale>  0 0.14702380E+04</rscale>
<asrwt>0</asrwt>
<pdfrwt beam="1">  1        2 0.70555108E-01 0.14702380E+04</pdfrwt>
<pdfrwt beam="2">  1       -2 0.18128426E+00 0.14702380E+04</pdfrwt>
<totfact> 0.11694361E+01</totfact>
</mgrwt>
</event>
<event>
12    1  0.1960998E-007  0.3694949E+04  0.7818608E-02  0.8069082E-01
          1   -1    0    0  501    0  0.00000000000E+00  0.00000000000E+00  0.26519838826E+04  0.26519838826E+04  0.00000000000E+00 0. -1.
         -1   -1    0    0    0  501 -0.00000000000E+00 -0.00000000000E+00 -0.12870223547E+04  0.12870223547E+04  0.00000000000E+00 0.  1.
         23    2    1    2    0    0 -0.11198274825E+04  0.12468705581E+04  0.11263843948E+04  0.20213205924E+04  0.91078828956E+02 0.  0.
        254    2    1    2    0    0  0.11198274825E+04 -0.12468705581E+04  0.23857713309E+03  0.19176856448E+04  0.90105460695E+03 0.  0.
        -24    2    4    4    0    0  0.75867020472E+03 -0.34032416167E+03  0.39896712841E+03  0.92558505113E+03  0.78306466947E+02 0.  0.
         24    2    4    4    0    0  0.36115727781E+03 -0.90654639644E+03 -0.16038999533E+03  0.99210059372E+03  0.79231870123E+02 0.  0.
         13    1    3    3    0    0 -0.60838687648E+03  0.67748641029E+03  0.55720646650E+03  0.10675211819E+04  0.00000000000E+00 0.  1.
        -13    1    3    3    0    0 -0.51144060605E+03  0.56938414782E+03  0.56917792830E+03  0.95379941045E+03  0.00000000000E+00 0. -1.
          4    1    6    6  502    0  0.11107368671E+03 -0.38367147828E+03 -0.62280036072E+02  0.40425235933E+03  0.00000000000E+00 0. -1.
          1    1    5    5  503    0  0.28757165286E+02 -0.29880410245E+02  0.12899399664E+02  0.43430496007E+02  0.00000000000E+00 0. -1.
         -2    1    5    5    0  503  0.72991303943E+03 -0.31044375142E+03  0.38606772875E+03  0.88215455512E+03  0.00000000000E+00 0.  1.
         -3    1    6    6    0  502  0.25008359109E+03 -0.52287491815E+03 -0.98109959256E+02  0.58784823439E+03  0.00000000000E+00 0.  1.
<mgrwt>
<rscale>  0 0.36949493E+04</rscale>
<asrwt>0</asrwt>
<pdfrwt beam="1">  1        1 0.40799752E+00 0.36949493E+04</pdfrwt>
<pdfrwt beam="2">  1       -1 0.19800344E+00 0.36949493E+04</pdfrwt>
<totfact> 0.13227557E-01</totfact>
</mgrwt>
</event>
<event>
12    1  0.1960998E-007  0.1302411E+04  0.7818608E-02  0.9027655E-01
          1   -1    0    0  501    0  0.00000000000E+00  0.00000000000E+00  0.42412163390E+03  0.42412163390E+03  0.00000000000E+00 0. -1.
         -1   -1    0    0    0  501 -0.00000000000E+00 -0.00000000000E+00 -0.99987527392E+03  0.99987527392E+03  0.00000000000E+00 0.  1.
         23    2    1    2    0    0 -0.15637603194E+03 -0.18385410371E+03 -0.40345408800E+03  0.47632267931E+03  0.76500319540E+02 0.  0.
        254    2    1    2    0    0  0.15637603194E+03  0.18385410371E+03 -0.17229955202E+03  0.94767422850E+03  0.90007972587E+03 0.  0.
        -24    2    4    4    0    0 -0.36617236593E+03  0.10531944778E+03 -0.13514870471E+03  0.41180843921E+03  0.78400450035E+02 0.  0.
         24    2    4    4    0    0  0.52254839787E+03  0.78534655926E+02 -0.37150847319E+02  0.53586578929E+03  0.80916242950E+02 0.  0.
         13    1    3    3    0    0 -0.69154659141E+02 -0.71849652795E+02 -0.99602031241E+02  0.14094432984E+03  0.00000000000E+00 0. -1.
        -13    1    3    3    0    0 -0.87221372799E+02 -0.11200445092E+03 -0.30385205676E+03  0.33537834947E+03  0.00000000000E+00 0.  1.
          2    1    6    6  502    0  0.18137382014E+03  0.63545874223E+02 -0.28227595330E+02  0.19424556082E+03  0.00000000000E+00 0. -1.
          1    1    5    5  503    0 -0.18552037767E+03  0.24399441758E+02 -0.36511954833E+02  0.19064696728E+03  0.00000000000E+00 0. -1.
         -2    1    5    5    0  503 -0.18065198827E+03  0.80920006027E+02 -0.98636749873E+02  0.22116147193E+03  0.00000000000E+00 0.  1.
         -1    1    6    6    0  502  0.34117457774E+03  0.14988781703E+02 -0.89232519887E+01  0.34162022847E+03  0.00000000000E+00 0.  1.
<mgrwt>
<rscale>  0 0.13024112E+04</rscale>
<asrwt>0</asrwt>
<pdfrwt beam="1">  1        1 0.65249482E-01 0.13024112E+04</pdfrwt>
<pdfrwt beam="2">  1       -1 0.15382696E+00 0.13024112E+04</pdfrwt>
<totfact> 0.17755129E+01</totfact>
</mgrwt>
</event>
<event>
12    1  0.1960998E-007  0.1634231E+04  0.7818608E-02  0.8799790E-01
          2   -1    0    0  501    0  0.00000000000E+00  0.00000000000E+00  0.22835189429E+04  0.22835189429E+04  0.00000000000E+00 0. -1.
         -2   -1    0    0    0  501 -0.00000000000E+00 -0.00000000000E+00 -0.29238973452E+03  0.29238973452E+03  0.00000000000E+00 0.  1.
         23    2    1    2    0    0 -0.31761097365E+03 -0.45794913830E+03  0.56821363632E+03  0.80092621081E+03  0.89565142853E+02 0.  0.
        254    2    1    2    0    0  0.31761097365E+03  0.45794913830E+03  0.14229155720E+04  0.17749824666E+04  0.90292850643E+03 0.  0.
        -24    2    4    4    0    0  0.11726005953E+03 -0.25655524410E+03  0.25187871135E+03  0.38635474054E+03  0.79098580695E+02 0.  0.
         24    2    4    4    0    0  0.20035091411E+03  0.71450438240E+03  0.11710368607E+04  0.13886277260E+04  0.79389112759E+02 0.  0.
         11    1    3    3    0    0 -0.19508429419E+03 -0.21800790304E+03  0.25811329811E+03  0.39013818358E+03  0.00000000000E+00 0.  1.
        -11    1    3    3    0    0 -0.12252667946E+03 -0.23994123525E+03  0.31010033821E+03  0.41078802723E+03  0.00000000000E+00 0. -1.
          2    1    6    6  502    0  0.65430554567E+02  0.37987092892E+03  0.61038498250E+03  0.72190920964E+03  0.00000000000E+00 0. -1.
          3    1    5    5  503    0  0.87108219054E+02 -0.96649188719E+02  0.11759021868E+03  0.17537493275E+03  0.00000000000E+00 0. -1.
         -4    1    5    5    0  503  0.30151840479E+02 -0.15990605538E+03  0.13428849267E+03  0.21097980779E+03  0.00000000000E+00 0.  1.
         -1    1    6    6    0  502  0.13492035955E+03  0.33463345348E+03  0.56065187816E+03  0.66671851639E+03  0.00000000000E+00 0.  1.
<mgrwt>
<rscale>  0 0.16342307E+04</rscale>
<asrwt>0</asrwt>
<pdfrwt beam="1">  1        2 0.35131060E+00 0.16342307E+04</pdfrwt>
<pdfrwt beam="2">  1       -2 0.44983038E-01 0.16342307E+04</pdfrwt>
<totfact> 0.20784173E+01</totfact>
</mgrwt>
</event>
<event>
12    1  0.1960998E-007  0.2232835E+04  0.7818608E-02  0.8504884E-01
         -2   -1    0    0    0  501 -0.00000000000E+00  0.00000000000E+00  0.10040370535E+04  0.10040370535E+04  0.00000000000E+00 0.  1.
          2   -1    0    0  501    0  0.00000000000E+00 -0.00000000000E+00 -0.12413770572E+04  0.12413770572E+04  0.00000000000E+00 0. -1.
         23    2    1    2    0    0 -0.20138476941E+03  0.15521938163E+03  0.80199090777E+03  0.84621940220E+03  0.90823888565E+02 0.  0.
        254    2    1    2    0    0  0.20138476941E+03 -0.15521938163E+03 -0.10393309114E+04  0.13991947085E+04  0.90160313169E+03 0.  0.
        -24    2    4    4    0    0  0.81889359277E+02  0.35710310923E+03 -0.26899826625E+03  0.46316111466E+03  0.89048599665E+02 0.  0.
         24    2    4    4    0    0  0.11949541014E+03 -0.51232249086E+03 -0.77033264515E+03  0.93603359382E+03  0.77414578049E+02 0.  0.
         13    1    3    3    0    0 -0.75641319090E+02  0.92938576026E+02  0.25878771220E+03  0.28518462100E+03  0.00000000000E+00 0. -1.
        -13    1    3    3    0    0 -0.12574345032E+03  0.62280805601E+02  0.54320319556E+03  0.56103478120E+03  0.00000000000E+00 0.  1.
          2    1    6    6  502    0  0.55869472338E+02 -0.38878862373E+03 -0.56853569969E+03  0.69102158700E+03  0.00000000000E+00 0. -1.
          1    1    5    5  503    0  0.82825345246E+02  0.29266228238E+03 -0.25569397972E+03  0.39735457794E+03  0.00000000000E+00 0. -1.
         -2    1    5    5    0  503 -0.93598596878E+00  0.64440826858E+02 -0.13304286528E+02  0.65806536726E+02  0.00000000000E+00 0.  1.
         -1    1    6    6    0  502  0.63625937798E+02 -0.12353386713E+03 -0.20179694546E+03  0.24501200682E+03  0.00000000000E+00 0.  1.
<mgrwt>
<rscale>  0 0.22328355E+04</rscale>
<asrwt>0</asrwt>
<pdfrwt beam="1">  1        2 0.19098108E+00 0.22328355E+04</pdfrwt>
<pdfrwt beam="2">  1       -2 0.15446724E+00 0.22328355E+04</pdfrwt>
<totfact> 0.45206311E+00</totfact>
</mgrwt>
</event>
<event>
12    1  0.1960998E-007  0.1522527E+04  0.7818608E-02  0.8869609E-01
         -2   -1    0    0    0  501 -0.00000000000E+00  0.00000000000E+00  0.21506998579E+03  0.21506998579E+03  0.00000000000E+00 0.  1.
          2   -1    0    0  501    0  0.00000000000E+00 -0.00000000000E+00 -0.26945750399E+04  0.26945750399E+04  0.00000000000E+00 0. -1.
         23    2    1    2    0    0 -0.14134845703E+03 -0.24320949083E+03 -0.15842953575E+04  0.16115728450E+04  0.89693992130E+02 0.  0.
        254    2    1    2    0    0  0.14134845703E+03  0.24320949083E+03 -0.89520969667E+03  0.12980721807E+04  0.89691735554E+03 0.  0.
        -24    2    4    4    0    0 -0.10705846504E+02  0.14190698383E+03 -0.10394017707E+04  0.10521441886E+04  0.79994659229E+02 0.  0.
         24    2    4    4    0    0  0.15205430353E+03  0.10130250700E+03  0.14419207401E+03  0.24592799214E+03  0.79413562848E+02 0.  0.
         13    1    3    3    0    0  0.55578091319E+01 -0.22774402891E+02 -0.59752000128E+02  0.64186168204E+02  0.00000000000E+00 0.  1.
        -13    1    3    3    0    0 -0.14690626616E+03 -0.22043508794E+03 -0.15245433573E+04  0.15473866768E+04  0.00000000000E+00 0. -1.
          4    1    6    6  502    0  0.37148702282E+02  0.38356683302E+02  0.88937836237E+02  0.10373620366E+03  0.00000000000E+00 0. -1.
          3    1    5    5  503    0 -0.30113486312E+02  0.11156815391E+03 -0.92543218609E+03  0.93261943261E+03  0.00000000000E+00 0. -1.
         -4    1    5    5    0  503  0.19407639807E+02  0.30338829921E+02 -0.11396958459E+03  0.11952475599E+03  0.00000000000E+00 0.  1.
         -3    1    6    6    0  502  0.11490560125E+03  0.62945823697E+02  0.55254237771E+02  0.14219178848E+03  0.00000000000E+00 0.  1.
<mgrwt>
<rscale>  0 0.15225271E+04</rscale>
<asrwt>0</asrwt>
<pdfrwt beam="1">  1        2 0.41455003E+00 0.15225271E+04</pdfrwt>
<pdfrwt beam="2">  1       -2 0.33087688E-01 0.15225271E+04</pdfrwt>
<totfact> 0.22094268E+01</totfact>
</mgrwt>
</event>
<event>
12    1  0.1960998E-007  0.2358634E+04  0.7818608E-02  0.8455155E-01
         -1   -1    0    0    0  501 -0.00000000000E+00  0.00000000000E+00  0.12421464594E+04  0.12421464594E+04  0.00000000000E+00 0.  1.
          1   -1    0    0  501    0  0.00000000000E+00 -0.00000000000E+00 -0.11196653446E+04  0.11196653446E+04  0.00000000000E+00 0. -1.
         23    2    1    2    0    0  0.75118967098E+02 -0.84925713439E+03 -0.47932601299E+03  0.98400536133E+03  0.10785446149E+03 0.  0.
        254    2    1    2    0    0 -0.75118967098E+02  0.84925713439E+03  0.60180712774E+03  0.13778064427E+04  0.89961004608E+03 0.  0.
        -24    2    4    4    0    0 -0.35381140291E+03  0.23071686003E+03 -0.49601269389E+02  0.43348363253E+03  0.83874879527E+02 0.  0.
         24    2    4    4    0    0  0.27869243582E+03  0.61854027437E+03  0.65140839713E+03  0.94432281017E+03  0.84564325510E+02 0.  0.
         13    1    3    3    0    0  0.78220878556E+01 -0.34975634082E+03 -0.14221927263E+03  0.37764666623E+03  0.00000000000E+00 0.  1.
        -13    1    3    3    0    0  0.67296879243E+02 -0.49950079357E+03 -0.33710674036E+03  0.60635869511E+03  0.00000000000E+00 0. -1.
          4    1    6    6  502    0  0.17103578664E+03  0.33151352792E+03  0.30586540364E+03  0.48239828425E+03  0.00000000000E+00 0. -1.
          1    1    5    5  503    0 -0.27200355530E+03  0.20616962161E+03 -0.15947748929E+02  0.34168139790E+03  0.00000000000E+00 0. -1.
         -2    1    5    5    0  503 -0.81807847613E+02  0.24547238415E+02 -0.33653520460E+02  0.91802234636E+02  0.00000000000E+00 0.  1.
         -3    1    6    6    0  502  0.10765664918E+03  0.28702674644E+03  0.34554299350E+03  0.46192452591E+03  0.00000000000E+00 0.  1.
<mgrwt>
<rscale>  0 0.23586338E+04</rscale>
<asrwt>0</asrwt>
<pdfrwt beam="1">  1        1 0.17225621E+00 0.23586338E+04</pdfrwt>
<pdfrwt beam="2">  1       -1 0.19109946E+00 0.23586338E+04</pdfrwt>
<totfact> 0.19131009E+00</totfact>
</mgrwt>
</event>
<event>
12    1  0.1960998E-007  0.1818535E+04  0.7818608E-02  0.8696504E-01
         -1   -1    0    0    0  501 -0.00000000000E+00  0.00000000000E+00  0.31776981197E+04  0.31776981197E+04  0.00000000000E+00 0.  1.
          1   -1    0    0  501    0  0.00000000000E+00 -0.00000000000E+00 -0.26017820472E+03  0.26017820472E+03  0.00000000000E+00 0. -1.
         23    2    1    2    0    0 -0.34558239965E+03  0.57208137395E+03  0.13698843556E+04  0.15270394937E+04  0.92532017730E+02 0.  0.
        254    2    1    2    0    0  0.34558239965E+03 -0.57208137395E+03  0.15476355594E+04  0.19108368307E+04  0.89967620592E+03 0.  0.
        -24    2    4    4    0    0  0.10473993580E+02 -0.18913858456E+03 -0.64865409070E+02  0.21805824653E+03  0.86364164286E+02 0.  0.
         24    2    4    4    0    0  0.33510840607E+03 -0.38294278939E+03  0.16125009684E+04  0.16927785842E+04  0.79982110443E+02 0.  0.
         11    1    3    3    0    0 -0.29255741631E+03  0.53557480526E+03  0.12318206443E+04  0.13747044459E+04  0.00000000000E+00 0. -1.
        -11    1    3    3    0    0 -0.53024983338E+02  0.36506568685E+02  0.13806371131E+03  0.15233504782E+03  0.00000000000E+00 0.  1.
          2    1    6    6  502    0  0.24889362666E+03 -0.26306080306E+03  0.10283684501E+04  0.10902709263E+04  0.00000000000E+00 0. -1.
          1    1    5    5  503    0 -0.14412719290E+02 -0.17287149795E+03 -0.71444309585E+02  0.18760749093E+03  0.00000000000E+00 0. -1.
         -2    1    5    5    0  503  0.24886712870E+02 -0.16267086607E+02  0.65789005151E+01  0.30450755593E+02  0.00000000000E+00 0.  1.
         -1    1    6    6    0  502  0.86214779411E+02 -0.11988198632E+03  0.58413251830E+03  0.60250765785E+03  0.00000000000E+00 0.  1.
<mgrwt>
<rscale>  0 0.18185354E+04</rscale>
<asrwt>0</asrwt>
<pdfrwt beam="1">  1        1 0.40027418E-01 0.18185354E+04</pdfrwt>
<pdfrwt beam="2">  1       -1 0.48887661E+00 0.18185354E+04</pdfrwt>
<totfact> 0.17495665E-01</totfact>
</mgrwt>
</event>
<event>
12    1  0.1960998E-007  0.1706611E+04  0.7818608E-02  0.8757603E-01
         -1   -1    0    0    0  501 -0.00000000000E+00  0.00000000000E+00  0.60431458607E+03  0.60431458607E+03  0.00000000000E+00 0.  1.
          1   -1    0    0  501    0  0.00000000000E+00 -0.00000000000E+00 -0.12048861670E+04  0.12048861670E+04  0.00000000000E+00 0. -1.
         23    2    1    2    0    0 -0.53348984829E+03 -0.28800926945E+03 -0.12523214788E+03  0.62498025700E+03  0.85769885527E+02 0.  0.
        254    2    1    2    0    0  0.53348984829E+03  0.28800926945E+03 -0.47533943307E+03  0.11842204961E+04  0.89937191927E+03 0.  0.
        -24    2    4    4    0    0  0.34007102871E+03  0.59769607737E+03 -0.20356203711E+03  0.72178840907E+03  0.81560401173E+02 0.  0.
         24    2    4    4    0    0  0.19341881958E+03 -0.30968680791E+03 -0.27177739596E+03  0.46243208701E+03  0.81631632237E+02 0.  0.
         13    1    3    3    0    0 -0.36871579078E+03 -0.15372716410E+03 -0.90476188864E+02  0.40959652843E+03  0.00000000000E+00 0.  1.
        -13    1    3    3    0    0 -0.16477405752E+03 -0.13428210536E+03 -0.34755959012E+02  0.21538372858E+03  0.00000000000E+00 0. -1.
          2    1    6    6  502    0  0.51303501712E+02 -0.15867936088E+03 -0.12267876386E+03  0.20702963063E+03  0.00000000000E+00 0. -1.
          3    1    5    5  503    0  0.32038039817E+03  0.55768226610E+03 -0.21033971767E+03  0.67668006198E+03  0.00000000000E+00 0. -1.
         -4    1    5    5    0  503  0.19690630543E+02  0.40013811265E+02  0.67776805503E+01  0.45108347085E+02  0.00000000000E+00 0.  1.
         -3    1    6    6    0  502  0.14211531787E+03 -0.15100744704E+03 -0.14909863210E+03  0.25540245639E+03  0.00000000000E+00 0.  1.
<mgrwt>
<rscale>  0 0.17066110E+04</rscale>
<asrwt>0</asrwt>
<pdfrwt beam="1">  1        1 0.18536710E+00 0.17066110E+04</pdfrwt>
<pdfrwt beam="2">  1       -1 0.92971475E-01 0.17066110E+04</pdfrwt>
<totfact> 0.11329038E+01</totfact>
</mgrwt>
</event>
<event>
12    1  0.1960998E-007  0.2003764E+04  0.7818608E-02  0.8604863E-01
         -1   -1    0    0    0  501 -0.00000000000E+00  0.00000000000E+00  0.21805846625E+04  0.21805846625E+04  0.00000000000E+00 0.  1.
          1   -1    0    0  501    0  0.00000000000E+00 -0.00000000000E+00 -0.46032040337E+03  0.46032040337E+03  0.00000000000E+00 0. -1.
         23    2    1    2    0    0 -0.30480104383E+03 -0.65547957703E+03  0.24761208724E+03  0.76973993292E+03  0.92901379775E+02 0.  0.
        254    2    1    2    0    0  0.30480104383E+03  0.65547957703E+03  0.14726521719E+04  0.18711651330E+04  0.89999854620E+03 0.  0.
        -24    2    4    4    0    0  0.48322452577E+03  0.13069894391E+03  0.34860909240E+03  0.61533446779E+03  0.80746837082E+02 0.  0.
         24    2    4    4    0    0 -0.17842348194E+03  0.52478063312E+03  0.11240430795E+04  0.12558306652E+04  0.80051003714E+02 0.  0.
         13    1    3    3    0    0 -0.39185839511E+02 -0.10229537847E+03  0.43405012180E+01  0.10962989750E+03  0.00000000000E+00 0. -1.
        -13    1    3    3    0    0 -0.26561520432E+03 -0.55318419855E+03  0.24327158602E+03  0.66011003542E+03  0.00000000000E+00 0.  1.
          2    1    6    6  502    0 -0.12128781537E+03  0.32014555620E+03  0.60794469687E+03  0.69771101880E+03  0.00000000000E+00 0. -1.
          3    1    5    5  503    0  0.74782383093E+02 -0.80452678843E+01  0.61522694786E+02  0.97170845063E+02  0.00000000000E+00 0. -1.
         -4    1    5    5    0  503  0.40844214268E+03  0.13874421179E+03  0.28708639762E+03  0.51816362273E+03  0.00000000000E+00 0.  1.
         -1    1    6    6    0  502 -0.57135666578E+02  0.20463507692E+03  0.51609838263E+03  0.55811964636E+03  0.00000000000E+00 0.  1.
<mgrwt>
<rscale>  0 0.20037641E+04</rscale>
<asrwt>0</asrwt>
<pdfrwt beam="1">  1        1 0.70818524E-01 0.20037641E+04</pdfrwt>
<pdfrwt beam="2">  1       -1 0.33547456E+00 0.20037641E+04</pdfrwt>
<totfact> 0.89342529E-01</totfact>
</mgrwt>
</event>
<event>
12    1  0.1960998E-007  0.1132892E+04  0.7818608E-02  0.9173713E-01
          2   -1    0    0  501    0  0.00000000000E+00  0.00000000000E+00  0.17629892712E+03  0.17629892712E+03  0.00000000000E+00 0. -1.
         -2   -1    0    0    0  501 -0.00000000000E+00 -0.00000000000E+00 -0.18199834090E+04  0.18199834090E+04  0.00000000000E+00 0.  1.
         23    2    1    2    0    0 -0.15626640214E+03 -0.19030277124E+02 -0.88756931182E+02  0.20502387559E+03  0.96827975532E+02 0.  0.
        254    2    1    2    0    0  0.15626640214E+03  0.19030277124E+02 -0.15549275507E+04  0.17912584605E+04  0.87522902409E+03 0.  0.
        -24    2    4    4    0    0  0.19069467696E+03 -0.34539547196E+03 -0.12341587192E+04  0.12981165269E+04  0.79349111435E+02 0.  0.
         24    2    4    4    0    0 -0.34428274819E+02  0.36442574908E+03 -0.32076883149E+03  0.49314193358E+03  0.79403341861E+02 0.  0.
         13    1    3    3    0    0 -0.49807184589E+02  0.36788296812E+02 -0.14047776587E+02  0.63493892982E+02  0.00000000000E+00 0. -1.
        -13    1    3    3    0    0 -0.10645921755E+03 -0.55818573936E+02 -0.74709154595E+02  0.14152998261E+03  0.00000000000E+00 0.  1.
          4    1    6    6  502    0 -0.47642524723E+02  0.19634750297E+03 -0.20999261972E+03  0.29140873773E+03  0.00000000000E+00 0. -1.
          3    1    5    5  503    0  0.38268980736E+02 -0.35500398378E+02 -0.10393521484E+03  0.11630701637E+03  0.00000000000E+00 0. -1.
         -4    1    5    5    0  503  0.15242569622E+03 -0.30989507358E+03 -0.11302235043E+04  0.11818095106E+04  0.00000000000E+00 0.  1.
         -3    1    6    6    0  502  0.13214249904E+02  0.16807824611E+03 -0.11077621176E+03  0.20173319585E+03  0.00000000000E+00 0.  1.
<mgrwt>
<rscale>  0 0.11328921E+04</rscale>
<asrwt>0</asrwt>
<pdfrwt beam="1">  1        2 0.27122912E-01 0.11328921E+04</pdfrwt>
<pdfrwt beam="2">  1       -2 0.27999745E+00 0.11328921E+04</pdfrwt>
<totfact> 0.83990347E+00</totfact>
</mgrwt>
</event>
<event>
12    1  0.1960998E-007  0.1492091E+04  0.7818608E-02  0.8889730E-01
          2   -1    0    0  501    0  0.00000000000E+00  0.00000000000E+00  0.18448484601E+04  0.18448484601E+04  0.00000000000E+00 0. -1.
         -2   -1    0    0    0  501 -0.00000000000E+00 -0.00000000000E+00 -0.30169614160E+03  0.30169614160E+03  0.00000000000E+00 0.  1.
         23    2    1    2    0    0 -0.15126803104E+03 -0.44239155722E+03  0.54996676129E+03  0.72697305552E+03  0.86221098420E+02 0.  0.
        254    2    1    2    0    0  0.15126803104E+03  0.44239155722E+03  0.99318555724E+03  0.14195715462E+04  0.90009639293E+03 0.  0.
        -24    2    4    4    0    0  0.38950365758E+03  0.41183034258E+03  0.10145960078E+04  0.11647608866E+04  0.77107286091E+02 0.  0.
         24    2    4    4    0    0 -0.23823562654E+03  0.30561214636E+02 -0.21410450531E+02  0.25481065963E+03  0.82339925156E+02 0.  0.
         13    1    3    3    0    0 -0.72127385909E+02 -0.30884989087E+03  0.40657628263E+03  0.51564996701E+03  0.00000000000E+00 0. -1.
        -13    1    3    3    0    0 -0.79140645134E+02 -0.13354166635E+03  0.14339047867E+03  0.21132308851E+03  0.00000000000E+00 0.  1.
          2    1    6    6  502    0 -0.10319679433E+03  0.10703478162E+02  0.31494096207E+02  0.10842518573E+03  0.00000000000E+00 0. -1.
          3    1    5    5  503    0  0.96843285676E+02  0.12852848614E+03  0.22963011246E+03  0.28040717230E+03  0.00000000000E+00 0. -1.
         -4    1    5    5    0  503  0.29266037191E+03  0.28330185645E+03  0.78496589531E+03  0.88435371427E+03  0.00000000000E+00 0.  1.
         -1    1    6    6    0  502 -0.13503883221E+03  0.19857736474E+02 -0.52904546738E+02  0.14638547390E+03  0.00000000000E+00 0.  1.
<mgrwt>
<rscale>  0 0.14920907E+04</rscale>
<asrwt>0</asrwt>
<pdfrwt beam="1">  1        2 0.28382283E+00 0.14920907E+04</pdfrwt>
<pdfrwt beam="2">  1       -2 0.46414792E-01 0.14920907E+04</pdfrwt>
<totfact> 0.34668163E+01</totfact>
</mgrwt>
</event>
<event>
12    1  0.1960998E-007  0.2617875E+04  0.7818608E-02  0.8362155E-01
         -1   -1    0    0    0  501 -0.00000000000E+00  0.00000000000E+00  0.91883976541E+03  0.91883976541E+03  0.00000000000E+00 0.  1.
          1   -1    0    0  501    0  0.00000000000E+00 -0.00000000000E+00 -0.18646525218E+04  0.18646525218E+04  0.00000000000E+00 0. -1.
         23    2    1    2    0    0  0.33616638642E+03  0.69730797470E+03  0.48687453696E+03  0.92248662423E+03  0.12119614763E+03 0.  0.
        254    2    1    2    0    0 -0.33616638642E+03 -0.69730797470E+03 -0.14326872934E+04  0.18610056630E+04  0.90083458312E+03 0.  0.
        -24    2    4    4    0    0 -0.26664299044E+03 -0.33250841370E+03 -0.61526692098E+02  0.43821748509E+03  0.81170812890E+02 0.  0.
         24    2    4    4    0    0 -0.69523395984E+02 -0.36479956101E+03 -0.13711606013E+04  0.14227881779E+04  0.79577524425E+02 0.  0.
         11    1    3    3    0    0  0.28242328682E+03  0.62392761741E+03  0.38403537070E+03  0.78519535827E+03  0.00000000000E+00 0. -1.
        -11    1    3    3    0    0  0.53743099603E+02  0.73380357295E+02  0.10283916626E+03  0.13729126596E+03  0.00000000000E+00 0.  1.
          4    1    6    6  502    0 -0.57676239079E+02 -0.12064770517E+03 -0.42357893854E+03  0.44418637360E+03  0.00000000000E+00 0. -1.
          1    1    5    5  503    0 -0.38285458437E+01 -0.21800316701E+02 -0.18775834918E+02  0.29024878095E+02  0.00000000000E+00 0. -1.
         -2    1    5    5    0  503 -0.26281444460E+03 -0.31070809700E+03 -0.42750857179E+02  0.40919260699E+03  0.00000000000E+00 0.  1.
         -3    1    6    6    0  502 -0.11847156906E+02 -0.24415185584E+03 -0.94758166272E+03  0.97860180429E+03  0.00000000000E+00 0.  1.
<mgrwt>
<rscale>  0 0.26178746E+04</rscale>
<asrwt>0</asrwt>
<pdfrwt beam="1">  1        1 0.28686962E+00 0.26178746E+04</pdfrwt>
<pdfrwt beam="2">  1       -1 0.14135997E+00 0.26178746E+04</pdfrwt>
<totfact> 0.13230985E+00</totfact>
</mgrwt>
</event>
<event>
12    1  0.1960998E-007  0.2010660E+04  0.7818608E-02  0.8601653E-01
          2   -1    0    0  501    0  0.00000000000E+00  0.00000000000E+00  0.14560374718E+04  0.14560374718E+04  0.00000000000E+00 0.  1.
         -2   -1    0    0    0  501 -0.00000000000E+00 -0.00000000000E+00 -0.69413622830E+03  0.69413622830E+03  0.00000000000E+00 0. -1.
         23    2    1    2    0    0 -0.48624339380E+03  0.55891740574E+03  0.62913591300E+03  0.97656902392E+03  0.95151232278E+02 0.  0.
        254    2    1    2    0    0  0.48624339380E+03 -0.55891740574E+03  0.13276533052E+03  0.11736046762E+04  0.90049986040E+03 0.  0.
        -24    2    4    4    0    0  0.10579845277E+03 -0.70707987321E+03  0.21160009307E+03  0.74984527495E+03  0.79612042246E+02 0.  0.
         24    2    4    4    0    0  0.38044494103E+03  0.14816246747E+03 -0.78834762546E+02  0.42375940126E+03  0.81649497520E+02 0.  0.
         13    1    3    3    0    0 -0.14039265622E+03  0.22907310957E+03  0.24010792408E+03  0.36032818743E+03  0.00000000000E+00 0. -1.
        -13    1    3    3    0    0 -0.34585073758E+03  0.32984429616E+03  0.38902798891E+03  0.61624083648E+03  0.00000000000E+00 0.  1.
          2    1    6    6  502    0  0.32771581493E+03  0.14767848624E+03 -0.47918213724E+02  0.36263307331E+03  0.00000000000E+00 0. -1.
          1    1    5    5  503    0  0.85472468910E+02 -0.42960185042E+03  0.95155201788E+02  0.44823855841E+03  0.00000000000E+00 0. -1.
         -2    1    5    5    0  503  0.20325983857E+02 -0.27747802279E+03  0.11644489128E+03  0.30160671653E+03  0.00000000000E+00 0.  1.
         -1    1    6    6    0  502  0.52729126107E+02  0.48398123528E+00 -0.30916548823E+02  0.61126327952E+02  0.00000000000E+00 0.  1.
<mgrwt>
<rscale>  0 0.20106600E+04</rscale>
<asrwt>0</asrwt>
<pdfrwt beam="1">  1        2 0.22400576E+00 0.20106600E+04</pdfrwt>
<pdfrwt beam="2">  1       -2 0.10679019E+00 0.20106600E+04</pdfrwt>
<totfact> 0.88086464E+00</totfact>
</mgrwt>
</event>
<event>
12    1  0.1960998E-007  0.2480476E+04  0.7818608E-02  0.8409974E-01
         -2   -1    0    0    0  501 -0.00000000000E+00  0.00000000000E+00  0.93552017160E+03  0.93552017160E+03  0.00000000000E+00 0.  1.
          2   -1    0    0  501    0  0.00000000000E+00 -0.00000000000E+00 -0.16442088388E+04  0.16442088388E+04  0.00000000000E+00 0. -1.
         23    2    1    2    0    0  0.92269661085E+03  0.40582809026E+03  0.77301944332E+02  0.10152182507E+04  0.92881814815E+02 0.  0.
        254    2    1    2    0    0 -0.92269661085E+03 -0.40582809026E+03 -0.78599061158E+03  0.15645107597E+04  0.90213480212E+03 0.  0.
        -24    2    4    4    0    0 -0.55153207190E+03  0.52531199414E+02 -0.79148803922E+03  0.96934735457E+03  0.78954571389E+02 0.  0.
         24    2    4    4    0    0 -0.37116453896E+03 -0.45835928968E+03  0.54974276443E+01  0.59516340513E+03  0.79579543083E+02 0.  0.
         11    1    3    3    0    0  0.11672369115E+03  0.27777329337E+02 -0.11673955690E+02  0.12054991224E+03  0.00000000000E+00 0. -1.
        -11    1    3    3    0    0  0.80597291971E+03  0.37805076093E+03  0.88975900023E+02  0.89466833850E+03  0.00000000000E+00 0.  1.
          4    1    6    6  502    0 -0.15926881056E+03 -0.23883941225E+03 -0.26966404608E+02  0.28833661897E+03  0.00000000000E+00 0. -1.
          3    1    5    5  503    0 -0.20781845001E+03  0.23666128789E+02 -0.23468934666E+03  0.31436870591E+03  0.00000000000E+00 0. -1.
         -2    1    5    5    0  503 -0.34371362188E+03  0.28865070625E+02 -0.55679869256E+03  0.65497864866E+03  0.00000000000E+00 0.  1.
         -3    1    6    6    0  502 -0.21189572840E+03 -0.21951987743E+03  0.32463832252E+02  0.30682678616E+03  0.00000000000E+00 0.  1.
<mgrwt>
<rscale>  0 0.24804762E+04</rscale>
<asrwt>0</asrwt>
<pdfrwt beam="1">  1        2 0.25295520E+00 0.24804762E+04</pdfrwt>
<pdfrwt beam="2">  1       -2 0.14392618E+00 0.24804762E+04</pdfrwt>
<totfact> 0.31450412E+00</totfact>
</mgrwt>
</event>
<event>
12    1  0.1960998E-007  0.5226824E+04  0.7818608E-02  0.7794439E-01
          1   -1    0    0  501    0  0.00000000000E+00  0.00000000000E+00  0.26873094229E+04  0.26873094229E+04  0.00000000000E+00 0. -1.
         -1   -1    0    0    0  501 -0.00000000000E+00 -0.00000000000E+00 -0.25415470808E+04  0.25415470808E+04  0.00000000000E+00 0.  1.
         23    2    1    2    0    0 -0.22658352168E+04  0.10708744624E+04 -0.31168901640E+03  0.25271683085E+04  0.92996089991E+02 0.  0.
        254    2    1    2    0    0  0.22658352168E+04 -0.10708744624E+04  0.45745135843E+03  0.27016881952E+04  0.89948652830E+03 0.  0.
        -24    2    4    4    0    0  0.38813075038E+03  0.13083047305E+03  0.17653955188E+03  0.45332036062E+03  0.81061975732E+02 0.  0.
         24    2    4    4    0    0  0.18777044664E+04 -0.12017049354E+04  0.28091180655E+03  0.22483678345E+04  0.79860260453E+02 0.  0.
         13    1    3    3    0    0 -0.18234614290E+04  0.84017697663E+03 -0.21773959631E+03  0.20194849509E+04  0.00000000000E+00 0.  1.
        -13    1    3    3    0    0 -0.44237378777E+03  0.23069748575E+03 -0.93949420089E+02  0.50768335759E+03  0.00000000000E+00 0. -1.
          2    1    6    6  502    0  0.17881998306E+04 -0.11636985689E+04  0.26787941904E+03  0.21502586767E+04  0.00000000000E+00 0. -1.
          3    1    5    5  503    0  0.28318522334E+03  0.94936099445E+02  0.87907899181E+02  0.31134311046E+03  0.00000000000E+00 0. -1.
         -4    1    5    5    0  503  0.10494552704E+03  0.35894373602E+02  0.88631652702E+02  0.14197725016E+03  0.00000000000E+00 0.  1.
         -1    1    6    6    0  502  0.89504635860E+02 -0.38006366504E+02  0.13032387513E+02  0.98109157878E+02  0.00000000000E+00 0.  1.
<mgrwt>
<rscale>  0 0.52268244E+04</rscale>
<asrwt>0</asrwt>
<pdfrwt beam="1">  1        1 0.41343222E+00 0.52268244E+04</pdfrwt>
<pdfrwt beam="2">  1       -1 0.39100724E+00 0.52268244E+04</pdfrwt>
<totfact> 0.58564537E-03</totfact>
</mgrwt>
</event>
<event>
12    1  0.1960998E-007  0.1987436E+04  0.7818608E-02  0.8612517E-01
          1   -1    0    0  501    0  0.00000000000E+00  0.00000000000E+00  0.10901574142E+04  0.10901574142E+04  0.00000000000E+00 0. -1.
         -1   -1    0    0    0  501 -0.00000000000E+00 -0.00000000000E+00 -0.90580990681E+03  0.90580990681E+03  0.00000000000E+00 0.  1.
         23    2    1    2    0    0  0.10198920080E+03  0.76028013752E+03 -0.10079568295E+03  0.77905617171E+03  0.91329427831E+02 0.  0.
        254    2    1    2    0    0 -0.10198920080E+03 -0.76028013752E+03  0.28514319033E+03  0.12169111493E+04  0.90063223442E+03 0.  0.
        -24    2    4    4    0    0 -0.25276652484E+03 -0.27563586356E+03 -0.26412215481E+03  0.46483192479E+03  0.80263069239E+02 0.  0.
         24    2    4    4    0    0  0.15077732404E+03 -0.48464427396E+03  0.54926534514E+03  0.75207922450E+03  0.79478719270E+02 0.  0.
         13    1    3    3    0    0  0.34662231335E+02  0.28964511743E+03  0.60379048053E+01  0.29177426313E+03  0.00000000000E+00 0. -1.
        -13    1    3    3    0    0  0.67326969464E+02  0.47063502009E+03 -0.10683358775E+03  0.48728190858E+03  0.00000000000E+00 0.  1.
          4    1    6    6  502    0  0.82361741732E+02 -0.30330455173E+03  0.39233207284E+03  0.50269430371E+03  0.00000000000E+00 0. -1.
          1    1    5    5  503    0 -0.24062471035E+03 -0.27231459860E+03 -0.26814569274E+03  0.45161665645E+03  0.00000000000E+00 0. -1.
         -2    1    5    5    0  503 -0.12141814487E+02 -0.33212649672E+01  0.40235379343E+01  0.13215268349E+02  0.00000000000E+00 0.  1.
         -3    1    6    6    0  502  0.68415582311E+02 -0.18133972223E+03  0.15693327230E+03  0.24938492079E+03  0.00000000000E+00 0.  1.
<mgrwt>
<rscale>  0 0.19874359E+04</rscale>
<asrwt>0</asrwt>
<pdfrwt beam="1">  1        1 0.16771653E+00 0.19874359E+04</pdfrwt>
<pdfrwt beam="2">  1       -1 0.13935537E+00 0.19874359E+04</pdfrwt>
<totfact> 0.50819705E+00</totfact>
</mgrwt>
</event>
<event>
12    1  0.1960998E-007  0.2238661E+04  0.7818608E-02  0.8502507E-01
         -3   -1    0    0    0  501 -0.00000000000E+00  0.00000000000E+00  0.13426449332E+04  0.13426449332E+04  0.00000000000E+00 0.  1.
          3   -1    0    0  501    0  0.00000000000E+00 -0.00000000000E+00 -0.93315854981E+03  0.93315854981E+03  0.00000000000E+00 0. -1.
         23    2    1    2    0    0 -0.86548055503E+03 -0.15766911544E+03 -0.15067953170E+03  0.89735401317E+03  0.92864215842E+02 0.  0.
        254    2    1    2    0    0  0.86548055503E+03  0.15766911544E+03  0.56016591508E+03  0.13784494698E+04  0.90134396731E+03 0.  0.
        -24    2    4    4    0    0 -0.29021988935E+02  0.33251421981E+03  0.19170568731E+03  0.39207939076E+03  0.74613644122E+02 0.  0.
         24    2    4    4    0    0  0.89450254396E+03 -0.17484510437E+03  0.36846022776E+03  0.98637007909E+03  0.80357835950E+02 0.  0.
         11    1    3    3    0    0 -0.12334060162E+03 -0.22335519089E+02  0.11053746372E+02  0.12583308281E+03  0.00000000000E+00 0.  1.
        -11    1    3    3    0    0 -0.74213995341E+03 -0.13533359635E+03 -0.16173327807E+03  0.77152093036E+03  0.00000000000E+00 0. -1.
          4    1    6    6  502    0  0.25234131366E+03 -0.61148067345E+02  0.14254174338E+03  0.29619819939E+03  0.00000000000E+00 0. -1.
          1    1    5    5  503    0  0.41334098837E+01  0.34397088484E+02 -0.25143677884E+01  0.34735670697E+02  0.00000000000E+00 0. -1.
         -2    1    5    5    0  503 -0.33155398818E+02  0.29811713133E+03  0.19422005510E+03  0.35734372006E+03  0.00000000000E+00 0.  1.
         -3    1    6    6    0  502  0.64216123030E+03 -0.11369703702E+03  0.22591848439E+03  0.69017187969E+03  0.00000000000E+00 0.  1.
<mgrwt>
<rscale>  0 0.22386608E+04</rscale>
<asrwt>0</asrwt>
<pdfrwt beam="1">  1        3 0.14356285E+00 0.22386608E+04</pdfrwt>
<pdfrwt beam="2">  1       -3 0.20656076E+00 0.22386608E+04</pdfrwt>
<totfact> 0.11465861E-01</totfact>
</mgrwt>
</event>
<event>
12    1  0.1960998E-007  0.2188393E+04  0.7818608E-02  0.8523275E-01
         -2   -1    0    0    0  501 -0.00000000000E+00  0.00000000000E+00  0.22625912352E+04  0.22625912352E+04  0.00000000000E+00 0.  1.
          2   -1    0    0  501    0  0.00000000000E+00 -0.00000000000E+00 -0.52915694084E+03  0.52915694084E+03  0.00000000000E+00 0. -1.
         23    2    1    2    0    0 -0.36510313886E+03  0.82736067967E+03  0.77043188931E+03  0.11915733153E+04  0.91954735224E+02 0.  0.
        254    2    1    2    0    0  0.36510313886E+03 -0.82736067967E+03  0.96300240500E+03  0.16001748607E+04  0.90297284376E+03 0.  0.
        -24    2    4    4    0    0  0.48302726698E+03 -0.95865633044E+03  0.87905683859E+03  0.13897739910E+04  0.79959489912E+02 0.  0.
         24    2    4    4    0    0 -0.11792412812E+03  0.13129565077E+03  0.83945566406E+02  0.21040086972E+03  0.77955243289E+02 0.  0.
         13    1    3    3    0    0 -0.28291641817E+03  0.63724640080E+03  0.54113247130E+03  0.88258088949E+03  0.00000000000E+00 0. -1.
        -13    1    3    3    0    0 -0.82186720691E+02  0.19011427887E+03  0.22929941802E+03  0.30899242578E+03  0.00000000000E+00 0.  1.
          4    1    6    6  502    0 -0.40743949466E+02  0.72252466323E+01  0.40645628940E+02  0.58002937503E+02  0.00000000000E+00 0. -1.
          3    1    5    5  503    0  0.24560141999E+03 -0.44036317630E+03  0.36902674651E+03  0.62483639793E+03  0.00000000000E+00 0. -1.
         -4    1    5    5    0  503  0.23742584699E+03 -0.51829315414E+03  0.51003009209E+03  0.76493759306E+03  0.00000000000E+00 0.  1.
         -3    1    6    6    0  502 -0.77180178653E+02  0.12407040414E+03  0.43299937467E+02  0.15239793222E+03  0.00000000000E+00 0.  1.
<mgrwt>
<rscale>  0 0.21883929E+04</rscale>
<asrwt>0</asrwt>
<pdfrwt beam="1">  1        2 0.81408762E-01 0.21883929E+04</pdfrwt>
<pdfrwt beam="2">  1       -2 0.34809095E+00 0.21883929E+04</pdfrwt>
<totfact> 0.84450985E-01</totfact>
</mgrwt>
</event>
<event>
12    1  0.1960998E-007  0.2118416E+04  0.7818608E-02  0.8553174E-01
         -2   -1    0    0    0  501 -0.00000000000E+00  0.00000000000E+00  0.44090558068E+03  0.44090558068E+03  0.00000000000E+00 0.  1.
          2   -1    0    0  501    0  0.00000000000E+00 -0.00000000000E+00 -0.25445853110E+04  0.25445853110E+04  0.00000000000E+00 0. -1.
         23    2    1    2    0    0 -0.34680890737E+03  0.78817512999E+03 -0.69066849563E+03  0.11076748689E+04  0.91783389349E+02 0.  0.
        254    2    1    2    0    0  0.34680890737E+03 -0.78817512999E+03 -0.14130112347E+04  0.18778160228E+04  0.88774760621E+03 0.  0.
        -24    2    4    4    0    0 -0.19157910173E+03 -0.41663910719E+03 -0.22067246398E+03  0.51489193294E+03  0.78273037439E+02 0.  0.
         24    2    4    4    0    0  0.53838800909E+03 -0.37153602280E+03 -0.11923387707E+04  0.13629240899E+04  0.89384931599E+02 0.  0.
         13    1    3    3    0    0 -0.60818120266E+02  0.16666419994E+03 -0.18956152276E+03  0.25963314543E+03  0.00000000000E+00 0. -1.
        -13    1    3    3    0    0 -0.28599078710E+03  0.62151093005E+03 -0.50110697287E+03  0.84804172346E+03  0.00000000000E+00 0.  1.
          4    1    6    6  502    0  0.14997276704E+03 -0.12145831449E+03 -0.27671974416E+03  0.33736889279E+03  0.00000000000E+00 0. -1.
          3    1    5    5  503    0 -0.98014445499E+02 -0.17143348627E+03 -0.13340545769E+03  0.23831342363E+03  0.00000000000E+00 0. -1.
         -4    1    5    5    0  503 -0.93564656227E+02 -0.24520562092E+03 -0.87267006294E+02  0.27657850931E+03  0.00000000000E+00 0.  1.
         -3    1    6    6    0  502  0.38841524205E+03 -0.25007770831E+03 -0.91561902656E+03  0.10255551971E+04  0.00000000000E+00 0.  1.
<mgrwt>
<rscale>  0 0.21184163E+04</rscale>
<asrwt>0</asrwt>
<pdfrwt beam="1">  1        2 0.39147467E+00 0.21184163E+04</pdfrwt>
<pdfrwt beam="2">  1       -2 0.67831627E-01 0.21184163E+04</pdfrwt>
<totfact> 0.60095231E+00</totfact>
</mgrwt>
</event>
<event>
12    1  0.2272633E-007  0.2402601E+04  0.7818608E-02  0.8438531E-01
         -2   -1    0    0    0  501 -0.00000000000E+00  0.00000000000E+00  0.40540760079E+03  0.40540760079E+03  0.00000000000E+00 0.  1.
          2   -1    0    0  501    0  0.00000000000E+00 -0.00000000000E+00 -0.35596827601E+04  0.35596827601E+04  0.00000000000E+00 0. -1.
         23    2    1    2    0    0  0.43829748305E+03 -0.91406636540E+03 -0.11247082455E+04  0.15168715902E+04  0.91152508744E+02 0.  0.
        254    2    1    2    0    0 -0.43829748305E+03  0.91406636540E+03 -0.20295669138E+04  0.24482187706E+04  0.92033216134E+03 0.  0.
        -24    2    4    4    0    0  0.26179614268E+03  0.10844378640E+03 -0.35606923128E+03  0.46173248690E+03  0.78194097353E+02 0.  0.
         24    2    4    4    0    0 -0.70009362573E+03  0.80562257900E+03 -0.16734976826E+04  0.19864862837E+04  0.79840074010E+02 0.  0.
         11    1    3    3    0    0  0.19930946016E+03 -0.52057786515E+03 -0.61516362827E+03  0.83015171151E+03  0.00000000000E+00 0. -1.
        -11    1    3    3    0    0  0.23898802289E+03 -0.39348850025E+03 -0.50954461721E+03  0.68671987873E+03  0.00000000000E+00 0.  1.
          4    1    6    6  502    0 -0.99509563698E+02  0.14769864006E+03 -0.24264003035E+03  0.30098376346E+03  0.00000000000E+00 0. -1.
          1    1    5    5  503    0  0.38721311970E+02 -0.11857614334E+02 -0.47388182694E+02  0.62334443748E+02  0.00000000000E+00 0. -1.
         -2    1    5    5    0  503  0.22307483071E+03  0.12030140073E+03 -0.30868104859E+03  0.39939804315E+03  0.00000000000E+00 0.  1.
         -3    1    6    6    0  502 -0.60058406203E+03  0.65792393894E+03 -0.14308576522E+04  0.16855025203E+04  0.00000000000E+00 0.  1.
<mgrwt>
<rscale>  0 0.24026006E+04</rscale>
<asrwt>0</asrwt>
<pdfrwt beam="1">  1        2 0.54764352E+00 0.24026006E+04</pdfrwt>
<pdfrwt beam="2">  1       -2 0.62370398E-01 0.24026006E+04</pdfrwt>
<totfact> 0.15855994E+00</totfact>
</mgrwt>
</event>
<event>
12    1  0.1960998E-007  0.3670761E+04  0.7818608E-02  0.8074473E-01
         -1   -1    0    0    0  501 -0.00000000000E+00  0.00000000000E+00  0.13493769765E+04  0.13493769765E+04  0.00000000000E+00 0.  1.
          1   -1    0    0  501    0  0.00000000000E+00 -0.00000000000E+00 -0.24964269464E+04  0.24964269464E+04  0.00000000000E+00 0. -1.
         23    2    1    2    0    0 -0.12117314031E+04 -0.69802968541E+03  0.51596224389E+03  0.14933236827E+04  0.90885362150E+02 0.  0.
        254    2    1    2    0    0  0.12117314031E+04  0.69802968541E+03 -0.16630122139E+04  0.23524802403E+04  0.90167356753E+03 0.  0.
        -24    2    4    4    0    0  0.46943140250E+03  0.47971716480E+03 -0.21564465741E+03  0.70948224390E+03  0.79799976677E+02 0.  0.
         24    2    4    4    0    0  0.74230000061E+03  0.21831252061E+03 -0.14473675564E+04  0.16429979964E+04  0.76810969632E+02 0.  0.
         11    1    3    3    0    0 -0.69773003724E+03 -0.36548031239E+03  0.32452714652E+03  0.85189255922E+03  0.00000000000E+00 0. -1.
        -11    1    3    3    0    0 -0.51400136587E+03 -0.33254937302E+03  0.19143509736E+03  0.64143112344E+03  0.00000000000E+00 0.  1.
          2    1    6    6  502    0  0.43978448756E+03  0.93187322415E+02 -0.86971279483E+03  0.97902738371E+03  0.00000000000E+00 0. -1.
          1    1    5    5  503    0  0.15642240608E+03  0.15060563855E+03 -0.10889308785E+03  0.24291507171E+03  0.00000000000E+00 0. -1.
         -2    1    5    5    0  503  0.31300899642E+03  0.32911152625E+03 -0.10675156957E+03  0.46656717218E+03  0.00000000000E+00 0.  1.
         -3    1    6    6    0  502  0.30251551305E+03  0.12512519820E+03 -0.57765476161E+03  0.66397061266E+03  0.00000000000E+00 0.  1.
<mgrwt>
<rscale>  0 0.36707607E+04</rscale>
<asrwt>0</asrwt>
<pdfrwt beam="1">  1        1 0.38406568E+00 0.36707607E+04</pdfrwt>
<pdfrwt beam="2">  1       -1 0.20759646E+00 0.36707607E+04</pdfrwt>
<totfact> 0.14627280E-01</totfact>
</mgrwt>
</event>
<event>
12    1  0.1960998E-007  0.1706476E+04  0.7818608E-02  0.8757680E-01
         -1   -1    0    0    0  501 -0.00000000000E+00  0.00000000000E+00  0.88939885299E+03  0.88939885299E+03  0.00000000000E+00 0.  1.
          1   -1    0    0  501    0  0.00000000000E+00 -0.00000000000E+00 -0.81854702902E+03  0.81854702902E+03  0.00000000000E+00 0. -1.
         23    2    1    2    0    0 -0.54966078364E+03  0.19660324635E+03 -0.15498958663E+03  0.61114288351E+03  0.93241828350E+02 0.  0.
        254    2    1    2    0    0  0.54966078364E+03 -0.19660324635E+03  0.22584141059E+03  0.10968029985E+04  0.90066234585E+03 0.  0.
        -24    2    4    4    0    0  0.11563581267E+03 -0.17522777448E+02 -0.33363806003E+03  0.36219129234E+03  0.78673300752E+02 0.  0.
         24    2    4    4    0    0  0.43402497097E+03 -0.17908046891E+03  0.55947947062E+03  0.73461170616E+03  0.78673953847E+02 0.  0.
         13    1    3    3    0    0 -0.30084452127E+03  0.93080376679E+02 -0.12930745679E+03  0.34042884849E+03  0.00000000000E+00 0. -1.
        -13    1    3    3    0    0 -0.24881626237E+03  0.10352286968E+03 -0.25682129837E+02  0.27071403502E+03  0.00000000000E+00 0.  1.
          4    1    6    6  502    0  0.27961765496E+03 -0.74958551510E+02  0.32682542085E+03  0.43660012955E+03  0.00000000000E+00 0. -1.
          3    1    5    5  503    0  0.46780660622E+02 -0.32608518910E+02 -0.22923126348E+03  0.23621752236E+03  0.00000000000E+00 0. -1.
         -4    1    5    5    0  503  0.68855152047E+02  0.15085741462E+02 -0.10440679654E+03  0.12597376998E+03  0.00000000000E+00 0.  1.
         -3    1    6    6    0  502  0.15440731601E+03 -0.10412191740E+03  0.23265404976E+03  0.29801157661E+03  0.00000000000E+00 0.  1.
<mgrwt>
<rscale>  0 0.17064757E+04</rscale>
<asrwt>0</asrwt>
<pdfrwt beam="1">  1        1 0.12593031E+00 0.17064757E+04</pdfrwt>
<pdfrwt beam="2">  1       -1 0.13683059E+00 0.17064757E+04</pdfrwt>
<totfact> 0.90172312E+00</totfact>
</mgrwt>
</event>
<event>
12    1  0.1960998E-007  0.2194912E+04  0.7818608E-02  0.8520549E-01
          2   -1    0    0  501    0  0.00000000000E+00  0.00000000000E+00  0.15944963667E+04  0.15944963667E+04  0.00000000000E+00 0.  1.
         -2   -1    0    0    0  501 -0.00000000000E+00 -0.00000000000E+00 -0.75535419314E+03  0.75535419314E+03  0.00000000000E+00 0. -1.
         23    2    1    2    0    0 -0.78150725252E+03 -0.40879107161E+03  0.10992131753E+03  0.89353060231E+03  0.91926684115E+02 0.  0.
        254    2    1    2    0    0  0.78150725252E+03  0.40879107161E+03  0.72922085604E+03  0.14563199575E+04  0.90068920049E+03 0.  0.
        -24    2    4    4    0    0  0.58307006734E+03 -0.15136872929E+03  0.57671694648E+03  0.83765563695E+03  0.78621460916E+02 0.  0.
         24    2    4    4    0    0  0.19843718518E+03  0.56015980090E+03  0.15250390955E+03  0.61866432059E+03  0.79572483540E+02 0.  0.
         13    1    3    3    0    0 -0.17298721983E+03 -0.81571962537E+02  0.61571877563E+02  0.20092202319E+03  0.00000000000E+00 0.  1.
        -13    1    3    3    0    0 -0.60852003269E+03 -0.32721910907E+03  0.48349439970E+02  0.69260857912E+03  0.00000000000E+00 0. -1.
          2    1    6    6  502    0  0.17824377017E+03  0.43764089889E+03  0.95808363630E+02  0.48216142580E+03  0.00000000000E+00 0. -1.
          1    1    5    5  503    0  0.17539389176E+03 -0.59202501063E+02  0.22525120510E+03  0.29155798531E+03  0.00000000000E+00 0. -1.
         -2    1    5    5    0  503  0.40767617557E+03 -0.92166228227E+02  0.35146574139E+03  0.54609765164E+03  0.00000000000E+00 0.  1.
         -1    1    6    6    0  502  0.20193415012E+02  0.12251890201E+03  0.56695545924E+02  0.13650289479E+03  0.00000000000E+00 0.  1.
<mgrwt>
<rscale>  0 0.21949119E+04</rscale>
<asrwt>0</asrwt>
<pdfrwt beam="1">  1        2 0.24530713E+00 0.21949119E+04</pdfrwt>
<pdfrwt beam="2">  1       -2 0.11620834E+00 0.21949119E+04</pdfrwt>
<totfact> 0.59037230E+00</totfact>
</mgrwt>
</event>
<event>
12    1  0.1960998E-007  0.2191568E+04  0.7818608E-02  0.8521946E-01
          1   -1    0    0  501    0  0.00000000000E+00  0.00000000000E+00  0.27344919496E+04  0.27344919496E+04  0.00000000000E+00 0. -1.
         -1   -1    0    0    0  501 -0.00000000000E+00 -0.00000000000E+00 -0.43910999176E+03  0.43910999176E+03  0.00000000000E+00 0.  1.
         23    2    1    2    0    0 -0.56191578229E+03 -0.68870803619E+03  0.68339452525E+03  0.11246005472E+04  0.87351061979E+02 0.  0.
        254    2    1    2    0    0  0.56191578229E+03  0.68870803619E+03  0.16119874326E+04  0.20490013942E+04  0.89990839818E+03 0.  0.
        -24    2    4    4    0    0  0.41606914154E+03  0.37721165007E+03  0.15978604123E+04  0.16955084822E+04  0.78669921518E+02 0.  0.
         24    2    4    4    0    0  0.14584664076E+03  0.31149638611E+03  0.14127020306E+02  0.35349291201E+03  0.80351882087E+02 0.  0.
         11    1    3    3    0    0 -0.15748743879E+03 -0.19478329390E+03  0.14449170146E+03  0.28917239970E+03  0.00000000000E+00 0.  1.
        -11    1    3    3    0    0 -0.40442834351E+03 -0.49392474229E+03  0.53890282379E+03  0.83542814746E+03  0.00000000000E+00 0. -1.
          4    1    6    6  502    0  0.15248085220E+03  0.29789715997E+03  0.29251890629E+01  0.33466652796E+03  0.00000000000E+00 0. -1.
          1    1    5    5  503    0  0.24644907391E+03  0.26157602653E+03  0.10903397489E+04  0.11480417813E+04  0.00000000000E+00 0. -1.
         -2    1    5    5    0  503  0.16962006763E+03  0.11563562355E+03  0.50752066342E+03  0.54746670088E+03  0.00000000000E+00 0.  1.
         -3    1    6    6    0  502 -0.66342114410E+01  0.13599226145E+02  0.11201831243E+02  0.18826384050E+02  0.00000000000E+00 0.  1.
<mgrwt>
<rscale>  0 0.21915681E+04</rscale>
<asrwt>0</asrwt>
<pdfrwt beam="1">  1        1 0.42069106E+00 0.21915681E+04</pdfrwt>
<pdfrwt beam="2">  1       -1 0.67555385E-01 0.21915681E+04</pdfrwt>
<totfact> 0.18790791E+00</totfact>
</mgrwt>
</event>
<event>
12    1  0.1960998E-007  0.2003363E+04  0.7818608E-02  0.8605050E-01
          1   -1    0    0  501    0  0.00000000000E+00  0.00000000000E+00  0.77973194759E+03  0.77973194759E+03  0.00000000000E+00 0. -1.
         -1   -1    0    0    0  501 -0.00000000000E+00 -0.00000000000E+00 -0.12868081664E+04  0.12868081664E+04  0.00000000000E+00 0.  1.
         23    2    1    2    0    0 -0.41180575017E+03 -0.21613663775E+03 -0.86332907713E+03  0.98508016739E+03  0.93524428424E+02 0.  0.
        254    2    1    2    0    0  0.41180575017E+03  0.21613663775E+03  0.35625285835E+03  0.10814599466E+04  0.90903272488E+03 0.  0.
        -24    2    4    4    0    0  0.94922524573E+02 -0.34613972892E+03  0.16973544815E+03  0.40498806938E+03  0.79888775015E+02 0.  0.
         24    2    4    4    0    0  0.31688322560E+03  0.56227636667E+03  0.18651741021E+03  0.67647187719E+03  0.79093395050E+02 0.  0.
         11    1    3    3    0    0 -0.33882694291E+03 -0.20737533770E+03 -0.76848628736E+03  0.86508924499E+03  0.00000000000E+00 0.  1.
        -11    1    3    3    0    0 -0.72978807262E+02 -0.87613000499E+01 -0.94842789767E+02  0.11999092240E+03  0.00000000000E+00 0. -1.
          4    1    6    6  502    0  0.87558814097E+02  0.10161316431E+03  0.57624312438E+02  0.14598747368E+03  0.00000000000E+00 0. -1.
          3    1    5    5  503    0  0.92309756167E+02 -0.34402654388E+03  0.15256822940E+03  0.38749505622E+03  0.00000000000E+00 0. -1.
         -4    1    5    5    0  503  0.26127684057E+01 -0.21131850437E+01  0.17167218746E+02  0.17493013155E+02  0.00000000000E+00 0.  1.
         -3    1    6    6    0  502  0.22932441150E+03  0.46066320235E+03  0.12889309777E+03  0.53048440351E+03  0.00000000000E+00 0.  1.
<mgrwt>
<rscale>  0 0.20033626E+04</rscale>
<asrwt>0</asrwt>
<pdfrwt beam="1">  1        1 0.11995876E+00 0.20033626E+04</pdfrwt>
<pdfrwt beam="2">  1       -1 0.19797049E+00 0.20033626E+04</pdfrwt>
<totfact> 0.33205255E+00</totfact>
</mgrwt>
</event>
<event>
12    1  0.1960998E-007  0.1822666E+04  0.7818608E-02  0.8694338E-01
         -2   -1    0    0    0  501 -0.00000000000E+00  0.00000000000E+00  0.72835869663E+03  0.72835869663E+03  0.00000000000E+00 0.  1.
          2   -1    0    0  501    0  0.00000000000E+00 -0.00000000000E+00 -0.11402736802E+04  0.11402736802E+04  0.00000000000E+00 0. -1.
         23    2    1    2    0    0 -0.46819504490E+03  0.25592409929E+03 -0.58046153151E+03  0.79382035480E+03  0.92257365412E+02 0.  0.
        254    2    1    2    0    0  0.46819504490E+03 -0.25592409929E+03  0.16854654791E+03  0.10748120221E+04  0.91766508012E+03 0.  0.
        -24    2    4    4    0    0  0.73755671075E+03 -0.22030820211E+03  0.16122166829E+03  0.79063131647E+03  0.81116254654E+02 0.  0.
         24    2    4    4    0    0 -0.26936166585E+03 -0.35615897188E+02  0.73248796266E+01  0.28418070559E+03  0.82950710687E+02 0.  0.
         13    1    3    3    0    0 -0.39757802582E+03  0.17846308227E+03 -0.48523799287E+03  0.65220646123E+03  0.00000000000E+00 0. -1.
        -13    1    3    3    0    0 -0.70617019077E+02  0.77461017021E+02 -0.95223538637E+02  0.14161389357E+03  0.00000000000E+00 0.  1.
          2    1    6    6  502    0 -0.23468272053E+03 -0.65034780904E+01 -0.11707583978E+02  0.23506454872E+03  0.00000000000E+00 0. -1.
          1    1    5    5  503    0  0.59921704488E+03 -0.18905511142E+03  0.10035947254E+03  0.63629782787E+03  0.00000000000E+00 0. -1.
         -2    1    5    5    0  503  0.13833966587E+03 -0.31253090685E+02  0.60862195752E+02  0.15433348860E+03  0.00000000000E+00 0.  1.
         -1    1    6    6    0  502 -0.34678945319E+02 -0.29112419098E+02  0.19032463605E+02  0.49116156863E+02  0.00000000000E+00 0.  1.
<mgrwt>
<rscale>  0 0.18226665E+04</rscale>
<asrwt>0</asrwt>
<pdfrwt beam="1">  1        2 0.17542672E+00 0.18226665E+04</pdfrwt>
<pdfrwt beam="2">  1       -2 0.11205518E+00 0.18226665E+04</pdfrwt>
<totfact> 0.12184668E+01</totfact>
</mgrwt>
</event>
<event>
12    1  0.2649598E-007  0.2769659E+04  0.7818608E-02  0.8312750E-01
          2   -1    0    0  501    0  0.00000000000E+00  0.00000000000E+00  0.15424795749E+04  0.15424795749E+04  0.00000000000E+00 0. -1.
         -2   -1    0    0    0  501 -0.00000000000E+00 -0.00000000000E+00 -0.12432920491E+04  0.12432920491E+04  0.00000000000E+00 0.  1.
         23    2    1    2    0    0 -0.71394882725E+03  0.10108267383E+04  0.19880882788E+03  0.12567334250E+04  0.91434833523E+02 0.  0.
        254    2    1    2    0    0  0.71394882725E+03 -0.10108267383E+04  0.10037869791E+03  0.15290381990E+04  0.89240590999E+03 0.  0.
        -24    2    4    4    0    0  0.74613918810E+03 -0.43219153385E+03 -0.17350542593E+03  0.88313107132E+03  0.79392357049E+02 0.  0.
         24    2    4    4    0    0 -0.32190360850E+02 -0.57863520445E+03  0.27388412384E+03  0.64590712767E+03  0.79552404881E+02 0.  0.
         11    1    3    3    0    0 -0.37994413519E+03  0.45875328840E+03  0.95543435596E+02  0.60327495686E+03  0.00000000000E+00 0.  1.
        -11    1    3    3    0    0 -0.33400469206E+03  0.55207344990E+03  0.10326539229E+03  0.65345846819E+03  0.00000000000E+00 0. -1.
          2    1    6    6  502    0 -0.42492548906E+02 -0.47593233524E+03  0.19538059442E+03  0.51622745095E+03  0.00000000000E+00 0. -1.
          3    1    5    5  503    0  0.49778478335E+03 -0.25778553092E+03 -0.84758442210E+02  0.56694538009E+03  0.00000000000E+00 0. -1.
         -4    1    5    5    0  503  0.24835440475E+03 -0.17440600294E+03 -0.88746983720E+02  0.31618569123E+03  0.00000000000E+00 0.  1.
         -1    1    6    6    0  502  0.10302188056E+02 -0.10270286921E+03  0.78503529418E+02  0.12967967672E+03  0.00000000000E+00 0.  1.
<mgrwt>
<rscale>  0 0.27696589E+04</rscale>
<asrwt>0</asrwt>
<pdfrwt beam="1">  1        2 0.23730455E+00 0.27696589E+04</pdfrwt>
<pdfrwt beam="2">  1       -2 0.19127570E+00 0.27696589E+04</pdfrwt>
<totfact> 0.15927447E+00</totfact>
</mgrwt>
</event>
<event>
12    1  0.1960998E-007  0.3341848E+04  0.7818608E-02  0.8152328E-01
         -2   -1    0    0    0  501 -0.00000000000E+00  0.00000000000E+00  0.23227330426E+04  0.23227330426E+04  0.00000000000E+00 0.  1.
          2   -1    0    0  501    0  0.00000000000E+00 -0.00000000000E+00 -0.12020269871E+04  0.12020269871E+04  0.00000000000E+00 0. -1.
         23    2    1    2    0    0 -0.34373455647E+03  0.14314029447E+04  0.13573104493E+02  0.14751041977E+04  0.93168285547E+02 0.  0.
        254    2    1    2    0    0  0.34373455647E+03 -0.14314029447E+04  0.11071329510E+04  0.20496558319E+04  0.89904272574E+03 0.  0.
        -24    2    4    4    0    0 -0.30046578457E+03 -0.46372928768E+03  0.39894781087E+03  0.68611027280E+03  0.79141712790E+02 0.  0.
         24    2    4    4    0    0  0.64420034104E+03 -0.96767365706E+03  0.70818514012E+03  0.13635455591E+04  0.79648686013E+02 0.  0.
         11    1    3    3    0    0 -0.17828302480E+02  0.18148031607E+03 -0.15987237901E+02  0.18305339458E+03  0.00000000000E+00 0. -1.
        -11    1    3    3    0    0 -0.32590625399E+03  0.12499226287E+04  0.29560342395E+02  0.12920508031E+04  0.00000000000E+00 0.  1.
          4    1    6    6  502    0  0.61784782172E+03 -0.94862480165E+03  0.68075196470E+03  0.13210027186E+04  0.00000000000E+00 0. -1.
          1    1    5    5  503    0 -0.28362834563E+03 -0.44906211415E+03  0.36140730811E+03  0.64243059015E+03  0.00000000000E+00 0. -1.
         -2    1    5    5    0  503 -0.16837438937E+02 -0.14667173532E+02  0.37540502754E+02  0.43679682650E+02  0.00000000000E+00 0.  1.
         -3    1    6    6    0  502  0.26352519320E+02 -0.19048855407E+02  0.27433175415E+02  0.42542840528E+02  0.00000000000E+00 0.  1.
<mgrwt>
<rscale>  0 0.33418485E+04</rscale>
<asrwt>0</asrwt>
<pdfrwt beam="1">  1        2 0.18492723E+00 0.33418485E+04</pdfrwt>
<pdfrwt beam="2">  1       -2 0.35734354E+00 0.33418485E+04</pdfrwt>
<totfact> 0.21968646E-01</totfact>
</mgrwt>
</event>
<event>
12    1  0.1960998E-007  0.3285120E+04  0.7818608E-02  0.8166692E-01
          1   -1    0    0  501    0  0.00000000000E+00  0.00000000000E+00  0.31923757826E+04  0.31923757826E+04  0.00000000000E+00 0. -1.
         -1   -1    0    0    0  501 -0.00000000000E+00 -0.00000000000E+00 -0.84513956420E+03  0.84513956420E+03  0.00000000000E+00 0.  1.
         23    2    1    2    0    0 -0.14952043958E+03 -0.14397703314E+04  0.52562327724E+03  0.15427192635E+04  0.91694749908E+02 0.  0.
        254    2    1    2    0    0  0.14952043958E+03  0.14397703314E+04  0.18216129412E+04  0.24947960833E+04  0.90024375639E+03 0.  0.
        -24    2    4    4    0    0 -0.53451293607E+01  0.15026466025E+04  0.17231712520E+04  0.22876996364E+04  0.79215404475E+02 0.  0.
         24    2    4    4    0    0  0.15486556894E+03 -0.62876271028E+02  0.98441689146E+02  0.20709644694E+03  0.72535524212E+02 0.  0.
         13    1    3    3    0    0 -0.62694424415E+02 -0.30322096754E+03  0.89958212677E+02  0.32243763123E+03  0.00000000000E+00 0. -1.
        -13    1    3    3    0    0 -0.86826015164E+02 -0.11365493639E+04  0.43566506456E+03  0.12202816322E+04  0.00000000000E+00 0.  1.
          2    1    6    6  502    0  0.30443812477E+02 -0.11605138245E+02  0.58094022042E+02  0.66606458762E+02  0.00000000000E+00 0. -1.
          3    1    5    5  503    0 -0.10122834006E+02  0.35315751783E+03  0.45557178700E+03  0.57651396972E+03  0.00000000000E+00 0. -1.
         -4    1    5    5    0  503  0.47777046451E+01  0.11494890846E+04  0.12675994650E+04  0.17111856667E+04  0.00000000000E+00 0.  1.
         -1    1    6    6    0  502  0.12442175646E+03 -0.51271132783E+02  0.40347667104E+02  0.14048998818E+03  0.00000000000E+00 0.  1.
<mgrwt>
<rscale>  0 0.32851198E+04</rscale>
<asrwt>0</asrwt>
<pdfrwt beam="1">  1        1 0.49113473E+00 0.32851198E+04</pdfrwt>
<pdfrwt beam="2">  1       -1 0.13002147E+00 0.32851198E+04</pdfrwt>
<totfact> 0.18117675E-01</totfact>
</mgrwt>
</event>
<event>
12    1  0.1960998E-007  0.1635063E+04  0.7818608E-02  0.8799293E-01
          2   -1    0    0  501    0  0.00000000000E+00  0.00000000000E+00  0.13769183204E+04  0.13769183204E+04  0.00000000000E+00 0. -1.
         -2   -1    0    0    0  501 -0.00000000000E+00 -0.00000000000E+00 -0.48540102379E+03  0.48540102379E+03  0.00000000000E+00 0.  1.
         23    2    1    2    0    0  0.36575572814E+03  0.41954864585E+03  0.42327637657E+03  0.70510235596E+03  0.90598689367E+02 0.  0.
        254    2    1    2    0    0 -0.36575572814E+03 -0.41954864585E+03  0.46824092000E+03  0.11572169882E+04  0.90005737578E+03 0.  0.
        -24    2    4    4    0    0 -0.31494272400E+03 -0.64919025356E+03  0.53359769165E+03  0.90054383422E+03  0.74938615507E+02 0.  0.
         24    2    4    4    0    0 -0.50813004140E+02  0.22964160771E+03 -0.65356771648E+02  0.25667315398E+03  0.79324466526E+02 0.  0.
         11    1    3    3    0    0  0.21793635650E+03  0.18331845500E+03  0.22831700114E+03  0.36500762244E+03  0.00000000000E+00 0. -1.
        -11    1    3    3    0    0  0.14781937163E+03  0.23623019084E+03  0.19495937543E+03  0.34009473351E+03  0.00000000000E+00 0.  1.
          2    1    6    6  502    0 -0.28200591438E+02  0.22209007919E+03 -0.63778436492E+02  0.23278093907E+03  0.00000000000E+00 0. -1.
          3    1    5    5  503    0 -0.30766662449E+03 -0.58903323428E+03  0.49591962252E+03  0.82918946865E+03  0.00000000000E+00 0. -1.
         -4    1    5    5    0  503 -0.72760995062E+01 -0.60157019275E+02  0.37678069128E+02  0.71354365566E+02  0.00000000000E+00 0.  1.
         -1    1    6    6    0  502 -0.22612412702E+02  0.75515285175E+01 -0.15783351565E+01  0.23892214904E+02  0.00000000000E+00 0.  1.
<mgrwt>
<rscale>  0 0.16350628E+04</rscale>
<asrwt>0</asrwt>
<pdfrwt beam="1">  1        2 0.21183359E+00 0.16350628E+04</pdfrwt>
<pdfrwt beam="2">  1       -2 0.74677081E-01 0.16350628E+04</pdfrwt>
<totfact> 0.23002500E+01</totfact>
</mgrwt>
</event>
<event>
12    1  0.1960998E-007  0.2379668E+04  0.7818608E-02  0.8447155E-01
         -1   -1    0    0    0  501 -0.00000000000E+00  0.00000000000E+00  0.10760002258E+04  0.10760002258E+04  0.00000000000E+00 0.  1.
          1   -1    0    0  501    0  0.00000000000E+00 -0.00000000000E+00 -0.13157106859E+04  0.13157106859E+04  0.00000000000E+00 0. -1.
         23    2    1    2    0    0 -0.42211545317E+03  0.77454495966E+03 -0.61239425774E+03  0.10776767219E+04  0.90879258916E+02 0.  0.
        254    2    1    2    0    0  0.42211545317E+03 -0.77454495966E+03  0.37268379766E+03  0.13140341897E+04  0.89982847723E+03 0.  0.
        -24    2    4    4    0    0 -0.19835879504E+03 -0.55350246788E+03  0.13483810789E+03  0.60945454401E+03  0.86846602445E+02 0.  0.
         24    2    4    4    0    0  0.62047424821E+03 -0.22104249178E+03  0.23784568977E+03  0.70457964573E+03  0.77548882477E+02 0.  0.
         13    1    3    3    0    0 -0.30845997161E+03  0.63894034615E+03 -0.47822049245E+03  0.85562092040E+03  0.00000000000E+00 0.  1.
        -13    1    3    3    0    0 -0.11365548156E+03  0.13560461350E+03 -0.13417376529E+03  0.22205580151E+03  0.00000000000E+00 0. -1.
          2    1    6    6  502    0  0.16447505050E+03 -0.89208800206E+02  0.46587921229E+02  0.19282294126E+03  0.00000000000E+00 0. -1.
          1    1    5    5  503    0 -0.68772566048E+02 -0.18075264821E+03  0.86553159072E+02  0.21187882155E+03  0.00000000000E+00 0. -1.
         -2    1    5    5    0  503 -0.12958622899E+03 -0.37274981966E+03  0.48284948821E+02  0.39757572246E+03  0.00000000000E+00 0.  1.
         -1    1    6    6    0  502  0.45599919771E+03 -0.13183369158E+03  0.19125776854E+03  0.51175670448E+03  0.00000000000E+00 0.  1.
<mgrwt>
<rscale>  0 0.23796680E+04</rscale>
<asrwt>0</asrwt>
<pdfrwt beam="1">  1        1 0.20241703E+00 0.23796680E+04</pdfrwt>
<pdfrwt beam="2">  1       -1 0.16553850E+00 0.23796680E+04</pdfrwt>
<totfact> 0.21011858E+00</totfact>
</mgrwt>
</event>
<event>
12    1  0.1960998E-007  0.2598672E+04  0.7818608E-02  0.8368652E-01
          1   -1    0    0  501    0  0.00000000000E+00  0.00000000000E+00  0.10203908922E+04  0.10203908922E+04  0.00000000000E+00 0. -1.
         -1   -1    0    0    0  501 -0.00000000000E+00 -0.00000000000E+00 -0.16545364725E+04  0.16545364725E+04  0.00000000000E+00 0.  1.
         23    2    1    2    0    0 -0.95953933594E+03  0.53814790428E+03 -0.59118918511E+03  0.12521220672E+04  0.89365062871E+02 0.  0.
        254    2    1    2    0    0  0.95953933594E+03 -0.53814790428E+03 -0.42956395241E+02  0.14228052975E+04  0.90122736229E+03 0.  0.
        -24    2    4    4    0    0  0.57613439091E+03 -0.77145082701E+03 -0.44699164117E+02  0.96703158329E+03  0.78005467291E+02 0.  0.
         24    2    4    4    0    0  0.38340494503E+03  0.23330292274E+03  0.17427688758E+01  0.45577371418E+03  0.79353863566E+02 0.  0.
         13    1    3    3    0    0 -0.32004920308E+03  0.20347503595E+03 -0.24603051977E+03  0.45206702966E+03  0.00000000000E+00 0.  1.
        -13    1    3    3    0    0 -0.63949013286E+03  0.33467286833E+03 -0.34515866534E+03  0.80005503753E+03  0.00000000000E+00 0. -1.
          4    1    6    6  502    0  0.58720267555E+02  0.72516892824E+02 -0.42848567346E+01  0.93408401998E+02  0.00000000000E+00 0. -1.
          1    1    5    5  503    0  0.32778346901E+03 -0.37434319874E+03 -0.17788658569E+02  0.49788680378E+03  0.00000000000E+00 0. -1.
         -2    1    5    5    0  503  0.24835092189E+03 -0.39710762827E+03 -0.26910505548E+02  0.46914477951E+03  0.00000000000E+00 0.  1.
         -3    1    6    6    0  502  0.32468467747E+03  0.16078602991E+03  0.60276256104E+01  0.36236531218E+03  0.00000000000E+00 0.  1.
<mgrwt>
<rscale>  0 0.25986719E+04</rscale>
<asrwt>0</asrwt>
<pdfrwt beam="1">  1        1 0.15698321E+00 0.25986719E+04</pdfrwt>
<pdfrwt beam="2">  1       -1 0.25454407E+00 0.25986719E+04</pdfrwt>
<totfact> 0.83662654E-01</totfact>
</mgrwt>
</event>
<event>
12    1  0.1960998E-007  0.1599549E+04  0.7818608E-02  0.8820825E-01
          2   -1    0    0  501    0  0.00000000000E+00  0.00000000000E+00  0.26339540756E+04  0.26339540756E+04  0.00000000000E+00 0. -1.
         -2   -1    0    0    0  501 -0.00000000000E+00 -0.00000000000E+00 -0.24284365925E+03  0.24284365925E+03  0.00000000000E+00 0.  1.
         23    2    1    2    0    0  0.51404354149E+03  0.15009774483E+03  0.66826852399E+03  0.86115071998E+03  0.90706376889E+02 0.  0.
        254    2    1    2    0    0 -0.51404354149E+03 -0.15009774483E+03  0.17228418923E+04  0.20156470148E+04  0.89882067561E+03 0.  0.
        -24    2    4    4    0    0  0.16230269122E+03  0.20766538306E+03  0.41362539412E+03  0.49709661822E+03  0.80944464223E+02 0.  0.
         24    2    4    4    0    0 -0.67634623271E+03 -0.35776312789E+03  0.13092164982E+04  0.15185503966E+04  0.80677045656E+02 0.  0.
         11    1    3    3    0    0  0.13951863451E+03  0.12989796308E+02  0.12931079253E+03  0.19067109180E+03  0.00000000000E+00 0.  1.
        -11    1    3    3    0    0  0.37452490698E+03  0.13710794852E+03  0.53895773146E+03  0.67047962817E+03  0.00000000000E+00 0. -1.
          4    1    6    6  502    0  0.23336431772E+01 -0.20446997810E+01  0.45223484641E+01  0.54843708211E+01  0.00000000000E+00 0. -1.
          1    1    5    5  503    0  0.14901688125E+02  0.38035981762E+02  0.12372776829E+03  0.13029718671E+03  0.00000000000E+00 0. -1.
         -2    1    5    5    0  503  0.14740100309E+03  0.16962940130E+03  0.28989762583E+03  0.36679943151E+03  0.00000000000E+00 0.  1.
         -3    1    6    6    0  502 -0.67867987589E+03 -0.35571842811E+03  0.13046941498E+04  0.15130660258E+04  0.00000000000E+00 0.  1.
<mgrwt>
<rscale>  0 0.15995487E+04</rscale>
<asrwt>0</asrwt>
<pdfrwt beam="1">  1        2 0.40522368E+00 0.15995487E+04</pdfrwt>
<pdfrwt beam="2">  1       -2 0.37360565E-01 0.15995487E+04</pdfrwt>
<totfact> 0.18884567E+01</totfact>
</mgrwt>
</event>
<event>
12    1  0.1960998E-007  0.2058089E+04  0.7818608E-02  0.8579934E-01
          2   -1    0    0  501    0  0.00000000000E+00  0.00000000000E+00  0.31877826167E+04  0.31877826167E+04  0.00000000000E+00 0. -1.
         -2   -1    0    0    0  501 -0.00000000000E+00 -0.00000000000E+00 -0.33218453410E+03  0.33218453410E+03  0.00000000000E+00 0.  1.
         23    2    1    2    0    0  0.11075649330E+03 -0.74757287712E+03  0.57301973736E+03  0.95246970960E+03  0.87833483877E+02 0.  0.
        254    2    1    2    0    0 -0.11075649330E+03  0.74757287712E+03  0.22825783452E+04  0.25674974412E+04  0.90041490493E+03 0.  0.
        -24    2    4    4    0    0 -0.42708966122E+03  0.11549321379E+03  0.69435593184E+03  0.82723335493E+03  0.80253363026E+02 0.  0.
         24    2    4    4    0    0  0.31633316792E+03  0.63207966333E+03  0.15882224134E+04  0.17402640863E+04  0.80481560803E+02 0.  0.
         11    1    3    3    0    0  0.11082861039E+03 -0.47290179279E+03  0.38138800265E+03  0.61755639019E+03  0.00000000000E+00 0. -1.
        -11    1    3    3    0    0 -0.72117089947E-01 -0.27467108433E+03  0.19163173471E+03  0.33491331940E+03  0.00000000000E+00 0.  1.
          4    1    6    6  502    0  0.60695669891E+02  0.18567609424E+03  0.49122296192E+03  0.52863936160E+03  0.00000000000E+00 0. -1.
          3    1    5    5  503    0 -0.42184715798E+02  0.22498092778E+02  0.39735257366E+02  0.62165948103E+02  0.00000000000E+00 0. -1.
         -4    1    5    5    0  503 -0.38490494542E+03  0.92995121015E+02  0.65462067447E+03  0.76506740683E+03  0.00000000000E+00 0.  1.
         -3    1    6    6    0  502  0.25563749803E+03  0.44640356909E+03  0.10969994515E+04  0.12116247247E+04  0.00000000000E+00 0.  1.
<mgrwt>
<rscale>  0 0.20580885E+04</rscale>
<asrwt>0</asrwt>
<pdfrwt beam="1">  1        2 0.49042807E+00 0.20580885E+04</pdfrwt>
<pdfrwt beam="2">  1       -2 0.51105315E-01 0.20580885E+04</pdfrwt>
<totfact> 0.44326184E+00</totfact>
</mgrwt>
</event>
<event>
12    1  0.1960998E-007  0.4259979E+04  0.7818608E-02  0.7954060E-01
         -2   -1    0    0    0  501 -0.00000000000E+00  0.00000000000E+00  0.25591126488E+04  0.25591126488E+04  0.00000000000E+00 0.  1.
          2   -1    0    0  501    0  0.00000000000E+00 -0.00000000000E+00 -0.17728235394E+04  0.17728235394E+04  0.00000000000E+00 0. -1.
         23    2    1    2    0    0  0.92876837256E+03 -0.89734872443E+03 -0.12216138854E+04  0.17799223059E+04  0.89092686726E+02 0.  0.
        254    2    1    2    0    0 -0.92876837256E+03  0.89734872443E+03  0.20079029948E+04  0.25520138824E+04  0.90180651808E+03 0.  0.
        -24    2    4    4    0    0 -0.35366526840E+03  0.15332046876E+03  0.74507708061E+02  0.40061195472E+03  0.79701013091E+02 0.  0.
         24    2    4    4    0    0 -0.57510310416E+03  0.74402825567E+03  0.19333952868E+04  0.21514019276E+04  0.78684774651E+02 0.  0.
         11    1    3    3    0    0  0.45639315270E+03 -0.40781590853E+03 -0.52702233895E+03  0.80768872150E+03  0.00000000000E+00 0.  1.
        -11    1    3    3    0    0  0.47237521986E+03 -0.48953281590E+03 -0.69459154648E+03  0.97223358439E+03  0.00000000000E+00 0. -1.
          4    1    6    6  502    0 -0.23568579869E+03  0.27580831714E+03  0.66921310576E+03  0.76122546229E+03  0.00000000000E+00 0. -1.
          1    1    5    5  503    0 -0.16868236736E+03  0.45030209628E+02  0.28838788997E+01  0.17461322285E+03  0.00000000000E+00 0. -1.
         -2    1    5    5    0  503 -0.18498290104E+03  0.10829025913E+03  0.71623829161E+02  0.22599873186E+03  0.00000000000E+00 0.  1.
         -3    1    6    6    0  502 -0.33941730547E+03  0.46821993853E+03  0.12641821810E+04  0.13901764654E+04  0.00000000000E+00 0.  1.
<mgrwt>
<rscale>  0 0.42599789E+04</rscale>
<asrwt>0</asrwt>
<pdfrwt beam="1">  1        2 0.27274208E+00 0.42599789E+04</pdfrwt>
<pdfrwt beam="2">  1       -2 0.39370964E+00 0.42599789E+04</pdfrwt>
<totfact> 0.56297163E-02</totfact>
</mgrwt>
</event>
<event>
12    1  0.1960998E-007  0.1893635E+04  0.7818608E-02  0.8658031E-01
          2   -1    0    0  501    0  0.00000000000E+00  0.00000000000E+00  0.44621545101E+04  0.44621545101E+04  0.00000000000E+00 0. -1.
         -2   -1    0    0    0  501 -0.00000000000E+00 -0.00000000000E+00 -0.20090360368E+03  0.20090360368E+03  0.00000000000E+00 0.  1.
         23    2    1    2    0    0 -0.55310798534E+03  0.37479749410E+03  0.99617794418E+03  0.12036875408E+04  0.10045692795E+03 0.  0.
        254    2    1    2    0    0  0.55310798534E+03 -0.37479749410E+03  0.32650729623E+04  0.34593705730E+04  0.92743824988E+03 0.  0.
        -24    2    4    4    0    0  0.25671619860E+03 -0.55261996883E+03  0.28371238635E+04  0.29027583914E+04  0.73772793634E+02 0.  0.
         24    2    4    4    0    0  0.29639178674E+03  0.17782247473E+03  0.42794909875E+03  0.55661218164E+03  0.84898562196E+02 0.  0.
         13    1    3    3    0    0 -0.40169014809E+03  0.32011392630E+03  0.72959912379E+03  0.89226833538E+03  0.00000000000E+00 0.  1.
        -13    1    3    3    0    0 -0.15141783725E+03  0.54683567804E+02  0.26657882039E+03  0.31141920542E+03  0.00000000000E+00 0. -1.
          2    1    6    6  502    0  0.29591879079E+03  0.18470621507E+03  0.42191885771E+03  0.54744848079E+03  0.00000000000E+00 0. -1.
          3    1    5    5  503    0  0.24876907658E+03 -0.49410084638E+03  0.24968102012E+04  0.25573585749E+04  0.00000000000E+00 0. -1.
         -4    1    5    5    0  503  0.79471220204E+01 -0.58519122452E+02  0.34031366235E+03  0.34539981648E+03  0.00000000000E+00 0.  1.
         -1    1    6    6    0  502  0.47299594772E+00 -0.68837403409E+01  0.60302410461E+01  0.91637008529E+01  0.00000000000E+00 0.  1.
<mgrwt>
<rscale>  0 0.18936345E+04</rscale>
<asrwt>0</asrwt>
<pdfrwt beam="1">  1        2 0.68648524E+00 0.18936345E+04</pdfrwt>
<pdfrwt beam="2">  1       -2 0.30908250E-01 0.18936345E+04</pdfrwt>
<totfact> 0.12405439E+00</totfact>
</mgrwt>
</event>
<event>
12    1  0.1960998E-007  0.2610671E+04  0.7818608E-02  0.8364586E-01
         -2   -1    0    0    0  501 -0.00000000000E+00  0.00000000000E+00  0.70905521062E+03  0.70905521062E+03  0.00000000000E+00 0.  1.
          2   -1    0    0  501    0  0.00000000000E+00 -0.00000000000E+00 -0.24030571591E+04  0.24030571591E+04  0.00000000000E+00 0. -1.
         23    2    1    2    0    0  0.64194528136E+03  0.93537970467E+03 -0.53703284741E+03  0.12584345965E+04  0.90688578295E+02 0.  0.
        254    2    1    2    0    0 -0.64194528136E+03 -0.93537970467E+03 -0.11569691011E+04  0.18536777733E+04  0.90028598241E+03 0.  0.
        -24    2    4    4    0    0  0.66783048209E+02 -0.37579532738E+02 -0.54143131455E+03  0.55267274441E+03  0.80169178781E+02 0.  0.
         24    2    4    4    0    0 -0.70872832957E+03 -0.89780017193E+03 -0.61553778655E+03  0.13010050289E+04  0.73391584348E+02 0.  0.
         11    1    3    3    0    0  0.47733358321E+03  0.62134999388E+03 -0.36892643820E+03  0.86604265563E+03  0.00000000000E+00 0. -1.
        -11    1    3    3    0    0  0.16461169815E+03  0.31402971078E+03 -0.16810640921E+03  0.39239194084E+03  0.00000000000E+00 0.  1.
          4    1    6    6  502    0 -0.26747290598E+03 -0.34391052159E+03 -0.19445001114E+03  0.47710272387E+03  0.00000000000E+00 0. -1.
          1    1    5    5  503    0  0.22381295638E+02 -0.43220040397E+02 -0.12997292261E+03  0.13878708477E+03  0.00000000000E+00 0. -1.
         -2    1    5    5    0  503  0.44401752570E+02  0.56405076595E+01 -0.41145839194E+03  0.41388565964E+03  0.00000000000E+00 0.  1.
         -3    1    6    6    0  502 -0.44125542359E+03 -0.55388965034E+03 -0.42108777541E+03  0.82390230501E+03  0.00000000000E+00 0.  1.
<mgrwt>
<rscale>  0 0.26106706E+04</rscale>
<asrwt>0</asrwt>
<pdfrwt beam="1">  1        2 0.36970109E+00 0.26106706E+04</pdfrwt>
<pdfrwt beam="2">  1       -2 0.10908542E+00 0.26106706E+04</pdfrwt>
<totfact> 0.23456191E+00</totfact>
</mgrwt>
</event>
<event>
12    1  0.1960998E-007  0.2236538E+04  0.7818608E-02  0.8503372E-01
          1   -1    0    0  501    0  0.00000000000E+00  0.00000000000E+00  0.79597743552E+03  0.79597743552E+03  0.00000000000E+00 0. -1.
         -1   -1    0    0    0  501 -0.00000000000E+00 -0.00000000000E+00 -0.15710568032E+04  0.15710568032E+04  0.00000000000E+00 0.  1.
         23    2    1    2    0    0  0.82504672665E+03  0.33511209337E+03 -0.25813823438E+02  0.89553960983E+03  0.91228411228E+02 0.  0.
        254    2    1    2    0    0 -0.82504672665E+03 -0.33511209337E+03 -0.74926554425E+03  0.14714946289E+04  0.90049729081E+03 0.  0.
        -24    2    4    4    0    0 -0.64831492933E+02  0.22726924431E+02 -0.60661166704E+03  0.61570593458E+03  0.79977795171E+02 0.  0.
         24    2    4    4    0    0 -0.76021523372E+03 -0.35783901780E+03 -0.14265387721E+03  0.85578869431E+03  0.77770150948E+02 0.  0.
         13    1    3    3    0    0  0.12056332475E+03  0.68170723573E+02 -0.32006635882E+02  0.14215198757E+03  0.00000000000E+00 0.  1.
        -13    1    3    3    0    0  0.70448340190E+03  0.26694136980E+03  0.61928124442E+01  0.75338762227E+03  0.00000000000E+00 0. -1.
          2    1    6    6  502    0 -0.20937712460E+03 -0.63478467397E+02 -0.49574365975E+02  0.22433437964E+03  0.00000000000E+00 0. -1.
          3    1    5    5  503    0  0.19013287826E+02  0.34225181811E+01 -0.10248370690E+03  0.10428868072E+03  0.00000000000E+00 0. -1.
         -4    1    5    5    0  503 -0.83844780759E+02  0.19304406250E+02 -0.50412796013E+03  0.51141725386E+03  0.00000000000E+00 0.  1.
         -1    1    6    6    0  502 -0.55083810913E+03 -0.29436055040E+03 -0.93079511238E+02  0.63145431467E+03  0.00000000000E+00 0.  1.
<mgrwt>
<rscale>  0 0.22365382E+04</rscale>
<asrwt>0</asrwt>
<pdfrwt beam="1">  1        1 0.12245807E+00 0.22365382E+04</pdfrwt>
<pdfrwt beam="2">  1       -1 0.24170104E+00 0.22365382E+04</pdfrwt>
<totfact> 0.16005036E+00</totfact>
</mgrwt>
</event>
<event>
12    1  0.1960998E-007  0.2664384E+04  0.7818608E-02  0.8346654E-01
          2   -1    0    0  501    0  0.00000000000E+00  0.00000000000E+00  0.20467686794E+04  0.20467686794E+04  0.00000000000E+00 0. -1.
         -2   -1    0    0    0  501 -0.00000000000E+00 -0.00000000000E+00 -0.86709166965E+03  0.86709166965E+03  0.00000000000E+00 0.  1.
         23    2    1    2    0    0 -0.81860356337E+03  0.23662168800E+03 -0.36671909557E+03  0.93165425017E+03  0.85994939354E+02 0.  0.
        254    2    1    2    0    0  0.81860356337E+03 -0.23662168800E+03  0.15463961053E+04  0.19822060989E+04  0.90094310956E+03 0.  0.
        -24    2    4    4    0    0 -0.71963461887E+02 -0.44012916595E+01  0.76437288906E+03  0.77186385431E+03  0.79434154177E+02 0.  0.
         24    2    4    4    0    0  0.89056702526E+03 -0.23222039634E+03  0.78202321624E+03  0.12103422445E+04  0.79574488570E+02 0.  0.
         11    1    3    3    0    0 -0.19384095460E+03  0.38070685429E+02 -0.12044702174E+03  0.23136805703E+03  0.00000000000E+00 0.  1.
        -11    1    3    3    0    0 -0.62476260877E+03  0.19855100257E+03 -0.24627207384E+03  0.70028619313E+03  0.00000000000E+00 0. -1.
          4    1    6    6  502    0  0.52427906296E+03 -0.13850148392E+03  0.51149510915E+03  0.74543842374E+03  0.00000000000E+00 0. -1.
          1    1    5    5  503    0 -0.65902927529E+02 -0.26748464228E+02  0.36769278412E+03  0.37450855757E+03  0.00000000000E+00 0. -1.
         -2    1    5    5    0  503 -0.60605343582E+01  0.22347172568E+02  0.39668010494E+03  0.39735529675E+03  0.00000000000E+00 0.  1.
         -3    1    6    6    0  502  0.36628796230E+03 -0.93718912416E+02  0.27052810710E+03  0.46490382080E+03  0.00000000000E+00 0.  1.
<mgrwt>
<rscale>  0 0.26643844E+04</rscale>
<asrwt>0</asrwt>
<pdfrwt beam="1">  1        2 0.31488749E+00 0.26643844E+04</pdfrwt>
<pdfrwt beam="2">  1       -2 0.13339872E+00 0.26643844E+04</pdfrwt>
<totfact> 0.22517580E+00</totfact>
</mgrwt>
</event>
<event>
12    1  0.1960998E-007  0.2597104E+04  0.7818608E-02  0.8369185E-01
         -2   -1    0    0    0  501 -0.00000000000E+00  0.00000000000E+00  0.15499858491E+04  0.15499858491E+04  0.00000000000E+00 0.  1.
          2   -1    0    0  501    0  0.00000000000E+00 -0.00000000000E+00 -0.10879051995E+04  0.10879051995E+04  0.00000000000E+00 0. -1.
         23    2    1    2    0    0  0.26318335128E+03 -0.10934110556E+04  0.39908691144E+03  0.11970057943E+04  0.93484201711E+02 0.  0.
        254    2    1    2    0    0 -0.26318335128E+03  0.10934110556E+04  0.62993738203E+02  0.14408852543E+04  0.89853708439E+03 0.  0.
        -24    2    4    4    0    0  0.59134519566E+02  0.81123514027E+03 -0.30404129317E+03  0.87115836558E+03  0.69831552806E+02 0.  0.
         24    2    4    4    0    0 -0.32231787085E+03  0.28217591531E+03  0.36703503137E+03  0.56972688867E+03  0.79761872938E+02 0.  0.
         11    1    3    3    0    0  0.25584600054E+03 -0.92830821524E+03  0.33025968666E+03  0.10179807361E+04  0.00000000000E+00 0.  1.
        -11    1    3    3    0    0  0.73373507405E+01 -0.16510284033E+03  0.68827224777E+02  0.17902505822E+03  0.00000000000E+00 0. -1.
          2    1    6    6  502    0 -0.11225416494E+03  0.55804610525E+02  0.84658102759E+02  0.15126845826E+03  0.00000000000E+00 0. -1.
          1    1    5    5  503    0  0.31977264643E+02  0.19381505749E+03 -0.48086084222E+02  0.20223524288E+03  0.00000000000E+00 0. -1.
         -2    1    5    5    0  503  0.27157254923E+02  0.61742008277E+03 -0.25595520894E+03  0.66892312271E+03  0.00000000000E+00 0.  1.
         -1    1    6    6    0  502 -0.21006370591E+03  0.22637130478E+03  0.28237692861E+03  0.41845843041E+03  0.00000000000E+00 0.  1.
<mgrwt>
<rscale>  0 0.25971043E+04</rscale>
<asrwt>0</asrwt>
<pdfrwt beam="1">  1        2 0.16737003E+00 0.25971043E+04</pdfrwt>
<pdfrwt beam="2">  1       -2 0.23845936E+00 0.25971043E+04</pdfrwt>
<totfact> 0.14848861E+00</totfact>
</mgrwt>
</event>
<event>
12    1  0.1960998E-007  0.2030996E+04  0.7818608E-02  0.8592265E-01
          2   -1    0    0  501    0  0.00000000000E+00  0.00000000000E+00  0.12767865864E+04  0.12767865864E+04  0.00000000000E+00 0.  1.
         -2   -1    0    0    0  501 -0.00000000000E+00 -0.00000000000E+00 -0.80768105208E+03  0.80768105208E+03  0.00000000000E+00 0. -1.
         23    2    1    2    0    0 -0.48264501248E+03  0.64338078430E+03  0.64847675097E+02  0.81205803374E+03  0.91367321903E+02 0.  0.
        254    2    1    2    0    0  0.48264501248E+03 -0.64338078430E+03  0.40425785923E+03  0.12724096048E+04  0.89928679733E+03 0.  0.
        -24    2    4    4    0    0  0.36224481348E+03 -0.13374522293E+03 -0.22121935923E+03  0.45229188095E+03  0.80751787131E+02 0.  0.
         24    2    4    4    0    0  0.12040019900E+03 -0.50963556137E+03  0.62547721846E+03  0.82011772381E+03  0.84538256145E+02 0.  0.
         11    1    3    3    0    0 -0.30001587158E+03  0.35561896089E+03  0.79658501110E+00  0.46526874287E+03  0.00000000000E+00 0. -1.
        -11    1    3    3    0    0 -0.18262914090E+03  0.28776182341E+03  0.64051090086E+02  0.34678929087E+03  0.00000000000E+00 0.  1.
          2    1    6    6  502    0  0.58150265291E+02 -0.31770501959E+03  0.32512703745E+03  0.45828541686E+03  0.00000000000E+00 0. -1.
          3    1    5    5  503    0  0.34132056413E+03 -0.10614354213E+03 -0.18618858045E+03  0.40302898968E+03  0.00000000000E+00 0. -1.
         -4    1    5    5    0  503  0.20924249344E+02 -0.27601680799E+02 -0.35030778783E+02  0.49262891264E+02  0.00000000000E+00 0.  1.
         -1    1    6    6    0  502  0.62249933712E+02 -0.19193054178E+03  0.30035018101E+03  0.36183230694E+03  0.00000000000E+00 0.  1.
<mgrwt>
<rscale>  0 0.20309961E+04</rscale>
<asrwt>0</asrwt>
<pdfrwt beam="1">  1        2 0.19642871E+00 0.20309961E+04</pdfrwt>
<pdfrwt beam="2">  1       -2 0.12425862E+00 0.20309961E+04</pdfrwt>
<totfact> 0.76945958E+00</totfact>
</mgrwt>
</event>
<event>
12    1  0.1960998E-007  0.1831793E+04  0.7818608E-02  0.8689573E-01
          2   -1    0    0  501    0  0.00000000000E+00  0.00000000000E+00  0.16673161608E+04  0.16673161608E+04  0.00000000000E+00 0. -1.
         -2   -1    0    0    0  501 -0.00000000000E+00 -0.00000000000E+00 -0.50312386194E+03  0.50312386194E+03  0.00000000000E+00 0.  1.
         23    2    1    2    0    0  0.63640126701E+03  0.80244402100E+02  0.12651514617E+03  0.65978849379E+03  0.88707596069E+02 0.  0.
        254    2    1    2    0    0 -0.63640126701E+03 -0.80244402100E+02  0.10376771527E+04  0.15106515290E+04  0.89098172371E+03 0.  0.
        -24    2    4    4    0    0 -0.70043800725E+03 -0.24227791232E+03  0.40337062982E+03  0.84794482046E+03  0.83609597133E+02 0.  0.
         24    2    4    4    0    0  0.64036740240E+02  0.16203351022E+03  0.63430652291E+03  0.66270670852E+03  0.80497540197E+02 0.  0.
         11    1    3    3    0    0  0.69956236226E+02 -0.84806052650E+01  0.36675047017E+02  0.79440888252E+02  0.00000000000E+00 0. -1.
        -11    1    3    3    0    0  0.56644503079E+03  0.88725007365E+02  0.89840099149E+02  0.58034760554E+03  0.00000000000E+00 0.  1.
          2    1    6    6  502    0  0.17175819889E+02 -0.39476006966E+01  0.90706089373E+02  0.92402310520E+02  0.00000000000E+00 0. -1.
          1    1    5    5  503    0 -0.60308950704E+03 -0.17945430812E+03  0.35437155537E+03  0.72214957000E+03  0.00000000000E+00 0. -1.
         -2    1    5    5    0  503 -0.97348500219E+02 -0.62823604206E+02  0.48999074452E+02  0.12579525046E+03  0.00000000000E+00 0.  1.
         -1    1    6    6    0  502  0.46860920351E+02  0.16598111092E+03  0.54360043354E+03  0.57030439800E+03  0.00000000000E+00 0.  1.
<mgrwt>
<rscale>  0 0.18317932E+04</rscale>
<asrwt>0</asrwt>
<pdfrwt beam="1">  1        2 0.25651018E+00 0.18317932E+04</pdfrwt>
<pdfrwt beam="2">  1       -2 0.77403672E-01 0.18317932E+04</pdfrwt>
<totfact> 0.14333387E+01</totfact>
</mgrwt>
</event>
<event>
12    1  0.1960998E-007  0.1730547E+04  0.7818608E-02  0.8744132E-01
         -1   -1    0    0    0  501 -0.00000000000E+00  0.00000000000E+00  0.14608859364E+04  0.14608859364E+04  0.00000000000E+00 0.  1.
          1   -1    0    0  501    0  0.00000000000E+00 -0.00000000000E+00 -0.51249599548E+03  0.51249599548E+03  0.00000000000E+00 0. -1.
         23    2    1    2    0    0  0.28090814832E+03 -0.54625764715E+03  0.47928620502E+03  0.78443781071E+03  0.91217365021E+02 0.  0.
        254    2    1    2    0    0 -0.28090814832E+03  0.54625764715E+03  0.46910373594E+03  0.11889441212E+04  0.90345060928E+03 0.  0.
        -24    2    4    4    0    0 -0.59189487727E+03  0.47521357415E+03  0.34821358957E+03  0.83873441170E+03  0.77815310863E+02 0.  0.
         24    2    4    4    0    0  0.31098672895E+03  0.71044073000E+02  0.12089014636E+03  0.35020970951E+03  0.79198530628E+02 0.  0.
         11    1    3    3    0    0  0.21558293380E+03 -0.34640028897E+03  0.28085710527E+03  0.49532804799E+03  0.00000000000E+00 0. -1.
        -11    1    3    3    0    0  0.65325214517E+02 -0.19985735819E+03  0.19842909975E+03  0.28910976272E+03  0.00000000000E+00 0.  1.
          4    1    6    6  502    0  0.44633013403E+02  0.16185919971E+02  0.50478678889E+02  0.69297813191E+02  0.00000000000E+00 0. -1.
          3    1    5    5  503    0 -0.10446700356E+03  0.54712182419E+02  0.72500600005E+02  0.13843090240E+03  0.00000000000E+00 0. -1.
         -4    1    5    5    0  503 -0.48742787371E+03  0.42050139173E+03  0.27571298957E+03  0.70030350930E+03  0.00000000000E+00 0.  1.
         -1    1    6    6    0  502  0.26635371555E+03  0.54858153029E+02  0.70411467475E+02  0.28091189632E+03  0.00000000000E+00 0.  1.
<mgrwt>
<rscale>  0 0.17305470E+04</rscale>
<asrwt>0</asrwt>
<pdfrwt beam="1">  1        1 0.78845538E-01 0.17305470E+04</pdfrwt>
<pdfrwt beam="2">  1       -1 0.22475168E+00 0.17305470E+04</pdfrwt>
<totfact> 0.41579468E+00</totfact>
</mgrwt>
</event>
<event>
12    1  0.1960998E-007  0.1257436E+04  0.7818608E-02  0.9064017E-01
         -2   -1    0    0    0  501 -0.00000000000E+00  0.00000000000E+00  0.27210902199E+03  0.27210902199E+03  0.00000000000E+00 0.  1.
          2   -1    0    0  501    0  0.00000000000E+00 -0.00000000000E+00 -0.14526769022E+04  0.14526769022E+04  0.00000000000E+00 0. -1.
         23    2    1    2    0    0 -0.27619205937E+03  0.63990630278E+02 -0.17257062236E+03  0.34384528554E+03  0.89844901151E+02 0.  0.
        254    2    1    2    0    0  0.27619205937E+03 -0.63990630278E+02 -0.10079972578E+04  0.13809406386E+04  0.90031201325E+03 0.  0.
        -24    2    4    4    0    0  0.17086047675E+03 -0.12234576043E+03 -0.11532268350E+04  0.11750983779E+04  0.82233066655E+02 0.  0.
         24    2    4    4    0    0  0.10533158262E+03  0.58355130155E+02  0.14522957719E+03  0.20584226068E+03  0.82336763843E+02 0.  0.
         13    1    3    3    0    0 -0.40531443130E+02  0.58345883109E+00 -0.66209734554E+02  0.77632900604E+02  0.00000000000E+00 0. -1.
        -13    1    3    3    0    0 -0.23566061624E+03  0.63407171447E+02 -0.10636088780E+03  0.26621238494E+03  0.00000000000E+00 0.  1.
          2    1    6    6  502    0 -0.10636712824E+02  0.20763289850E+02  0.30835725060E+02  0.38666468743E+02  0.00000000000E+00 0. -1.
          3    1    5    5  503    0 -0.77330077891E+01 -0.14483358243E+02 -0.10933387347E+03  0.11055977100E+03  0.00000000000E+00 0. -1.
         -4    1    5    5    0  503  0.17859348454E+03 -0.10786240219E+03 -0.10438929615E+04  0.10645386069E+04  0.00000000000E+00 0.  1.
         -3    1    6    6    0  502  0.11596829545E+03  0.37591840305E+02  0.11439385213E+03  0.16717579194E+03  0.00000000000E+00 0.  1.
<mgrwt>
<rscale>  0 0.12574363E+04</rscale>
<asrwt>0</asrwt>
<pdfrwt beam="1">  1        2 0.22348875E+00 0.12574363E+04</pdfrwt>
<pdfrwt beam="2">  1       -2 0.41862927E-01 0.12574363E+04</pdfrwt>
<totfact> 0.71739277E+01</totfact>
</mgrwt>
</event>
<event>
12    1  0.1960998E-007  0.1607494E+04  0.7818608E-02  0.8815957E-01
         -2   -1    0    0    0  501 -0.00000000000E+00  0.00000000000E+00  0.22527956056E+03  0.22527956056E+03  0.00000000000E+00 0.  1.
          2   -1    0    0  501    0  0.00000000000E+00 -0.00000000000E+00 -0.28675897055E+04  0.28675897055E+04  0.00000000000E+00 0. -1.
         23    2    1    2    0    0 -0.39203610776E+03 -0.37788496649E+03 -0.99350520307E+03  0.11372000205E+04  0.98396852073E+02 0.  0.
        254    2    1    2    0    0  0.39203610776E+03  0.37788496649E+03 -0.16488049419E+04  0.19556692455E+04  0.89977502957E+03 0.  0.
        -24    2    4    4    0    0 -0.85728428469E+02  0.17743348008E+03  0.13412858602E+02  0.21299959950E+03  0.79730303586E+02 0.  0.
         24    2    4    4    0    0  0.47776453623E+03  0.20045148641E+03 -0.16622178005E+04  0.17426696460E+04  0.74092701819E+02 0.  0.
         11    1    3    3    0    0 -0.17543789707E+03 -0.23013274597E+03 -0.56628872035E+03  0.63594217606E+03  0.00000000000E+00 0.  1.
        -11    1    3    3    0    0 -0.21659821069E+03 -0.14775222052E+03 -0.42721648272E+03  0.50125784448E+03  0.00000000000E+00 0. -1.
          4    1    6    6  502    0  0.28415378499E+03  0.15816552958E+03 -0.10313382026E+04  0.10813964104E+04  0.00000000000E+00 0. -1.
          1    1    5    5  503    0 -0.95476469733E+02  0.11586961792E+03  0.12561865964E+02  0.15066295200E+03  0.00000000000E+00 0. -1.
         -2    1    5    5    0  503  0.97480412643E+01  0.61563862164E+02  0.85099263798E+00  0.62336647500E+02  0.00000000000E+00 0.  1.
         -3    1    6    6    0  502  0.19361075124E+03  0.42285956829E+02 -0.63087959789E+03  0.66127323564E+03  0.00000000000E+00 0.  1.
<mgrwt>
<rscale>  0 0.16074941E+04</rscale>
<asrwt>0</asrwt>
<pdfrwt beam="1">  1        2 0.44116761E+00 0.16074941E+04</pdfrwt>
<pdfrwt beam="2">  1       -2 0.34658397E-01 0.16074941E+04</pdfrwt>
<totfact> 0.15809120E+01</totfact>
</mgrwt>
</event>
<event>
12    1  0.1960998E-007  0.1405434E+04  0.7818608E-02  0.8949895E-01
          1   -1    0    0  501    0  0.00000000000E+00  0.00000000000E+00  0.13918172145E+04  0.13918172145E+04  0.00000000000E+00 0. -1.
         -1   -1    0    0    0  501 -0.00000000000E+00 -0.00000000000E+00 -0.35479595324E+03  0.35479595324E+03  0.00000000000E+00 0.  1.
         23    2    1    2    0    0 -0.30280081104E+03  0.12661480676E+03  0.60647963878E+03  0.69560501611E+03  0.91264153611E+02 0.  0.
        254    2    1    2    0    0  0.30280081104E+03 -0.12661480676E+03  0.43054162253E+03  0.10510081517E+04  0.90085093422E+03 0.  0.
        -24    2    4    4    0    0  0.38423342700E+03 -0.18240468748E+03 -0.14870876481E+03  0.45792241350E+03  0.81681354183E+02 0.  0.
         24    2    4    4    0    0 -0.81432615961E+02  0.55789880715E+02  0.57925038733E+03  0.59308573816E+03  0.80472975922E+02 0.  0.
         11    1    3    3    0    0 -0.40814380952E+02  0.51670836155E+02  0.88337835262E+02  0.11017831974E+03  0.00000000000E+00 0.  1.
        -11    1    3    3    0    0 -0.26198643008E+03  0.74943970609E+02  0.51814180351E+03  0.58542669637E+03  0.00000000000E+00 0. -1.
          2    1    6    6  502    0 -0.10480137177E+01  0.21845930847E+02  0.31021680280E+02  0.37956391751E+02  0.00000000000E+00 0. -1.
          3    1    5    5  503    0 -0.17376549093E+01 -0.10083357166E+02 -0.55856081470E+01  0.11657296200E+02  0.00000000000E+00 0. -1.
         -4    1    5    5    0  503  0.38597108191E+03 -0.17232133031E+03 -0.14312315666E+03  0.44626511730E+03  0.00000000000E+00 0.  1.
         -1    1    6    6    0  502 -0.80384602243E+02  0.33943949868E+02  0.54822870705E+03  0.55512934641E+03  0.00000000000E+00 0.  1.
<mgrwt>
<rscale>  0 0.14054339E+04</rscale>
<asrwt>0</asrwt>
<pdfrwt beam="1">  1        1 0.21412572E+00 0.14054339E+04</pdfrwt>
<pdfrwt beam="2">  1       -1 0.54583994E-01 0.14054339E+04</pdfrwt>
<totfact> 0.25726212E+01</totfact>
</mgrwt>
</event>
<event>
12    1  0.1960998E-007  0.2111569E+04  0.7818608E-02  0.8556164E-01
          2   -1    0    0  501    0  0.00000000000E+00  0.00000000000E+00  0.15331311370E+04  0.15331311370E+04  0.00000000000E+00 0.  1.
         -2   -1    0    0    0  501 -0.00000000000E+00 -0.00000000000E+00 -0.72706200729E+03  0.72706200729E+03  0.00000000000E+00 0. -1.
         23    2    1    2    0    0  0.11831206338E+03  0.61456444550E+03 -0.30111827196E+03  0.70058708944E+03  0.91993772460E+02 0.  0.
        254    2    1    2    0    0 -0.11831206338E+03 -0.61456444550E+03  0.11071874017E+04  0.15596060549E+04  0.90267375163E+03 0.  0.
        -24    2    4    4    0    0 -0.24734740742E+03 -0.47784119828E+03  0.12682092164E+03  0.55839378597E+03  0.78785298862E+02 0.  0.
         24    2    4    4    0    0  0.12903534404E+03 -0.13672324722E+03  0.98036648004E+03  0.10012122689E+04  0.77228270886E+02 0.  0.
         13    1    3    3    0    0  0.34224680144E+02  0.35171881233E+03 -0.13382458425E+03  0.37787097141E+03  0.00000000000E+00 0.  1.
        -13    1    3    3    0    0  0.84087383240E+02  0.26284563317E+03 -0.16729368771E+03  0.32271611804E+03  0.00000000000E+00 0. -1.
          2    1    6    6  502    0  0.21549908013E+02 -0.77112927481E+02  0.41205166752E+03  0.41975871501E+03  0.00000000000E+00 0. -1.
          3    1    5    5  503    0 -0.25416960412E+02 -0.24569563948E+02 -0.75020245541E+01  0.36138147733E+02  0.00000000000E+00 0. -1.
         -4    1    5    5    0  503 -0.22193044701E+03 -0.45327163433E+03  0.13432294619E+03  0.52225563824E+03  0.00000000000E+00 0.  1.
         -1    1    6    6    0  502  0.10748543603E+03 -0.59610319742E+02  0.56831481253E+03  0.58145355387E+03  0.00000000000E+00 0.  1.
<mgrwt>
<rscale>  0 0.21115695E+04</rscale>
<asrwt>0</asrwt>
<pdfrwt beam="1">  1        2 0.23586633E+00 0.21115695E+04</pdfrwt>
<pdfrwt beam="2">  1       -2 0.11185569E+00 0.21115695E+04</pdfrwt>
<totfact> 0.70633129E+00</totfact>
</mgrwt>
</event>
<event>
12    1  0.1960998E-007  0.1634504E+04  0.7818608E-02  0.8799627E-01
         -2   -1    0    0    0  501 -0.00000000000E+00  0.00000000000E+00  0.56821007616E+03  0.56821007616E+03  0.00000000000E+00 0. -1.
          2   -1    0    0  501    0  0.00000000000E+00 -0.00000000000E+00 -0.11754476338E+04  0.11754476338E+04  0.00000000000E+00 0.  1.
         23    2    1    2    0    0  0.56016243757E+03 -0.54864184744E+02 -0.22680264922E+03  0.61411627862E+03  0.94378634982E+02 0.  0.
        254    2    1    2    0    0 -0.56016243757E+03  0.54864184744E+02 -0.38043490841E+03  0.11295414313E+04  0.90240849417E+03 0.  0.
        -24    2    4    4    0    0 -0.22825234057E+03 -0.30686384951E+03 -0.48406974917E+03  0.62199239289E+03  0.79287209819E+02 0.  0.
         24    2    4    4    0    0 -0.33191009700E+03  0.36172803426E+03  0.10363484076E+03  0.50754903845E+03  0.76513808936E+02 0.  0.
         13    1    3    3    0    0  0.29767018584E+03  0.13710751249E+02 -0.97119142595E+02  0.31341290991E+03  0.00000000000E+00 0. -1.
        -13    1    3    3    0    0  0.26249225172E+03 -0.68574935993E+02 -0.12968350663E+03  0.30070336871E+03  0.00000000000E+00 0.  1.
          4    1    6    6  502    0 -0.12140852203E+03  0.17797858103E+03  0.22655939693E+02  0.21663262943E+03  0.00000000000E+00 0. -1.
          1    1    5    5  503    0 -0.88570819104E+02 -0.16443257966E+03 -0.18816189490E+03  0.26511839231E+03  0.00000000000E+00 0. -1.
         -2    1    5    5    0  503 -0.13968152147E+03 -0.14243126986E+03 -0.29590785427E+03  0.35687400058E+03  0.00000000000E+00 0.  1.
         -3    1    6    6    0  502 -0.21050157496E+03  0.18374945322E+03  0.80978901067E+02  0.29091640902E+03  0.00000000000E+00 0.  1.
<mgrwt>
<rscale>  0 0.16345044E+04</rscale>
<asrwt>0</asrwt>
<pdfrwt beam="1">  1        2 0.18083809E+00 0.16345044E+04</pdfrwt>
<pdfrwt beam="2">  1       -2 0.87416936E-01 0.16345044E+04</pdfrwt>
<totfact> 0.21181920E+01</totfact>
</mgrwt>
</event>
<event>
12    1  0.1960998E-007  0.3241723E+04  0.7818608E-02  0.8177884E-01
         -2   -1    0    0    0  501 -0.00000000000E+00  0.00000000000E+00  0.61512609693E+03  0.61512609693E+03  0.00000000000E+00 0.  1.
          2   -1    0    0  501    0  0.00000000000E+00 -0.00000000000E+00 -0.42709817937E+04  0.42709817937E+04  0.00000000000E+00 0. -1.
         23    2    1    2    0    0 -0.86475163225E+03 -0.12155450898E+04 -0.15482632755E+04  0.21518626410E+04  0.89712900517E+02 0.  0.
        254    2    1    2    0    0  0.86475163225E+03  0.12155450898E+04 -0.21075924213E+04  0.27342452497E+04  0.89933643336E+03 0.  0.
        -24    2    4    4    0    0  0.13310252276E+03  0.71573070957E+03 -0.47029618317E+03  0.87081522323E+03  0.84580866126E+02 0.  0.
         24    2    4    4    0    0  0.73164910949E+03  0.49981438022E+03 -0.16372962381E+04  0.18634300265E+04  0.80670056717E+02 0.  0.
         13    1    3    3    0    0 -0.13309641139E+03 -0.22555912389E+03 -0.23545002821E+03  0.35217650244E+03  0.00000000000E+00 0.  1.
        -13    1    3    3    0    0 -0.73165522086E+03 -0.98998596590E+03 -0.13128132473E+04  0.17996861385E+04  0.00000000000E+00 0. -1.
          2    1    6    6  502    0  0.66764803403E+03  0.43848526815E+03 -0.14297050321E+04  0.16377056227E+04  0.00000000000E+00 0. -1.
          3    1    5    5  503    0  0.75008841331E+02  0.48404771196E+03 -0.27137895192E+03  0.55997772213E+03  0.00000000000E+00 0. -1.
         -4    1    5    5    0  503  0.58093681430E+02  0.23168299761E+03 -0.19891723125E+03  0.31083750110E+03  0.00000000000E+00 0.  1.
         -1    1    6    6    0  502  0.64001075462E+02  0.61329112068E+02 -0.20759120598E+03  0.22572440375E+03  0.00000000000E+00 0.  1.
<mgrwt>
<rscale>  0 0.32417232E+04</rscale>
<asrwt>0</asrwt>
<pdfrwt beam="1">  1        2 0.65707411E+00 0.32417232E+04</pdfrwt>
<pdfrwt beam="2">  1       -2 0.94634786E-01 0.32417232E+04</pdfrwt>
<totfact> 0.15854841E-01</totfact>
</mgrwt>
</event>
<event>
12    1  0.1960998E-007  0.2165797E+04  0.7818608E-02  0.8532801E-01
         -1   -1    0    0    0  501 -0.00000000000E+00  0.00000000000E+00  0.66930130806E+03  0.66930130806E+03  0.00000000000E+00 0.  1.
          1   -1    0    0  501    0  0.00000000000E+00 -0.00000000000E+00 -0.17520793232E+04  0.17520793232E+04  0.00000000000E+00 0. -1.
         23    2    1    2    0    0 -0.48988069497E+03 -0.15512104965E+01  0.38607243477E+03  0.63068054635E+03  0.93383751776E+02 0.  0.
        254    2    1    2    0    0  0.48988069497E+03  0.15512104965E+01 -0.14688504499E+04  0.17907000849E+04  0.89949966556E+03 0.  0.
        -24    2    4    4    0    0  0.77492328925E+02 -0.33858280599E+02 -0.13478820813E+04  0.13529479875E+04  0.80812793120E+02 0.  0.
         24    2    4    4    0    0  0.41238836604E+03  0.35409491095E+02 -0.12096836860E+03  0.43775209741E+03  0.75336286615E+02 0.  0.
         11    1    3    3    0    0 -0.37003122324E+03 -0.15956179082E+02  0.24066988337E+03  0.44170091531E+03  0.00000000000E+00 0. -1.
        -11    1    3    3    0    0 -0.11984947173E+03  0.14404968585E+02  0.14540255141E+03  0.18897963104E+03  0.00000000000E+00 0.  1.
          2    1    6    6  502    0  0.74150904690E+02  0.36069499724E+02 -0.24888792671E+02  0.86132557591E+02  0.00000000000E+00 0. -1.
          1    1    5    5  503    0  0.51216280120E+02 -0.23910333398E+02 -0.33938207330E+03  0.34405668584E+03  0.00000000000E+00 0. -1.
         -2    1    5    5    0  503  0.26276048804E+02 -0.99479472010E+01 -0.10085000080E+04  0.10088913017E+04  0.00000000000E+00 0.  1.
         -1    1    6    6    0  502  0.33823746135E+03 -0.66000862835E+00 -0.96079575930E+02  0.35161953982E+03  0.00000000000E+00 0.  1.
<mgrwt>
<rscale>  0 0.21657968E+04</rscale>
<asrwt>0</asrwt>
<pdfrwt beam="1">  1        1 0.26955066E+00 0.21657968E+04</pdfrwt>
<pdfrwt beam="2">  1       -1 0.10296943E+00 0.21657968E+04</pdfrwt>
<totfact> 0.35774912E+00</totfact>
</mgrwt>
</event>
<event>
12    1  0.1960998E-007  0.2829839E+04  0.7818608E-02  0.8294064E-01
         -3   -1    0    0    0  501 -0.00000000000E+00  0.00000000000E+00  0.82868085754E+03  0.82868085754E+03  0.00000000000E+00 0.  1.
          3   -1    0    0  501    0  0.00000000000E+00 -0.00000000000E+00 -0.24158847619E+04  0.24158847619E+04  0.00000000000E+00 0. -1.
         23    2    1    2    0    0 -0.86100481785E+03  0.27502669950E+03 -0.17375817357E+04  0.19606744778E+04  0.89917394092E+02 0.  0.
        254    2    1    2    0    0  0.86100481785E+03 -0.27502669950E+03  0.15037783134E+03  0.12838911417E+04  0.89932974468E+03 0.  0.
        -24    2    4    4    0    0  0.59617213281E+02 -0.14934726335E+03  0.39397177790E+03  0.43302454624E+03  0.80235146122E+02 0.  0.
         24    2    4    4    0    0  0.80138760457E+03 -0.12567943615E+03 -0.24359394656E+03  0.85086659542E+03  0.81354403495E+02 0.  0.
         13    1    3    3    0    0 -0.28147899947E+03  0.58029967508E+02 -0.61465959545E+03  0.67853100338E+03  0.00000000000E+00 0. -1.
        -13    1    3    3    0    0 -0.57952581838E+03  0.21699673199E+03 -0.11229221402E+04  0.12821434744E+04  0.00000000000E+00 0.  1.
          2    1    6    6  502    0  0.93066154309E+02 -0.11424383836E+02 -0.56213968270E+02  0.10932445222E+03  0.00000000000E+00 0. -1.
          1    1    5    5  503    0  0.62014830015E+02 -0.95936920820E+02  0.18590071750E+03  0.21819442863E+03  0.00000000000E+00 0. -1.
         -2    1    5    5    0  503 -0.23976167341E+01 -0.53410342530E+02  0.20807106041E+03  0.21483011761E+03  0.00000000000E+00 0.  1.
         -1    1    6    6    0  502  0.70832145026E+03 -0.11425505231E+03 -0.18737997829E+03  0.74154214320E+03  0.00000000000E+00 0.  1.
<mgrwt>
<rscale>  0 0.28298392E+04</rscale>
<asrwt>0</asrwt>
<pdfrwt beam="1">  1        3 0.37167458E+00 0.28298392E+04</pdfrwt>
<pdfrwt beam="2">  1       -3 0.12748936E+00 0.28298392E+04</pdfrwt>
<totfact> 0.17318571E-02</totfact>
</mgrwt>
</event>
<event>
12    1  0.1960998E-007  0.2643131E+04  0.7818608E-02  0.8353696E-01
          2   -1    0    0  501    0  0.00000000000E+00  0.00000000000E+00  0.20749321534E+04  0.20749321534E+04  0.00000000000E+00 0. -1.
         -2   -1    0    0    0  501 -0.00000000000E+00 -0.00000000000E+00 -0.84173143671E+03  0.84173143671E+03  0.00000000000E+00 0.  1.
         23    2    1    2    0    0 -0.50593635704E+02  0.85335353432E+02  0.18267015207E+04  0.18316864350E+04  0.91623751675E+02 0.  0.
        254    2    1    2    0    0  0.50593635704E+02 -0.85335353432E+02 -0.59350080405E+03  0.10849771551E+04  0.90282356200E+03 0.  0.
        -24    2    4    4    0    0 -0.21759938717E+03  0.16338512583E+03 -0.64745594368E+03  0.70683620508E+03  0.79837517301E+02 0.  0.
         24    2    4    4    0    0  0.26819302287E+03 -0.24872047927E+03  0.53955139626E+02  0.37814094999E+03  0.79309814296E+02 0.  0.
         11    1    3    3    0    0 -0.30644067408E+02  0.98289827736E+02  0.11597751220E+04  0.11643359836E+04  0.00000000000E+00 0.  1.
        -11    1    3    3    0    0 -0.19949568297E+02 -0.12954474305E+02  0.66692639870E+03  0.66735045139E+03  0.00000000000E+00 0. -1.
          4    1    6    6  502    0  0.12924543703E+03 -0.17223369386E+03  0.38898497221E+02  0.21881938073E+03  0.00000000000E+00 0. -1.
          3    1    5    5  503    0 -0.97974073689E+02  0.12040682164E+03 -0.38851753256E+03  0.41838092083E+03  0.00000000000E+00 0. -1.
         -4    1    5    5    0  503 -0.11962531348E+03  0.42978304195E+02 -0.25893841112E+03  0.28845528425E+03  0.00000000000E+00 0.  1.
         -3    1    6    6    0  502  0.13894758584E+03 -0.76486785404E+02  0.15056642404E+02  0.15932156927E+03  0.00000000000E+00 0.  1.
<mgrwt>
<rscale>  0 0.26431312E+04</rscale>
<asrwt>0</asrwt>
<pdfrwt beam="1">  1        2 0.31922033E+00 0.26431312E+04</pdfrwt>
<pdfrwt beam="2">  1       -2 0.12949714E+00 0.26431312E+04</pdfrwt>
<totfact> 0.23459256E+00</totfact>
</mgrwt>
</event>
<event>
12    1  0.1960998E-007  0.1362984E+04  0.7818608E-02  0.8981057E-01
         -1   -1    0    0    0  501 -0.00000000000E+00  0.00000000000E+00  0.17220890524E+03  0.17220890524E+03  0.00000000000E+00 0.  1.
          1   -1    0    0  501    0  0.00000000000E+00 -0.00000000000E+00 -0.26969081667E+04  0.26969081667E+04  0.00000000000E+00 0. -1.
         23    2    1    2    0    0 -0.22027281403E+03 -0.29854107387E+03 -0.58792044522E+03  0.70110624889E+03  0.90844025298E+02 0.  0.
        254    2    1    2    0    0  0.22027281403E+03  0.29854107387E+03 -0.19367788162E+04  0.21680108230E+04  0.90083953089E+03 0.  0.
        -24    2    4    4    0    0 -0.26435052887E+03  0.74331584580E+02 -0.19853751044E+03  0.34779181513E+03  0.78330179626E+02 0.  0.
         24    2    4    4    0    0  0.48462334290E+03  0.22420948929E+03 -0.17382413058E+04  0.18202190079E+04  0.81146287823E+02 0.  0.
         11    1    3    3    0    0 -0.75184912247E+02 -0.14196928831E+03 -0.32421840702E+03  0.36183646210E+03  0.00000000000E+00 0. -1.
        -11    1    3    3    0    0 -0.14508790178E+03 -0.15657178556E+03 -0.26370203820E+03  0.33926978679E+03  0.00000000000E+00 0.  1.
          2    1    6    6  502    0  0.22595533021E+03  0.63079932414E+02 -0.70847652350E+03  0.74630682261E+03  0.00000000000E+00 0. -1.
          1    1    5    5  503    0 -0.16162558849E+03  0.50053314711E+02 -0.16674161526E+03  0.23755195521E+03  0.00000000000E+00 0. -1.
         -2    1    5    5    0  503 -0.10272494038E+03  0.24278269869E+02 -0.31795895188E+02  0.11023985992E+03  0.00000000000E+00 0.  1.
         -1    1    6    6    0  502  0.25866801268E+03  0.16112955688E+03 -0.10297647823E+04  0.10739121853E+04  0.00000000000E+00 0.  1.
<mgrwt>
<rscale>  0 0.13629844E+04</rscale>
<asrwt>0</asrwt>
<pdfrwt beam="1">  1        1 0.41490895E+00 0.13629844E+04</pdfrwt>
<pdfrwt beam="2">  1       -1 0.26493678E-01 0.13629844E+04</pdfrwt>
<totfact> 0.12291511E+01</totfact>
</mgrwt>
</event>
<event>
12    1  0.1960998E-007  0.1943689E+04  0.7818608E-02  0.8633410E-01
          2   -1    0    0  501    0  0.00000000000E+00  0.00000000000E+00  0.15209339572E+04  0.15209339572E+04  0.00000000000E+00 0. -1.
         -2   -1    0    0    0  501 -0.00000000000E+00 -0.00000000000E+00 -0.62098771836E+03  0.62098771836E+03  0.00000000000E+00 0.  1.
         23    2    1    2    0    0  0.24066271767E+02  0.73454474738E+03  0.13968916900E+03  0.75368740026E+03  0.91632210683E+02 0.  0.
        254    2    1    2    0    0 -0.24066271767E+02 -0.73454474738E+03  0.76025706988E+03  0.13882342753E+04  0.89948230642E+03 0.  0.
        -24    2    4    4    0    0  0.18343796736E+03 -0.11863401699E+03  0.69213434444E+03  0.73009697000E+03  0.79171440541E+02 0.  0.
         24    2    4    4    0    0 -0.20750423913E+03 -0.61591073039E+03  0.68122725439E+02  0.65813730533E+03  0.78102303917E+02 0.  0.
         11    1    3    3    0    0 -0.39944085257E+01  0.22989640439E+03  0.85704902819E+02  0.24538468252E+03  0.00000000000E+00 0. -1.
        -11    1    3    3    0    0  0.28060680293E+02  0.50464834299E+03  0.53984266178E+02  0.50830271773E+03  0.00000000000E+00 0.  1.
          4    1    6    6  502    0 -0.76048382356E+02 -0.29921025779E+03  0.97230550471E+00  0.30872492643E+03  0.00000000000E+00 0. -1.
          1    1    5    5  503    0  0.18288092984E+03 -0.10258918136E+03  0.67405664250E+03  0.70591949394E+03  0.00000000000E+00 0. -1.
         -2    1    5    5    0  503  0.55703752275E+00 -0.16044835629E+02  0.18077701938E+02  0.24177476058E+02  0.00000000000E+00 0.  1.
         -3    1    6    6    0  502 -0.13145585677E+03 -0.31670047260E+03  0.67150419934E+02  0.34941237889E+03  0.00000000000E+00 0.  1.
<mgrwt>
<rscale>  0 0.19436886E+04</rscale>
<asrwt>0</asrwt>
<pdfrwt beam="1">  1        2 0.23398984E+00 0.19436886E+04</pdfrwt>
<pdfrwt beam="2">  1       -2 0.95536573E-01 0.19436886E+04</pdfrwt>
<totfact> 0.10605147E+01</totfact>
</mgrwt>
</event>
<event>
12    1  0.1960998E-007  0.1857316E+04  0.7818608E-02  0.8676399E-01
          2   -1    0    0  501    0  0.00000000000E+00  0.00000000000E+00  0.30056380959E+04  0.30056380959E+04  0.00000000000E+00 0. -1.
         -2   -1    0    0    0  501 -0.00000000000E+00 -0.00000000000E+00 -0.28692942108E+03  0.28692942108E+03  0.00000000000E+00 0.  1.
         23    2    1    2    0    0 -0.22428603676E+03  0.61650414185E+03  0.57779638343E+03  0.87931759981E+03  0.94705846819E+02 0.  0.
        254    2    1    2    0    0  0.22428603676E+03 -0.61650414185E+03  0.21409122914E+04  0.24132499172E+04  0.89993785348E+03 0.  0.
        -24    2    4    4    0    0  0.13319326565E+01 -0.70553459511E+03  0.20010057834E+04  0.21232249589E+04  0.79241666954E+02 0.  0.
         24    2    4    4    0    0  0.22295410411E+03  0.89030453256E+02  0.13990650801E+03  0.29002495834E+03  0.83100489350E+02 0.  0.
         13    1    3    3    0    0 -0.90926210739E+02  0.37824922717E+03  0.36027806990E+03  0.53022668860E+03  0.00000000000E+00 0.  1.
        -13    1    3    3    0    0 -0.13335982602E+03  0.23825491468E+03  0.21751831353E+03  0.34909091121E+03  0.00000000000E+00 0. -1.
          4    1    6    6  502    0  0.70024034378E+02  0.11102988665E+01  0.73540922633E+02  0.10155227942E+03  0.00000000000E+00 0. -1.
          1    1    5    5  503    0 -0.18650852555E+02 -0.37998371791E+03  0.97366089271E+03  0.10453473175E+04  0.00000000000E+00 0. -1.
         -2    1    5    5    0  503  0.19982785211E+02 -0.32555087720E+03  0.10273448907E+04  0.10778776414E+04  0.00000000000E+00 0.  1.
         -3    1    6    6    0  502  0.15293006973E+03  0.87920154389E+02  0.66365585377E+02  0.18847267891E+03  0.00000000000E+00 0.  1.
<mgrwt>
<rscale>  0 0.18573163E+04</rscale>
<asrwt>0</asrwt>
<pdfrwt beam="1">  1        2 0.46240584E+00 0.18573163E+04</pdfrwt>
<pdfrwt beam="2">  1       -2 0.44142990E-01 0.18573163E+04</pdfrwt>
<totfact> 0.79255687E+00</totfact>
</mgrwt>
</event>
<event>
12    1  0.1960998E-007  0.3654858E+04  0.7818608E-02  0.8078040E-01
          2   -1    0    0  501    0  0.00000000000E+00  0.00000000000E+00  0.19848910813E+04  0.19848910813E+04  0.00000000000E+00 0. -1.
         -2   -1    0    0    0  501 -0.00000000000E+00 -0.00000000000E+00 -0.16824587156E+04  0.16824587156E+04  0.00000000000E+00 0.  1.
         23    2    1    2    0    0  0.16610232398E+04 -0.42450420418E+03  0.14053010688E+03  0.17225040173E+04  0.89829596246E+02 0.  0.
        254    2    1    2    0    0 -0.16610232398E+04  0.42450420418E+03  0.16190225877E+03  0.19448457795E+04  0.90388646540E+03 0.  0.
        -24    2    4    4    0    0 -0.40335604156E+03  0.92190345911E+02 -0.34583555552E+03  0.54620991520E+03  0.86878558137E+02 0.  0.
         24    2    4    4    0    0 -0.12576671982E+04  0.33231385827E+03  0.50773781428E+03  0.13986358643E+04  0.78900640455E+02 0.  0.
         11    1    3    3    0    0  0.12517809526E+04 -0.34068462741E+03  0.73218257560E+02  0.12993777287E+04  0.00000000000E+00 0. -1.
        -11    1    3    3    0    0  0.40924228715E+03 -0.83819576770E+02  0.67311849321E+02  0.42312628860E+03  0.00000000000E+00 0.  1.
          2    1    6    6  502    0 -0.95150986343E+03  0.21651774727E+03  0.38617200222E+03  0.10494664217E+04  0.00000000000E+00 0. -1.
          3    1    5    5  503    0 -0.20344502211E+03  0.89347224696E+02 -0.19711712868E+03  0.29703192758E+03  0.00000000000E+00 0. -1.
         -4    1    5    5    0  503 -0.19991101945E+03  0.28431212147E+01 -0.14871842684E+03  0.24917798762E+03  0.00000000000E+00 0.  1.
         -1    1    6    6    0  502 -0.30615733479E+03  0.11579611100E+03  0.12156581206E+03  0.34916944258E+03  0.00000000000E+00 0.  1.
<mgrwt>
<rscale>  0 0.36548583E+04</rscale>
<asrwt>0</asrwt>
<pdfrwt beam="1">  1        2 0.30536786E+00 0.36548583E+04</pdfrwt>
<pdfrwt beam="2">  1       -2 0.25883980E+00 0.36548583E+04</pdfrwt>
<totfact> 0.31347398E-01</totfact>
</mgrwt>
</event>
<event>
12    1  0.1960998E-007  0.2127432E+04  0.7818608E-02  0.8549255E-01
         -1   -1    0    0    0  501 -0.00000000000E+00  0.00000000000E+00  0.10689629980E+04  0.10689629980E+04  0.00000000000E+00 0.  1.
          1   -1    0    0  501    0  0.00000000000E+00 -0.00000000000E+00 -0.10584950772E+04  0.10584950772E+04  0.00000000000E+00 0. -1.
         23    2    1    2    0    0 -0.40570716795E+03 -0.76328834411E+03  0.86506189126E+02  0.87366326211E+03  0.92718781371E+02 0.  0.
        254    2    1    2    0    0  0.40570716795E+03  0.76328834411E+03 -0.76038268363E+02  0.12537948131E+04  0.90499293521E+03 0.  0.
        -24    2    4    4    0    0  0.44557876125E+03 -0.23230150534E+01  0.99952186482E+02  0.46342071418E+03  0.78882760289E+02 0.  0.
         24    2    4    4    0    0 -0.39871593299E+02  0.76561135917E+03 -0.17599045485E+03  0.79037409895E+03  0.77253342064E+02 0.  0.
         11    1    3    3    0    0 -0.29706268037E+03 -0.47709415965E+03  0.78158493618E+02  0.56742737277E+03  0.00000000000E+00 0.  1.
        -11    1    3    3    0    0 -0.10864448759E+03 -0.28619418446E+03  0.83476955074E+01  0.30623588934E+03  0.00000000000E+00 0. -1.
          2    1    6    6  502    0 -0.51238579220E+02  0.27193864671E+03 -0.61971382920E+02  0.28357798200E+03  0.00000000000E+00 0. -1.
          3    1    5    5  503    0  0.40342772779E+03  0.82463541882E+01  0.67348716293E+02  0.40909385658E+03  0.00000000000E+00 0. -1.
         -4    1    5    5    0  503  0.42151033464E+02 -0.10569369242E+02  0.32603470190E+02  0.54326857599E+02  0.00000000000E+00 0.  1.
         -1    1    6    6    0  502  0.11366985921E+02  0.49367271246E+03 -0.11401907192E+03  0.50679611695E+03  0.00000000000E+00 0.  1.
<mgrwt>
<rscale>  0 0.21274323E+04</rscale>
<asrwt>0</asrwt>
<pdfrwt beam="1">  1        1 0.16284540E+00 0.21274323E+04</pdfrwt>
<pdfrwt beam="2">  1       -1 0.16445585E+00 0.21274323E+04</pdfrwt>
<totfact> 0.33838223E+00</totfact>
</mgrwt>
</event>
<event>
12    1  0.1960998E-007  0.2316163E+04  0.7818608E-02  0.8471575E-01
         -2   -1    0    0    0  501 -0.00000000000E+00  0.00000000000E+00  0.19824346298E+04  0.19824346298E+04  0.00000000000E+00 0.  1.
          2   -1    0    0  501    0  0.00000000000E+00 -0.00000000000E+00 -0.67651822248E+03  0.67651822248E+03  0.00000000000E+00 0. -1.
         23    2    1    2    0    0  0.73711223758E+03  0.64381950448E+03  0.48424707661E+03  0.10958910662E+04  0.92973074827E+02 0.  0.
        254    2    1    2    0    0 -0.73711223758E+03 -0.64381950448E+03  0.82166933075E+03  0.15630617861E+04  0.90010202367E+03 0.  0.
        -24    2    4    4    0    0 -0.58649463327E+03  0.29973392859E+01  0.63499132964E+03  0.86867349329E+03  0.85992501660E+02 0.  0.
         24    2    4    4    0    0 -0.15061760431E+03 -0.64681684376E+03  0.18667800111E+03  0.69438829283E+03  0.79175330875E+02 0.  0.
         11    1    3    3    0    0  0.39453642859E+03  0.35547961707E+03  0.21172805412E+03  0.57171104637E+03  0.00000000000E+00 0. -1.
        -11    1    3    3    0    0  0.34257580899E+03  0.28833988741E+03  0.27251902250E+03  0.52418001984E+03  0.00000000000E+00 0.  1.
          4    1    6    6  502    0 -0.10802841538E+03 -0.37941659888E+03  0.75366150211E+02  0.40163061466E+03  0.00000000000E+00 0. -1.
          1    1    5    5  503    0 -0.31885623092E+03  0.26682358420E+02  0.29385982737E+03  0.43443623512E+03  0.00000000000E+00 0. -1.
         -2    1    5    5    0  503 -0.26763840235E+03 -0.23685019134E+02  0.34113150227E+03  0.43423725817E+03  0.00000000000E+00 0.  1.
         -3    1    6    6    0  502 -0.42589188930E+02 -0.26740024489E+03  0.11131185090E+03  0.29275767818E+03  0.00000000000E+00 0.  1.
<mgrwt>
<rscale>  0 0.23161633E+04</rscale>
<asrwt>0</asrwt>
<pdfrwt beam="1">  1        2 0.10407973E+00 0.23161633E+04</pdfrwt>
<pdfrwt beam="2">  1       -2 0.30498994E+00 0.23161633E+04</pdfrwt>
<totfact> 0.11477577E+00</totfact>
</mgrwt>
</event>
<event>
12    1  0.1960998E-007  0.2509424E+04  0.7818608E-02  0.8399636E-01
         -1   -1    0    0    0  501 -0.00000000000E+00  0.00000000000E+00  0.85486343185E+03  0.85486343185E+03  0.00000000000E+00 0.  1.
          1   -1    0    0  501    0  0.00000000000E+00 -0.00000000000E+00 -0.18415828122E+04  0.18415828122E+04  0.00000000000E+00 0. -1.
         23    2    1    2    0    0  0.89260634822E+03  0.16472490259E+03 -0.10820816779E+04  0.14152513805E+04  0.90306843221E+02 0.  0.
        254    2    1    2    0    0 -0.89260634822E+03 -0.16472490259E+03  0.95362297577E+02  0.12811948635E+04  0.89915845327E+03 0.  0.
        -24    2    4    4    0    0 -0.90916148009E+03 -0.90271055958E+02  0.36654672747E+03  0.98837344520E+03  0.88329515699E+02 0.  0.
         24    2    4    4    0    0  0.16555131865E+02 -0.74453846636E+02 -0.27118442989E+03  0.29282141832E+03  0.79912078816E+02 0.  0.
         13    1    3    3    0    0  0.80128978704E+03  0.13117034370E+03 -0.99873251738E+03  0.12871432023E+04  0.00000000000E+00 0. -1.
        -13    1    3    3    0    0  0.91316561183E+02  0.33554558892E+02 -0.83349160504E+02  0.12810817821E+03  0.00000000000E+00 0.  1.
          4    1    6    6  502    0 -0.10416887948E+02  0.11351919839E+02 -0.15833948028E+02  0.22092794045E+02  0.00000000000E+00 0. -1.
          3    1    5    5  503    0  0.10159555764E+01  0.11384900918E+01 -0.16942586365E+01  0.22800959958E+01  0.00000000000E+00 0. -1.
         -4    1    5    5    0  503 -0.91017743566E+03 -0.91409546050E+02  0.36824098611E+03  0.98609334921E+03  0.00000000000E+00 0.  1.
         -3    1    6    6    0  502  0.26972019813E+02 -0.85805766476E+02 -0.25535048187E+03  0.27072862428E+03  0.00000000000E+00 0.  1.
<mgrwt>
<rscale>  0 0.25094237E+04</rscale>
<asrwt>0</asrwt>
<pdfrwt beam="1">  1        1 0.28332043E+00 0.25094237E+04</pdfrwt>
<pdfrwt beam="2">  1       -1 0.13151745E+00 0.25094237E+04</pdfrwt>
<totfact> 0.16685107E+00</totfact>
</mgrwt>
</event>
<event>
12    1  0.1960998E-007  0.2106425E+04  0.7818608E-02  0.8558418E-01
         -2   -1    0    0    0  501 -0.00000000000E+00  0.00000000000E+00  0.74465856218E+03  0.74465856218E+03  0.00000000000E+00 0.  1.
          2   -1    0    0  501    0  0.00000000000E+00 -0.00000000000E+00 -0.14896178087E+04  0.14896178087E+04  0.00000000000E+00 0. -1.
         23    2    1    2    0    0  0.39415303145E+03  0.47467508237E+03 -0.93687629914E+03  0.11254984506E+04  0.91304525199E+02 0.  0.
        254    2    1    2    0    0 -0.39415303145E+03 -0.47467508237E+03  0.19191705266E+03  0.11087779203E+04  0.90104565663E+03 0.  0.
        -24    2    4    4    0    0  0.24584259224E+03 -0.20161462857E+03 -0.10727121199E+03  0.34655143759E+03  0.86624173080E+02 0.  0.
         24    2    4    4    0    0 -0.63999562369E+03 -0.27306045380E+03  0.29918826466E+03  0.76222648267E+03  0.85552226176E+02 0.  0.
         11    1    3    3    0    0  0.17942116499E+03  0.24498759704E+03 -0.38509999706E+03  0.49042113014E+03  0.00000000000E+00 0.  1.
        -11    1    3    3    0    0  0.21473186646E+03  0.22968748533E+03 -0.55177630208E+03  0.63507732043E+03  0.00000000000E+00 0. -1.
          4    1    6    6  502    0 -0.18353419690E+03 -0.45539450615E+02  0.56169419277E+02  0.19726542185E+03  0.00000000000E+00 0. -1.
          1    1    5    5  503    0  0.31037086438E+02 -0.59440114074E+01  0.10099564516E+02  0.33175792523E+02  0.00000000000E+00 0. -1.
         -2    1    5    5    0  503  0.21480550580E+03 -0.19567061716E+03 -0.11737077651E+03  0.31337564506E+03  0.00000000000E+00 0.  1.
         -3    1    6    6    0  502 -0.45646142679E+03 -0.22752100319E+03  0.24301884538E+03  0.56496106082E+03  0.00000000000E+00 0.  1.
<mgrwt>
<rscale>  0 0.21064251E+04</rscale>
<asrwt>0</asrwt>
<pdfrwt beam="1">  1        2 0.22917197E+00 0.21064251E+04</pdfrwt>
<pdfrwt beam="2">  1       -2 0.11456286E+00 0.21064251E+04</pdfrwt>
<totfact> 0.70543644E+00</totfact>
</mgrwt>
</event>
<event>
12    1  0.1960998E-007  0.1207602E+04  0.7818608E-02  0.9106228E-01
          3   -1    0    0  501    0  0.00000000000E+00  0.00000000000E+00  0.92964679102E+03  0.92964679102E+03  0.00000000000E+00 0. -1.
         -3   -1    0    0    0  501 -0.00000000000E+00 -0.00000000000E+00 -0.39216589944E+03  0.39216589944E+03  0.00000000000E+00 0.  1.
         23    2    1    2    0    0 -0.20195561261E+03  0.92076980813E+02  0.25603458338E+03  0.35246488652E+03  0.97023442931E+02 0.  0.
        254    2    1    2    0    0  0.20195561261E+03 -0.92076980813E+02  0.28144630820E+03  0.96934780394E+03  0.90064360362E+03 0.  0.
        -24    2    4    4    0    0 -0.11231887951E+03  0.94317286987E+02 -0.26245949805E+03  0.30913749831E+03  0.71900788761E+02 0.  0.
         24    2    4    4    0    0  0.31427449212E+03 -0.18639426780E+03  0.54390580625E+03  0.66021030563E+03  0.80825999043E+02 0.  0.
         13    1    3    3    0    0 -0.16559291835E+03  0.47046652457E+02  0.13665023689E+03  0.21979010295E+03  0.00000000000E+00 0.  1.
        -13    1    3    3    0    0 -0.36362694266E+02  0.45030328357E+02  0.11938434649E+03  0.13267478356E+03  0.00000000000E+00 0. -1.
          4    1    6    6  502    0  0.29712640253E+03 -0.17787554713E+03  0.46961254642E+03  0.58348929134E+03  0.00000000000E+00 0. -1.
          3    1    5    5  503    0 -0.11459009487E+03  0.10178439011E+03 -0.23478579005E+03  0.28038423479E+03  0.00000000000E+00 0. -1.
         -4    1    5    5    0  503  0.22712153597E+01 -0.74671031201E+01 -0.27673708001E+02  0.28753263514E+02  0.00000000000E+00 0.  1.
         -3    1    6    6    0  502  0.17148089595E+02 -0.85187206676E+01  0.74293259829E+02  0.76721014296E+02  0.00000000000E+00 0.  1.
<mgrwt>
<rscale>  0 0.12076022E+04</rscale>
<asrwt>0</asrwt>
<pdfrwt beam="1">  1        3 0.14302258E+00 0.12076022E+04</pdfrwt>
<pdfrwt beam="2">  1       -3 0.60333216E-01 0.12076022E+04</pdfrwt>
<totfact> 0.25375163E+00</totfact>
</mgrwt>
</event>
<event>
12    1  0.1960998E-007  0.1881407E+04  0.7818608E-02  0.8664167E-01
         -1   -1    0    0    0  501 -0.00000000000E+00  0.00000000000E+00  0.18871216859E+04  0.18871216859E+04  0.00000000000E+00 0. -1.
          1   -1    0    0  501    0  0.00000000000E+00 -0.00000000000E+00 -0.46892756187E+03  0.46892756187E+03  0.00000000000E+00 0.  1.
         23    2    1    2    0    0  0.63872109772E+03 -0.33165840508E+03  0.61527313830E+03  0.95135336551E+03  0.92467578228E+02 0.  0.
        254    2    1    2    0    0 -0.63872109772E+03  0.33165840508E+03  0.80292098575E+03  0.14046958823E+04  0.90029243807E+03 0.  0.
        -24    2    4    4    0    0 -0.45397015946E+03 -0.67172735014E+02  0.83522422654E+03  0.95628455202E+03  0.79243635815E+02 0.  0.
         24    2    4    4    0    0 -0.18475093825E+03  0.39883114009E+03 -0.32303240796E+02  0.44841133027E+03  0.82644021301E+02 0.  0.
         13    1    3    3    0    0  0.51160674886E+03 -0.24899692134E+03  0.52897038487E+03  0.77688519125E+03  0.00000000000E+00 0. -1.
        -13    1    3    3    0    0  0.12711434885E+03 -0.82661483738E+02  0.86302753430E+02  0.17446817426E+03  0.00000000000E+00 0.  1.
          2    1    6    6  502    0 -0.23345867081E+01  0.33077471720E+02  0.16053525741E+02  0.36841350670E+02  0.00000000000E+00 0. -1.
          3    1    5    5  503    0 -0.12601445679E+03 -0.38085845993E+02  0.18013761875E+03  0.22311373036E+03  0.00000000000E+00 0. -1.
         -4    1    5    5    0  503 -0.32795570267E+03 -0.29086889022E+02  0.65508660779E+03  0.73317082166E+03  0.00000000000E+00 0.  1.
         -1    1    6    6    0  502 -0.18241635154E+03  0.36575366837E+03 -0.48356766537E+02  0.41156997960E+03  0.00000000000E+00 0.  1.
<mgrwt>
<rscale>  0 0.18814073E+04</rscale>
<asrwt>0</asrwt>
<pdfrwt beam="1">  1        1 0.72142703E-01 0.18814073E+04</pdfrwt>
<pdfrwt beam="2">  1       -1 0.29032641E+00 0.18814073E+04</pdfrwt>
<totfact> 0.17321028E+00</totfact>
</mgrwt>
</event>
<event>
12    1  0.1960998E-007  0.1747471E+04  0.7818608E-02  0.8734744E-01
          1   -1    0    0  501    0  0.00000000000E+00  0.00000000000E+00  0.15415404919E+04  0.15415404919E+04  0.00000000000E+00 0. -1.
         -1   -1    0    0    0  501 -0.00000000000E+00 -0.00000000000E+00 -0.49522775776E+03  0.49522775776E+03  0.00000000000E+00 0.  1.
         23    2    1    2    0    0  0.40713174604E+03  0.14344591632E+03  0.93349567675E+03  0.10319564717E+04  0.84776125701E+02 0.  0.
        254    2    1    2    0    0 -0.40713174604E+03 -0.14344591632E+03  0.11281705742E+03  0.10048117780E+04  0.90032551399E+03 0.  0.
        -24    2    4    4    0    0  0.95761556502E+02 -0.37824138243E+00  0.38908202816E+03  0.40846801491E+03  0.79315041427E+02 0.  0.
         24    2    4    4    0    0 -0.50289330254E+03 -0.14306767494E+03 -0.27626497075E+03  0.59634376305E+03  0.77029321114E+02 0.  0.
         13    1    3    3    0    0  0.13870432537E+03  0.90156512346E+02  0.38251438503E+03  0.41675453369E+03  0.00000000000E+00 0.  1.
        -13    1    3    3    0    0  0.26842742067E+03  0.53289403973E+02  0.55098129172E+03  0.61520193804E+03  0.00000000000E+00 0. -1.
          2    1    6    6  502    0 -0.18512978855E+03 -0.59114179239E+02 -0.61942592317E+02  0.20397159003E+03  0.00000000000E+00 0. -1.
          3    1    5    5  503    0  0.42145938063E+02  0.61305311950E+01  0.52606212080E+02  0.67685131730E+02  0.00000000000E+00 0. -1.
         -4    1    5    5    0  503  0.53615618439E+02 -0.65087725774E+01  0.33647581608E+03  0.34078288318E+03  0.00000000000E+00 0.  1.
         -1    1    6    6    0  502 -0.31776351399E+03 -0.83953495698E+02 -0.21432237843E+03  0.39237217302E+03  0.00000000000E+00 0.  1.
<mgrwt>
<rscale>  0 0.17474709E+04</rscale>
<asrwt>0</asrwt>
<pdfrwt beam="1">  1        1 0.23716007E+00 0.17474709E+04</pdfrwt>
<pdfrwt beam="2">  1       -1 0.76188886E-01 0.17474709E+04</pdfrwt>
<totfact> 0.10037678E+01</totfact>
</mgrwt>
</event>
<event>
12    1  0.1960998E-007  0.1920456E+04  0.7818608E-02  0.8644741E-01
          1   -1    0    0  501    0  0.00000000000E+00  0.00000000000E+00  0.76867182911E+03  0.76867182911E+03  0.00000000000E+00 0. -1.
         -1   -1    0    0    0  501 -0.00000000000E+00 -0.00000000000E+00 -0.11995210043E+04  0.11995210043E+04  0.00000000000E+00 0.  1.
         23    2    1    2    0    0 -0.25121868797E+03  0.56171374821E+03 -0.60402783515E+03  0.86703696434E+03  0.90941232549E+02 0.  0.
        254    2    1    2    0    0  0.25121868797E+03 -0.56171374821E+03  0.17317865996E+03  0.11011558691E+04  0.89661599116E+03 0.  0.
        -24    2    4    4    0    0 -0.46952968301E+02 -0.37324498583E+03  0.48839675584E+03  0.62164149341E+03  0.79939693154E+02 0.  0.
         24    2    4    4    0    0  0.29817165628E+03 -0.18846876238E+03 -0.31521809587E+03  0.47951437566E+03  0.78388631174E+02 0.  0.
         11    1    3    3    0    0 -0.25610065216E+03  0.55078602597E+03 -0.57838429811E+03  0.83873785341E+03  0.00000000000E+00 0. -1.
        -11    1    3    3    0    0  0.48819641856E+01  0.10927722246E+02 -0.25643537033E+02  0.28299110929E+02  0.00000000000E+00 0.  1.
          4    1    6    6  502    0  0.14189768933E+03 -0.12981669968E+03 -0.19442032077E+03  0.27347137123E+03  0.00000000000E+00 0. -1.
          3    1    5    5  503    0 -0.13874402883E+02 -0.40441747531E+02  0.10206048066E+03  0.11065430725E+03  0.00000000000E+00 0. -1.
         -4    1    5    5    0  503 -0.33078565417E+02 -0.33280323830E+03  0.38633627517E+03  0.51098718617E+03  0.00000000000E+00 0.  1.
         -3    1    6    6    0  502  0.15627396695E+03 -0.58652062695E+02 -0.12079777510E+03  0.20604300443E+03  0.00000000000E+00 0.  1.
<mgrwt>
<rscale>  0 0.19204562E+04</rscale>
<asrwt>0</asrwt>
<pdfrwt beam="1">  1        1 0.11825721E+00 0.19204562E+04</pdfrwt>
<pdfrwt beam="2">  1       -1 0.18454169E+00 0.19204562E+04</pdfrwt>
<totfact> 0.42498195E+00</totfact>
</mgrwt>
</event>
<event>
12    1  0.1960998E-007  0.1079188E+04  0.7818608E-02  0.9225717E-01
         -1   -1    0    0    0  501 -0.00000000000E+00  0.00000000000E+00  0.39607158951E+03  0.39607158951E+03  0.00000000000E+00 0.  1.
          1   -1    0    0  501    0  0.00000000000E+00 -0.00000000000E+00 -0.73512448343E+03  0.73512448343E+03  0.00000000000E+00 0. -1.
         23    2    1    2    0    0  0.62297537856E+02  0.75900438016E+02 -0.16233154650E+03  0.20791386164E+03  0.85057528529E+02 0.  0.
        254    2    1    2    0    0 -0.62297537856E+02 -0.75900438016E+02 -0.17672134742E+03  0.92328221130E+03  0.90087609989E+03 0.  0.
        -24    2    4    4    0    0 -0.28848672011E+03 -0.25235496579E+03 -0.39370893351E+03  0.55568738848E+03  0.82910391095E+02 0.  0.
         24    2    4    4    0    0  0.22618918226E+03  0.17645452777E+03  0.21698758608E+03  0.36759482282E+03  0.75793104642E+02 0.  0.
         13    1    3    3    0    0  0.67132766884E+02  0.91541583389E+02 -0.14066676435E+03  0.18075897895E+03  0.00000000000E+00 0. -1.
        -13    1    3    3    0    0 -0.48352290278E+01 -0.15641145372E+02 -0.21664782142E+02  0.27154882684E+02  0.00000000000E+00 0.  1.
          4    1    6    6  502    0  0.19078884685E+03  0.17847259718E+03  0.19198156389E+03  0.32420637394E+03  0.00000000000E+00 0. -1.
          1    1    5    5  503    0 -0.26491647885E+03 -0.25586924551E+03 -0.37083971483E+03  0.52265849812E+03  0.00000000000E+00 0. -1.
         -2    1    5    5    0  503 -0.23570241264E+02  0.35142797247E+01 -0.22869218679E+02  0.33028890357E+02  0.00000000000E+00 0.  1.
         -3    1    6    6    0  502  0.35400335405E+02 -0.20180694087E+01  0.25006022196E+02  0.43388448889E+02  0.00000000000E+00 0.  1.
<mgrwt>
<rscale>  0 0.10791884E+04</rscale>
<asrwt>0</asrwt>
<pdfrwt beam="1">  1        1 0.11309607E+00 0.10791884E+04</pdfrwt>
<pdfrwt beam="2">  1       -1 0.60934091E-01 0.10791884E+04</pdfrwt>
<totfact> 0.68878624E+01</totfact>
</mgrwt>
</event>
<event>
12    1  0.1960998E-007  0.2704573E+04  0.7818608E-02  0.8333523E-01
          2   -1    0    0  501    0  0.00000000000E+00  0.00000000000E+00  0.26431322811E+04  0.26431322811E+04  0.00000000000E+00 0. -1.
         -2   -1    0    0    0  501 -0.00000000000E+00 -0.00000000000E+00 -0.69186035380E+03  0.69186035380E+03  0.00000000000E+00 0.  1.
         23    2    1    2    0    0 -0.23366160794E+02  0.12002377537E+04  0.91346048548E+03  0.15114306097E+04  0.94317478105E+02 0.  0.
        254    2    1    2    0    0  0.23366160794E+02 -0.12002377537E+04  0.10378114418E+04  0.18235620252E+04  0.89844823343E+03 0.  0.
        -24    2    4    4    0    0  0.35942654495E+03 -0.97821924186E+03  0.93032571162E+03  0.13991829383E+04  0.78144985399E+02 0.  0.
         24    2    4    4    0    0 -0.33606038416E+03 -0.22201851180E+03  0.10748573019E+03  0.42437908689E+03  0.79470911749E+02 0.  0.
         11    1    3    3    0    0 -0.23983229764E+02  0.67752929702E+03  0.57255610428E+03  0.88737908257E+03  0.00000000000E+00 0.  1.
        -11    1    3    3    0    0  0.61706896987E+00  0.52270845663E+03  0.34090438120E+03  0.62405152714E+03  0.00000000000E+00 0. -1.
          4    1    6    6  502    0 -0.23052037278E+03 -0.10611043750E+03  0.64804848136E+02  0.26191360322E+03  0.00000000000E+00 0. -1.
          1    1    5    5  503    0  0.23840646648E+03 -0.67371771346E+03  0.58973841686E+03  0.92656602625E+03  0.00000000000E+00 0. -1.
         -2    1    5    5    0  503  0.12102007847E+03 -0.30450152840E+03  0.34058729476E+03  0.47261691204E+03  0.00000000000E+00 0.  1.
         -3    1    6    6    0  502 -0.10554001138E+03 -0.11590807430E+03  0.42680882051E+02  0.16246548366E+03  0.00000000000E+00 0.  1.
<mgrwt>
<rscale>  0 0.27045727E+04</rscale>
<asrwt>0</asrwt>
<pdfrwt beam="1">  1        2 0.40663573E+00 0.27045727E+04</pdfrwt>
<pdfrwt beam="2">  1       -2 0.10644006E+00 0.27045727E+04</pdfrwt>
<totfact> 0.17900724E+00</totfact>
</mgrwt>
</event>
<event>
12    1  0.1960998E-007  0.1955064E+04  0.7818608E-02  0.8627923E-01
          1   -1    0    0  501    0  0.00000000000E+00  0.00000000000E+00  0.10981955243E+04  0.10981955243E+04  0.00000000000E+00 0. -1.
         -1   -1    0    0    0  501 -0.00000000000E+00 -0.00000000000E+00 -0.87012604788E+03  0.87012604788E+03  0.00000000000E+00 0.  1.
         23    2    1    2    0    0 -0.24422645145E+03  0.50580712192E+03 -0.43538189511E+03  0.71666205542E+03  0.92518662481E+02 0.  0.
        254    2    1    2    0    0  0.24422645145E+03 -0.50580712192E+03  0.66345137149E+03  0.12516595167E+04  0.90055339614E+03 0.  0.
        -24    2    4    4    0    0 -0.24718564397E+03 -0.50003518736E+03  0.34017740109E+03  0.65813236339E+03  0.79256623355E+02 0.  0.
         24    2    4    4    0    0  0.49141209542E+03 -0.57719345608E+01  0.32327397039E+03  0.59352715333E+03  0.79052255229E+02 0.  0.
         13    1    3    3    0    0 -0.18311513785E+03  0.33565424979E+03 -0.24500626676E+03  0.45411782597E+03  0.00000000000E+00 0. -1.
        -13    1    3    3    0    0 -0.61111313597E+02  0.17015287213E+03 -0.19037562835E+03  0.26254422944E+03  0.00000000000E+00 0.  1.
          4    1    6    6  502    0  0.49226748893E+03 -0.11072683892E+02  0.31960773116E+03  0.58702554187E+03  0.00000000000E+00 0. -1.
          3    1    5    5  503    0 -0.23710030512E+03 -0.49296938973E+03  0.31793027085E+03  0.63270453691E+03  0.00000000000E+00 0. -1.
         -4    1    5    5    0  503 -0.10085338847E+02 -0.70657976341E+01  0.22247130241E+02  0.25427826486E+02  0.00000000000E+00 0.  1.
         -3    1    6    6    0  502 -0.85539351234E+00  0.53007493312E+01  0.36662392300E+01  0.65016114637E+01  0.00000000000E+00 0.  1.
<mgrwt>
<rscale>  0 0.19550637E+04</rscale>
<asrwt>0</asrwt>
<pdfrwt beam="1">  1        1 0.16895316E+00 0.19550637E+04</pdfrwt>
<pdfrwt beam="2">  1       -1 0.13386554E+00 0.19550637E+04</pdfrwt>
<totfact> 0.55757006E+00</totfact>
</mgrwt>
</event>
<event>
12    1  0.1960998E-007  0.2977180E+04  0.7818608E-02  0.8250277E-01
         -2   -1    0    0    0  501 -0.00000000000E+00  0.00000000000E+00  0.14051899541E+04  0.14051899541E+04  0.00000000000E+00 0.  1.
          2   -1    0    0  501    0  0.00000000000E+00 -0.00000000000E+00 -0.15769404344E+04  0.15769404344E+04  0.00000000000E+00 0. -1.
         23    2    1    2    0    0 -0.81622666585E+03 -0.75957403804E+03 -0.84119711117E+03  0.13997838477E+04  0.92755329658E+02 0.  0.
        254    2    1    2    0    0  0.81622666585E+03  0.75957403804E+03  0.66944663084E+03  0.15823465408E+04  0.90137844129E+03 0.  0.
        -24    2    4    4    0    0 -0.24835892038E+02  0.71699299635E+02 -0.17298910841E+03  0.20511180281E+03  0.79925020623E+02 0.  0.
         24    2    4    4    0    0  0.84106255788E+03  0.68787473840E+03  0.84243573925E+03  0.13772347380E+04  0.80744453728E+02 0.  0.
         11    1    3    3    0    0 -0.28326665807E+03 -0.28462258584E+03 -0.25126017532E+03  0.47368944641E+03  0.00000000000E+00 0.  1.
        -11    1    3    3    0    0 -0.53296000778E+03 -0.47495145220E+03 -0.58993693585E+03  0.92609440130E+03  0.00000000000E+00 0. -1.
          4    1    6    6  502    0  0.50940381760E+03  0.38157220257E+03  0.52941680759E+03  0.82787182058E+03  0.00000000000E+00 0. -1.
          1    1    5    5  503    0 -0.23949382353E+02  0.78635307569E+02 -0.17829654939E+03  0.19633324740E+03  0.00000000000E+00 0. -1.
         -2    1    5    5    0  503 -0.88650968482E+00 -0.69360079347E+01  0.53074409706E+01  0.87785554135E+01  0.00000000000E+00 0.  1.
         -3    1    6    6    0  502  0.33165874029E+03  0.30630253583E+03  0.31301893166E+03  0.54936291743E+03  0.00000000000E+00 0.  1.
<mgrwt>
<rscale>  0 0.29771804E+04</rscale>
<asrwt>0</asrwt>
<pdfrwt beam="1">  1        2 0.24260622E+00 0.29771804E+04</pdfrwt>
<pdfrwt beam="2">  1       -2 0.21618307E+00 0.29771804E+04</pdfrwt>
<totfact> 0.10298920E+00</totfact>
</mgrwt>
</event>
<event>
12    1  0.1960998E-007  0.1289232E+04  0.7818608E-02  0.9038148E-01
         -4   -1    0    0    0  501 -0.00000000000E+00  0.00000000000E+00  0.52259586354E+03  0.52259586354E+03  0.00000000000E+00 0.  1.
          4   -1    0    0  501    0  0.00000000000E+00 -0.00000000000E+00 -0.79512651731E+03  0.79512651731E+03  0.00000000000E+00 0. -1.
         23    2    1    2    0    0  0.23280536625E+03  0.20237665712E+03  0.22648006689E+02  0.32174179653E+03  0.88601362987E+02 0.  0.
        254    2    1    2    0    0 -0.23280536625E+03 -0.20237665712E+03 -0.29517866046E+03  0.99598058432E+03  0.89982900200E+03 0.  0.
        -24    2    4    4    0    0 -0.53199510350E+02  0.23902226670E+03  0.18309662450E+03  0.31625111674E+03  0.80799523875E+02 0.  0.
         24    2    4    4    0    0 -0.17960585590E+03 -0.44139892382E+03 -0.47827528496E+03  0.67972946757E+03  0.78699602640E+02 0.  0.
         11    1    3    3    0    0  0.75772312950E+02  0.45767490356E+02  0.44154298654E+02  0.98922740929E+02  0.00000000000E+00 0.  1.
        -11    1    3    3    0    0  0.15703305330E+03  0.15660916676E+03 -0.21506291965E+02  0.22281905560E+03  0.00000000000E+00 0. -1.
          4    1    6    6  502    0 -0.43827939752E-01 -0.73966314808E+02 -0.77416469478E+02  0.10707159938E+03  0.00000000000E+00 0. -1.
          1    1    5    5  503    0 -0.48271753421E+01 -0.50329902760E+01 -0.57442776342E+00  0.69973266436E+01  0.00000000000E+00 0. -1.
         -2    1    5    5    0  503 -0.48372335008E+02  0.24405525697E+03  0.18367105227E+03  0.30925379010E+03  0.00000000000E+00 0.  1.
         -1    1    6    6    0  502 -0.17956202796E+03 -0.36743260901E+03 -0.40085881548E+03  0.57265786819E+03  0.00000000000E+00 0.  1.
<mgrwt>
<rscale>  0 0.12892321E+04</rscale>
<asrwt>0</asrwt>
<pdfrwt beam="1">  1        4 0.12232716E+00 0.12892321E+04</pdfrwt>
<pdfrwt beam="2">  1       -4 0.80399363E-01 0.12892321E+04</pdfrwt>
<totfact> 0.13554248E+00</totfact>
</mgrwt>
</event>
<event>
12    1  0.1960998E-007  0.1591395E+04  0.7818608E-02  0.8825852E-01
          1   -1    0    0  501    0  0.00000000000E+00  0.00000000000E+00  0.17573033965E+04  0.17573033965E+04  0.00000000000E+00 0. -1.
         -1   -1    0    0    0  501 -0.00000000000E+00 -0.00000000000E+00 -0.36028771830E+03  0.36028771830E+03  0.00000000000E+00 0.  1.
         23    2    1    2    0    0 -0.17410394402E+03 -0.48494733478E+03  0.67389125025E+03  0.85295431425E+03  0.88969344154E+02 0.  0.
        254    2    1    2    0    0  0.17410394402E+03  0.48494733478E+03  0.72312442794E+03  0.12646368005E+04  0.90050607891E+03 0.  0.
        -24    2    4    4    0    0 -0.33329240585E+03  0.80187462157E+02  0.40626698534E+03  0.53782994142E+03  0.81818858618E+02 0.  0.
         24    2    4    4    0    0  0.50739634987E+03  0.40475987262E+03  0.31685744260E+03  0.72680685912E+03  0.81042958894E+02 0.  0.
         11    1    3    3    0    0 -0.13725940761E+03 -0.28726097658E+03  0.36458058676E+03  0.48402274522E+03  0.00000000000E+00 0.  1.
        -11    1    3    3    0    0 -0.36844536409E+02 -0.19768635820E+03  0.30931066348E+03  0.36893156903E+03  0.00000000000E+00 0. -1.
          2    1    6    6  502    0  0.45535444665E+03  0.32741788631E+03  0.27425651458E+03  0.62431304660E+03  0.00000000000E+00 0. -1.
          1    1    5    5  503    0 -0.30866044102E+03  0.65970740238E+02  0.39848525998E+03  0.50834428180E+03  0.00000000000E+00 0. -1.
         -2    1    5    5    0  503 -0.24631964833E+02  0.14216721919E+02  0.77817253593E+01  0.29485659620E+02  0.00000000000E+00 0.  1.
         -1    1    6    6    0  502  0.52041903214E+02  0.77341986310E+02  0.42600928015E+02  0.10249381252E+03  0.00000000000E+00 0.  1.
<mgrwt>
<rscale>  0 0.15913954E+04</rscale>
<asrwt>0</asrwt>
<pdfrwt beam="1">  1        1 0.27035436E+00 0.15913954E+04</pdfrwt>
<pdfrwt beam="2">  1       -1 0.55428881E-01 0.15913954E+04</pdfrwt>
<totfact> 0.13765812E+01</totfact>
</mgrwt>
</event>
<event>
12    1  0.1960998E-007  0.2216070E+04  0.7818608E-02  0.8511769E-01
          2   -1    0    0  501    0  0.00000000000E+00  0.00000000000E+00  0.34750348090E+04  0.34750348090E+04  0.00000000000E+00 0. -1.
         -2   -1    0    0    0  501 -0.00000000000E+00 -0.00000000000E+00 -0.35330351038E+03  0.35330351038E+03  0.00000000000E+00 0.  1.
         23    2    1    2    0    0 -0.90452538567E+03 -0.17317691998E+03  0.13495889370E+04  0.16368638497E+04  0.98876409708E+02 0.  0.
        254    2    1    2    0    0  0.90452538567E+03  0.17317691998E+03  0.17721423616E+04  0.21914744697E+04  0.90217259038E+03 0.  0.
        -24    2    4    4    0    0  0.64448302089E+03  0.39369899582E+03  0.59900044557E+03  0.96722936304E+03  0.79836353883E+02 0.  0.
         24    2    4    4    0    0  0.26004236478E+03 -0.22052207584E+03  0.11731419160E+04  0.12242451067E+04  0.79133486975E+02 0.  0.
         11    1    3    3    0    0 -0.51672083998E+03 -0.57963943742E+02  0.80829143152E+03  0.96109067393E+03  0.00000000000E+00 0. -1.
        -11    1    3    3    0    0 -0.38780454568E+03 -0.11521297624E+03  0.54129750552E+03  0.67577317573E+03  0.00000000000E+00 0.  1.
          4    1    6    6  502    0  0.35435465889E+02 -0.41758073393E+02  0.30487260016E+03  0.30975266143E+03  0.00000000000E+00 0. -1.
          3    1    5    5  503    0  0.62244540576E+03  0.36804849091E+03  0.55401366514E+03  0.91094956829E+03  0.00000000000E+00 0. -1.
         -4    1    5    5    0  503  0.22037615131E+02  0.25650504909E+02  0.44986780433E+02  0.56279794744E+02  0.00000000000E+00 0.  1.
         -3    1    6    6    0  502  0.22460689889E+03 -0.17876400245E+03  0.86826931583E+03  0.91449244525E+03  0.00000000000E+00 0.  1.
<mgrwt>
<rscale>  0 0.22160704E+04</rscale>
<asrwt>0</asrwt>
<pdfrwt beam="1">  1        2 0.53462072E+00 0.22160704E+04</pdfrwt>
<pdfrwt beam="2">  1       -2 0.54354389E-01 0.22160704E+04</pdfrwt>
<totfact> 0.24693766E+00</totfact>
</mgrwt>
</event>
<event>
12    1  0.1960998E-007  0.2364602E+04  0.7818608E-02  0.8452876E-01
         -2   -1    0    0    0  501 -0.00000000000E+00  0.00000000000E+00  0.17834371516E+04  0.17834371516E+04  0.00000000000E+00 0.  1.
          2   -1    0    0  501    0  0.00000000000E+00 -0.00000000000E+00 -0.78378732343E+03  0.78378732343E+03  0.00000000000E+00 0. -1.
         23    2    1    2    0    0  0.40036701987E+03 -0.92529265131E+03  0.49511974776E+03  0.11268921646E+04  0.91006290327E+02 0.  0.
        254    2    1    2    0    0 -0.40036701987E+03  0.92529265131E+03  0.50453008040E+03  0.14403323104E+04  0.89640745268E+03 0.  0.
        -24    2    4    4    0    0 -0.67278657723E+03  0.62056488914E+03  0.24805198792E+03  0.95128187306E+03  0.75265218869E+02 0.  0.
         24    2    4    4    0    0  0.27241955736E+03  0.30472776217E+03  0.25647809248E+03  0.48905043735E+03  0.79485181542E+02 0.  0.
         13    1    3    3    0    0  0.21693170688E+03 -0.58281300008E+03  0.27087526436E+03  0.67830949230E+03  0.00000000000E+00 0.  1.
        -13    1    3    3    0    0  0.18343531300E+03 -0.34247965123E+03  0.22424448340E+03  0.44858267231E+03  0.00000000000E+00 0. -1.
          2    1    6    6  502    0  0.15569595416E+03  0.22931170223E+03  0.17891778731E+03  0.32990401867E+03  0.00000000000E+00 0. -1.
          1    1    5    5  503    0 -0.55072004861E+03  0.46644659932E+03  0.19049449234E+03  0.74642692447E+03  0.00000000000E+00 0. -1.
         -2    1    5    5    0  503 -0.12206652862E+03  0.15411828982E+03  0.57557495586E+02  0.20485494859E+03  0.00000000000E+00 0.  1.
         -1    1    6    6    0  502  0.11672360320E+03  0.75416059939E+02  0.77560305172E+02  0.15914641868E+03  0.00000000000E+00 0.  1.
<mgrwt>
<rscale>  0 0.23646018E+04</rscale>
<asrwt>0</asrwt>
<pdfrwt beam="1">  1        2 0.12058267E+00 0.23646018E+04</pdfrwt>
<pdfrwt beam="2">  1       -2 0.27437494E+00 0.23646018E+04</pdfrwt>
<totfact> 0.14548599E+00</totfact>
</mgrwt>
</event>
<event>
12    1  0.1960998E-007  0.2176048E+04  0.7818608E-02  0.8528464E-01
         -1   -1    0    0    0  501 -0.00000000000E+00  0.00000000000E+00  0.25773059155E+03  0.25773059155E+03  0.00000000000E+00 0.  1.
          1   -1    0    0  501    0  0.00000000000E+00 -0.00000000000E+00 -0.45931517411E+04  0.45931517411E+04  0.00000000000E+00 0. -1.
         23    2    1    2    0    0  0.32483218952E+03 -0.39787021655E+02  0.65777116914E+02  0.34630278749E+03  0.92195623968E+02 0.  0.
        254    2    1    2    0    0 -0.32483218952E+03  0.39787021655E+02 -0.44011982664E+04  0.45045795451E+04  0.90199320371E+03 0.  0.
        -24    2    4    4    0    0 -0.48294768483E+03  0.34022717792E+03 -0.31409663626E+04  0.31970461750E+04  0.80259298919E+02 0.  0.
         24    2    4    4    0    0  0.15811549532E+03 -0.30044015626E+03 -0.12602319038E+04  0.13075333701E+04  0.78703654797E+02 0.  0.
         11    1    3    3    0    0  0.26860467904E+03 -0.24958385457E+02  0.16815571861E+02  0.27028532713E+03  0.00000000000E+00 0. -1.
        -11    1    3    3    0    0  0.56227510480E+02 -0.14828636198E+02  0.48961545053E+02  0.76017460364E+02  0.00000000000E+00 0.  1.
          2    1    6    6  502    0  0.13225453821E+03 -0.27752312228E+03 -0.10358712136E+04  0.10805274256E+04  0.00000000000E+00 0. -1.
          3    1    5    5  503    0 -0.33026374734E+03  0.18946620204E+03 -0.20900198336E+04  0.21244186238E+04  0.00000000000E+00 0. -1.
         -4    1    5    5    0  503 -0.15268393750E+03  0.15076097588E+03 -0.10509465291E+04  0.10726275512E+04  0.00000000000E+00 0.  1.
         -1    1    6    6    0  502  0.25860957107E+02 -0.22917033989E+02 -0.22436069022E+03  0.22700594456E+03  0.00000000000E+00 0.  1.
<mgrwt>
<rscale>  0 0.21760475E+04</rscale>
<asrwt>0</asrwt>
<pdfrwt beam="1">  1        1 0.70663872E+00 0.21760475E+04</pdfrwt>
<pdfrwt beam="2">  1       -1 0.39650861E-01 0.21760475E+04</pdfrwt>
<totfact> 0.14719118E-01</totfact>
</mgrwt>
</event>
<event>
12    1  0.1960998E-007  0.3583338E+04  0.7818608E-02  0.8094319E-01
         -1   -1    0    0    0  501 -0.00000000000E+00  0.00000000000E+00  0.38243387410E+04  0.38243387410E+04  0.00000000000E+00 0.  1.
          1   -1    0    0  501    0  0.00000000000E+00 -0.00000000000E+00 -0.83938107624E+03  0.83938107624E+03  0.00000000000E+00 0. -1.
         23    2    1    2    0    0  0.15656262248E+04 -0.45087018933E+03  0.19214411663E+04  0.25208797667E+04  0.91810888151E+02 0.  0.
        254    2    1    2    0    0 -0.15656262248E+04  0.45087018933E+03  0.10635164984E+04  0.21428400505E+04  0.89790129534E+03 0.  0.
        -24    2    4    4    0    0 -0.69149417990E+03 -0.24262713152E+02  0.88940208642E+03  0.11296542757E+04  0.79560236236E+02 0.  0.
         24    2    4    4    0    0 -0.87413204491E+03  0.47513290248E+03  0.17411441199E+03  0.10131857748E+04  0.79821543637E+02 0.  0.
         11    1    3    3    0    0  0.84154752841E+03 -0.21108823945E+03  0.96897669159E+03  0.13006445772E+04  0.00000000000E+00 0. -1.
        -11    1    3    3    0    0  0.72407869640E+03 -0.23978194987E+03  0.95246447474E+03  0.12202351895E+04  0.00000000000E+00 0.  1.
          4    1    6    6  502    0 -0.33180161508E+03  0.22453977520E+03  0.74781260412E+02  0.40755693998E+03  0.00000000000E+00 0. -1.
          3    1    5    5  503    0 -0.10632175754E+03 -0.22634939687E+02  0.10604923282E+03  0.15186538909E+03  0.00000000000E+00 0. -1.
         -4    1    5    5    0  503 -0.58517242237E+03 -0.16277734655E+01  0.78335285360E+03  0.97778888662E+03  0.00000000000E+00 0.  1.
         -3    1    6    6    0  502 -0.54233042983E+03  0.25059312728E+03  0.99333151583E+02  0.60562883482E+03  0.00000000000E+00 0.  1.
<mgrwt>
<rscale>  0 0.35833379E+04</rscale>
<asrwt>0</asrwt>
<pdfrwt beam="1">  1        1 0.12913555E+00 0.35833379E+04</pdfrwt>
<pdfrwt beam="2">  1       -1 0.58835980E+00 0.35833379E+04</pdfrwt>
<totfact> 0.81193149E-03</totfact>
</mgrwt>
</event>
<event>
12    1  0.1960998E-007  0.1407166E+04  0.7818608E-02  0.8948647E-01
          2   -1    0    0  501    0  0.00000000000E+00  0.00000000000E+00  0.18340051340E+04  0.18340051340E+04  0.00000000000E+00 0.  1.
         -2   -1    0    0    0  501 -0.00000000000E+00 -0.00000000000E+00 -0.26991710982E+03  0.26991710982E+03  0.00000000000E+00 0. -1.
         23    2    1    2    0    0  0.18051948777E+03  0.24361956128E+03  0.56365122858E+02  0.32246520888E+03  0.94175409546E+02 0.  0.
        254    2    1    2    0    0 -0.18051948777E+03 -0.24361956128E+03  0.15077229013E+04  0.17814570349E+04  0.89912348653E+03 0.  0.
        -24    2    4    4    0    0 -0.19200432759E+03 -0.27662053818E+03  0.85926468278E+02  0.35718225651E+03  0.82530130596E+02 0.  0.
         24    2    4    4    0    0  0.11484839826E+02  0.33000976900E+02  0.14217964330E+04  0.14242747784E+04  0.76371338911E+02 0.  0.
         11    1    3    3    0    0  0.17301511112E+03  0.19518845185E+03  0.20306400885E+02  0.26162016422E+03  0.00000000000E+00 0. -1.
        -11    1    3    3    0    0  0.75043766501E+01  0.48431109435E+02  0.36058721973E+02  0.60845044665E+02  0.00000000000E+00 0.  1.
          4    1    6    6  502    0 -0.17885160108E+02 -0.69696034642E+01  0.11930951505E+03  0.12084376155E+03  0.00000000000E+00 0. -1.
          3    1    5    5  503    0 -0.16553324921E+03 -0.17226096239E+03  0.63646100576E+02  0.24723657066E+03  0.00000000000E+00 0. -1.
         -2    1    5    5    0  503 -0.26471078386E+02 -0.10435957580E+03  0.22280367702E+02  0.10994568585E+03  0.00000000000E+00 0.  1.
         -3    1    6    6    0  502  0.29369999933E+02  0.39970580364E+02  0.13024869180E+04  0.13034310169E+04  0.00000000000E+00 0.  1.
<mgrwt>
<rscale>  0 0.14071665E+04</rscale>
<asrwt>0</asrwt>
<pdfrwt beam="1">  1        2 0.28215463E+00 0.14071665E+04</pdfrwt>
<pdfrwt beam="2">  1       -2 0.41525710E-01 0.14071665E+04</pdfrwt>
<totfact> 0.44163530E+01</totfact>
</mgrwt>
</event>
<event>
12    1  0.1960998E-007  0.1843666E+04  0.7818608E-02  0.8683417E-01
         -2   -1    0    0    0  501 -0.00000000000E+00  0.00000000000E+00  0.26853561574E+03  0.26853561574E+03  0.00000000000E+00 0.  1.
          2   -1    0    0  501    0  0.00000000000E+00 -0.00000000000E+00 -0.31644815533E+04  0.31644815533E+04  0.00000000000E+00 0. -1.
         23    2    1    2    0    0 -0.69293711852E+03  0.68595360821E+02 -0.10175235102E+04  0.12364029498E+04  0.92037963386E+02 0.  0.
        254    2    1    2    0    0  0.69293711852E+03 -0.68595360821E+02 -0.18784224274E+04  0.21966142193E+04  0.90098614797E+03 0.  0.
        -24    2    4    4    0    0  0.73465052815E+03 -0.28220344565E+03 -0.17741913439E+04  0.19425988353E+04  0.81148796008E+02 0.  0.
         24    2    4    4    0    0 -0.41713409631E+02  0.21360808483E+03 -0.10423108352E+03  0.25401538394E+03  0.79317552044E+02 0.  0.
         11    1    3    3    0    0 -0.29992966402E+03  0.62609221236E+02 -0.50225543946E+03  0.58833514633E+03  0.00000000000E+00 0. -1.
        -11    1    3    3    0    0 -0.39300745450E+03  0.59861395846E+01 -0.51526807070E+03  0.64806780344E+03  0.00000000000E+00 0.  1.
          4    1    6    6  502    0  0.50870673940E+01  0.93240721155E+02 -0.79250607642E+02  0.12247599417E+03  0.00000000000E+00 0. -1.
          1    1    5    5  503    0  0.43607394358E+03 -0.18300168512E+03 -0.97284864813E+03  0.10817044852E+04  0.00000000000E+00 0. -1.
         -2    1    5    5    0  503  0.29857658457E+03 -0.99201760526E+02 -0.80134269575E+03  0.86089435019E+03  0.00000000000E+00 0.  1.
         -3    1    6    6    0  502 -0.46800477025E+02  0.12036736367E+03 -0.24980475874E+02  0.13153938977E+03  0.00000000000E+00 0.  1.
<mgrwt>
<rscale>  0 0.18436659E+04</rscale>
<asrwt>0</asrwt>
<pdfrwt beam="1">  1        2 0.48684329E+00 0.18436659E+04</pdfrwt>
<pdfrwt beam="2">  1       -2 0.41313174E-01 0.18436659E+04</pdfrwt>
<totfact> 0.71744068E+00</totfact>
</mgrwt>
</event>
<event>
12    1  0.1960998E-007  0.2839607E+04  0.7818608E-02  0.8291076E-01
          1   -1    0    0  501    0  0.00000000000E+00  0.00000000000E+00  0.73387922072E+03  0.73387922072E+03  0.00000000000E+00 0. -1.
         -1   -1    0    0    0  501 -0.00000000000E+00 -0.00000000000E+00 -0.27468309911E+04  0.27468309911E+04  0.00000000000E+00 0.  1.
         23    2    1    2    0    0 -0.23958799153E+03 -0.58139859934E+02  0.62765254250E+03  0.67983840793E+03  0.86312790439E+02 0.  0.
        254    2    1    2    0    0  0.23958799153E+03  0.58139859934E+02 -0.26406043129E+04  0.28008718039E+04  0.90072697063E+03 0.  0.
        -24    2    4    4    0    0  0.44570687836E+03  0.11922428255E+03 -0.24721142347E+04  0.25161239876E+04  0.81621567588E+02 0.  0.
         24    2    4    4    0    0 -0.20611888682E+03 -0.61084422617E+02 -0.16849007813E+03  0.28474781630E+03  0.80474283284E+02 0.  0.
         13    1    3    3    0    0 -0.16611731436E+03 -0.63514657546E+01  0.46760543564E+03  0.49627628060E+03  0.00000000000E+00 0.  1.
        -13    1    3    3    0    0 -0.73470677177E+02 -0.51788394180E+02  0.16004710686E+03  0.18356212733E+03  0.00000000000E+00 0. -1.
          4    1    6    6  502    0 -0.52045973187E+02 -0.22493035695E+02 -0.51768187800E+01  0.56934343172E+02  0.00000000000E+00 0. -1.
          1    1    5    5  503    0  0.88359639063E+02  0.84230054310E+00 -0.60710249112E+03  0.61349944581E+03  0.00000000000E+00 0. -1.
         -2    1    5    5    0  503  0.35734723929E+03  0.11838198201E+03 -0.18650117436E+04  0.19026245418E+04  0.00000000000E+00 0.  1.
         -3    1    6    6    0  502 -0.15407291363E+03 -0.38591386923E+02 -0.16331325935E+03  0.22781347313E+03  0.00000000000E+00 0.  1.
<mgrwt>
<rscale>  0 0.28396071E+04</rscale>
<asrwt>0</asrwt>
<pdfrwt beam="1">  1        1 0.11290450E+00 0.28396071E+04</pdfrwt>
<pdfrwt beam="2">  1       -1 0.42258938E+00 0.28396071E+04</pdfrwt>
<totfact> 0.10929494E-01</totfact>
</mgrwt>
</event>
<event>
12    1  0.1960998E-007  0.2549177E+04  0.7818608E-02  0.8385673E-01
         -2   -1    0    0    0  501 -0.00000000000E+00  0.00000000000E+00  0.63626142874E+03  0.63626142874E+03  0.00000000000E+00 0.  1.
          2   -1    0    0  501    0  0.00000000000E+00 -0.00000000000E+00 -0.25533145296E+04  0.25533145296E+04  0.00000000000E+00 0. -1.
         23    2    1    2    0    0 -0.78469983454E+03  0.78705438845E+03 -0.82927468375E+03  0.13897485270E+04  0.92173893264E+02 0.  0.
        254    2    1    2    0    0  0.78469983454E+03 -0.78705438845E+03 -0.10877784171E+04  0.17998274313E+04  0.90603998646E+03 0.  0.
        -24    2    4    4    0    0 -0.41498666410E+02 -0.47926331135E+03 -0.15102373042E+03  0.51126173341E+03  0.84645921245E+02 0.  0.
         24    2    4    4    0    0  0.82619850095E+03 -0.30779107710E+03 -0.93675468672E+03  0.12885656979E+04  0.74517814232E+02 0.  0.
         13    1    3    3    0    0 -0.25491000004E+03  0.31756364118E+03 -0.31245076989E+03  0.51327503147E+03  0.00000000000E+00 0. -1.
        -13    1    3    3    0    0 -0.52978983449E+03  0.46949074727E+03 -0.51682391386E+03  0.87647349557E+03  0.00000000000E+00 0.  1.
          2    1    6    6  502    0  0.54316984928E+03 -0.20886814530E+03 -0.66786011957E+03  0.88583098083E+03  0.00000000000E+00 0. -1.
          1    1    5    5  503    0 -0.26597121156E+02 -0.44711677305E+03 -0.11886354050E+03  0.46341057051E+03  0.00000000000E+00 0. -1.
         -2    1    5    5    0  503 -0.14901545254E+02 -0.32146538298E+02 -0.32160189927E+02  0.47851162908E+02  0.00000000000E+00 0.  1.
         -1    1    6    6    0  502  0.28302865167E+03 -0.98922931798E+02 -0.26889456715E+03  0.40273471708E+03  0.00000000000E+00 0.  1.
<mgrwt>
<rscale>  0 0.25491768E+04</rscale>
<asrwt>0</asrwt>
<pdfrwt beam="1">  1        2 0.39281762E+00 0.25491768E+04</pdfrwt>
<pdfrwt beam="2">  1       -2 0.97886374E-01 0.25491768E+04</pdfrwt>
<totfact> 0.25006527E+00</totfact>
</mgrwt>
</event>
<event>
12    1  0.1960998E-007  0.1588744E+04  0.7818608E-02  0.8827493E-01
          2   -1    0    0  501    0  0.00000000000E+00  0.00000000000E+00  0.99136358991E+03  0.99136358991E+03  0.00000000000E+00 0. -1.
         -2   -1    0    0    0  501 -0.00000000000E+00 -0.00000000000E+00 -0.63652394266E+03  0.63652394266E+03  0.00000000000E+00 0.  1.
         23    2    1    2    0    0  0.38180475253E+03 -0.28234906403E+03  0.37305080549E+03  0.61101699640E+03  0.93161168937E+02 0.  0.
        254    2    1    2    0    0 -0.38180475253E+03  0.28234906403E+03 -0.18211158241E+02  0.10168705362E+04  0.89899843049E+03 0.  0.
        -24    2    4    4    0    0 -0.38604059317E+03  0.17142105040E+03 -0.41455035237E+03  0.59731465022E+03  0.80748254642E+02 0.  0.
         24    2    4    4    0    0  0.42358406363E+01  0.11092801363E+03  0.39633919413E+03  0.41955588594E+03  0.81359806242E+02 0.  0.
         13    1    3    3    0    0  0.27867418351E+03 -0.24528921449E+03  0.25779362700E+03  0.45197749216E+03  0.00000000000E+00 0.  1.
        -13    1    3    3    0    0  0.10313056902E+03 -0.37059849544E+02  0.11525717849E+03  0.15903950424E+03  0.00000000000E+00 0. -1.
          2    1    6    6  502    0  0.41020593502E+01  0.79335235611E+02  0.36997423598E+03  0.37840697905E+03  0.00000000000E+00 0. -1.
          3    1    5    5  503    0 -0.34951119735E+03  0.16342550689E+03 -0.34152611172E+03  0.51527279995E+03  0.00000000000E+00 0. -1.
         -4    1    5    5    0  503 -0.36529395816E+02  0.79955435088E+01 -0.73024240645E+02  0.82041850275E+02  0.00000000000E+00 0.  1.
         -1    1    6    6    0  502  0.13378128617E+00  0.31592778022E+02  0.26364958143E+02  0.41148906893E+02  0.00000000000E+00 0.  1.
<mgrwt>
<rscale>  0 0.15887437E+04</rscale>
<asrwt>0</asrwt>
<pdfrwt beam="1">  1        2 0.15251748E+00 0.15887437E+04</pdfrwt>
<pdfrwt beam="2">  1       -2 0.97926760E-01 0.15887437E+04</pdfrwt>
<totfact> 0.21257018E+01</totfact>
</mgrwt>
</event>
<event>
12    1  0.1960998E-007  0.2949180E+04  0.7818608E-02  0.8258393E-01
          2   -1    0    0  501    0  0.00000000000E+00  0.00000000000E+00  0.14254117617E+04  0.14254117617E+04  0.00000000000E+00 0. -1.
         -2   -1    0    0    0  501 -0.00000000000E+00 -0.00000000000E+00 -0.15254652311E+04  0.15254652311E+04  0.00000000000E+00 0.  1.
         23    2    1    2    0    0  0.12301831683E+04 -0.16655194586E+03  0.44749989070E+03  0.13227051312E+04  0.90567840226E+02 0.  0.
        254    2    1    2    0    0 -0.12301831683E+04  0.16655194586E+03 -0.54755336010E+03  0.16281718616E+04  0.90002152778E+03 0.  0.
        -24    2    4    4    0    0 -0.10389471320E+04 -0.31715513815E+02 -0.74291885626E+03  0.12801120014E+04  0.79632231417E+02 0.  0.
         24    2    4    4    0    0 -0.19123603632E+03  0.19826745967E+03  0.19536549615E+03  0.34805986018E+03  0.84242400448E+02 0.  0.
         11    1    3    3    0    0  0.53221131598E+03 -0.38743342085E+02  0.22438742363E+03  0.57887792089E+03  0.00000000000E+00 0. -1.
        -11    1    3    3    0    0  0.69797185231E+03 -0.12780860377E+03  0.22311246707E+03  0.74382721030E+03  0.00000000000E+00 0.  1.
          4    1    6    6  502    0 -0.11435886848E+02  0.24712418669E+02  0.55163712420E+02  0.61518438800E+02  0.00000000000E+00 0. -1.
          3    1    5    5  503    0 -0.21071517011E+03  0.17673647733E+02 -0.17735459744E+03  0.27598531477E+03  0.00000000000E+00 0. -1.
         -4    1    5    5    0  503 -0.82823196187E+03 -0.49389161548E+02 -0.56556425882E+03  0.10041266866E+04  0.00000000000E+00 0.  1.
         -3    1    6    6    0  502 -0.17980014947E+03  0.17355504100E+03  0.14020178373E+03  0.28654142138E+03  0.00000000000E+00 0.  1.
<mgrwt>
<rscale>  0 0.29491803E+04</rscale>
<asrwt>0</asrwt>
<pdfrwt beam="1">  1        2 0.21929412E+00 0.29491803E+04</pdfrwt>
<pdfrwt beam="2">  1       -2 0.23468696E+00 0.29491803E+04</pdfrwt>
<totfact> 0.96149178E-01</totfact>
</mgrwt>
</event>
<event>
12    1  0.1960998E-007  0.1679872E+04  0.7818608E-02  0.8772928E-01
          4   -1    0    0  501    0  0.00000000000E+00  0.00000000000E+00  0.58912033570E+03  0.58912033570E+03  0.00000000000E+00 0.  1.
         -4   -1    0    0    0  501 -0.00000000000E+00 -0.00000000000E+00 -0.11975361370E+04  0.11975361370E+04  0.00000000000E+00 0. -1.
         23    2    1    2    0    0  0.51703803822E+03  0.28459112977E+03 -0.29611795839E+03  0.66604303663E+03  0.87218330986E+02 0.  0.
        254    2    1    2    0    0 -0.51703803822E+03 -0.28459112977E+03 -0.31229784289E+03  0.11206134361E+04  0.89995782473E+03 0.  0.
        -24    2    4    4    0    0  0.24509194913E+03 -0.79557574309E+02 -0.54218938801E+01  0.27011805974E+03  0.80838716643E+02 0.  0.
         24    2    4    4    0    0 -0.76212998734E+03 -0.20503355546E+03 -0.30687594901E+03  0.85049537632E+03  0.79301075494E+02 0.  0.
         13    1    3    3    0    0  0.19399691563E+03  0.99793043913E+02 -0.63705703897E+02  0.22727048114E+03  0.00000000000E+00 0. -1.
        -13    1    3    3    0    0  0.32304112259E+03  0.18479808586E+03 -0.23241225449E+03  0.43877255550E+03  0.00000000000E+00 0.  1.
          4    1    6    6  502    0 -0.17041113012E+03 -0.12868426166E+02 -0.73308518661E+02  0.18595614690E+03  0.00000000000E+00 0. -1.
          3    1    5    5  503    0  0.20759991742E+01 -0.16688342917E+02 -0.90045711687E+01  0.19075976090E+02  0.00000000000E+00 0. -1.
         -4    1    5    5    0  503  0.24301594995E+03 -0.62869231393E+02  0.35826772886E+01  0.25104208365E+03  0.00000000000E+00 0.  1.
         -3    1    6    6    0  502 -0.59171885722E+03 -0.19216512930E+03 -0.23356743035E+03  0.66453922941E+03  0.00000000000E+00 0.  1.
<mgrwt>
<rscale>  0 0.16798725E+04</rscale>
<asrwt>0</asrwt>
<pdfrwt beam="1">  1        4 0.90633899E-01 0.16798725E+04</pdfrwt>
<pdfrwt beam="2">  1       -4 0.18423633E+00 0.16798725E+04</pdfrwt>
<totfact> 0.33354541E-01</totfact>
</mgrwt>
</event>
<event>
12    1  0.1960998E-007  0.1839012E+04  0.7818608E-02  0.8685824E-01
          2   -1    0    0  501    0  0.00000000000E+00  0.00000000000E+00  0.16194931839E+04  0.16194931839E+04  0.00000000000E+00 0. -1.
         -2   -1    0    0    0  501 -0.00000000000E+00 -0.00000000000E+00 -0.52207166864E+03  0.52207166864E+03  0.00000000000E+00 0.  1.
         23    2    1    2    0    0  0.13511540532E+03  0.61908005807E+03  0.75314468017E+03  0.98848856544E+03  0.91468265992E+02 0.  0.
        254    2    1    2    0    0 -0.13511540532E+03 -0.61908005807E+03  0.34427683508E+03  0.11530762871E+04  0.89974557160E+03 0.  0.
        -24    2    4    4    0    0  0.25245967067E+03  0.84329026717E+02  0.17429194263E+03  0.32805378245E+03  0.79964572477E+02 0.  0.
         24    2    4    4    0    0 -0.38757507599E+03 -0.70340908478E+03  0.16998489245E+03  0.82502250463E+03  0.82270829624E+02 0.  0.
         11    1    3    3    0    0  0.12288831787E+00  0.60772777540E+02  0.39852818250E+02  0.72674567174E+02  0.00000000000E+00 0.  1.
        -11    1    3    3    0    0  0.13499251700E+03  0.55830728053E+03  0.71329186192E+03  0.91581399826E+03  0.00000000000E+00 0. -1.
          2    1    6    6  502    0 -0.21028252563E+03 -0.37127470504E+03  0.13189336042E+03  0.44660889569E+03  0.00000000000E+00 0. -1.
          3    1    5    5  503    0  0.25813650142E+03  0.80979095348E+02  0.17354833241E+03  0.32142042706E+03  0.00000000000E+00 0. -1.
         -4    1    5    5    0  503 -0.56768307498E+01  0.33499313694E+01  0.74361021551E+00  0.66333553873E+01  0.00000000000E+00 0.  1.
         -1    1    6    6    0  502 -0.17729255035E+03 -0.33213437974E+03  0.38091532030E+02  0.37841360894E+03  0.00000000000E+00 0.  1.
<mgrwt>
<rscale>  0 0.18390122E+04</rscale>
<asrwt>0</asrwt>
<pdfrwt beam="1">  1        2 0.24915280E+00 0.18390122E+04</pdfrwt>
<pdfrwt beam="2">  1       -2 0.80318719E-01 0.18390122E+04</pdfrwt>
<totfact> 0.14021111E+01</totfact>
</mgrwt>
</event>
<event>
12    1  0.1960998E-007  0.1645439E+04  0.7818608E-02  0.8793109E-01
          4   -1    0    0  501    0  0.00000000000E+00  0.00000000000E+00  0.51545306097E+03  0.51545306097E+03  0.00000000000E+00 0. -1.
         -4   -1    0    0    0  501 -0.00000000000E+00 -0.00000000000E+00 -0.13131510248E+04  0.13131510248E+04  0.00000000000E+00 0.  1.
         23    2    1    2    0    0  0.29339172057E+03  0.30990870883E+03  0.14219621778E+03  0.45943046868E+03  0.93458449045E+02 0.  0.
        254    2    1    2    0    0 -0.29339172057E+03 -0.30990870883E+03 -0.93989418162E+03  0.13691736171E+04  0.89950720486E+03 0.  0.
        -24    2    4    4    0    0 -0.47658863607E+03 -0.45055394798E+03 -0.38920677529E+03  0.76680375090E+03  0.79815351863E+02 0.  0.
         24    2    4    4    0    0  0.18319691550E+03  0.14064523915E+03 -0.55068740633E+03  0.60236986619E+03  0.79061008464E+02 0.  0.
         11    1    3    3    0    0  0.17235956339E+03  0.17878791295E+03  0.13066221355E+03  0.28061637685E+03  0.00000000000E+00 0. -1.
        -11    1    3    3    0    0  0.12103215718E+03  0.13112079588E+03  0.11534004231E+02  0.17881409183E+03  0.00000000000E+00 0.  1.
          4    1    6    6  502    0  0.15455694538E+03  0.12907986501E+03 -0.52466826344E+03  0.56198420581E+03  0.00000000000E+00 0. -1.
          3    1    5    5  503    0 -0.41562786552E+03 -0.42455380792E+03 -0.35673510893E+03  0.69300245047E+03  0.00000000000E+00 0. -1.
         -4    1    5    5    0  503 -0.60960770545E+02 -0.26000140063E+02 -0.32471666363E+02  0.73801300429E+02  0.00000000000E+00 0.  1.
         -3    1    6    6    0  502  0.28639970126E+02  0.11565374145E+02 -0.26019142885E+02  0.40385660381E+02  0.00000000000E+00 0.  1.
<mgrwt>
<rscale>  0 0.16454394E+04</rscale>
<asrwt>0</asrwt>
<pdfrwt beam="1">  1        4 0.79300471E-01 0.16454394E+04</pdfrwt>
<pdfrwt beam="2">  1       -4 0.20202324E+00 0.16454394E+04</pdfrwt>
<totfact> 0.34530298E-01</totfact>
</mgrwt>
</event>
<event>
12    1  0.1960998E-007  0.1695652E+04  0.7818608E-02  0.8763848E-01
          2   -1    0    0  501    0  0.00000000000E+00  0.00000000000E+00  0.25911934409E+04  0.25911934409E+04  0.00000000000E+00 0.  1.
         -2   -1    0    0    0  501 -0.00000000000E+00 -0.00000000000E+00 -0.27740469580E+03  0.27740469580E+03  0.00000000000E+00 0. -1.
         23    2    1    2    0    0  0.46809700886E+03 -0.34748364454E+03  0.11100467575E+04  0.12570710326E+04  0.90355321907E+02 0.  0.
        254    2    1    2    0    0 -0.46809700886E+03  0.34748364454E+03  0.12037419876E+04  0.16115271041E+04  0.89898005632E+03 0.  0.
        -24    2    4    4    0    0  0.75273878485E+02  0.81936957661E+02  0.93491733215E+03  0.94468949268E+03  0.77382154279E+02 0.  0.
         24    2    4    4    0    0 -0.54337088735E+03  0.26554668688E+03  0.26882465544E+03  0.66683761144E+03  0.81478466634E+02 0.  0.
         13    1    3    3    0    0  0.26509081541E+03 -0.21920311900E+03  0.56510769509E+03  0.66156621350E+03  0.00000000000E+00 0. -1.
        -13    1    3    3    0    0  0.20300619345E+03 -0.12828052554E+03  0.54493906240E+03  0.59550481907E+03  0.00000000000E+00 0.  1.
          2    1    6    6  502    0 -0.54076307926E+03  0.25643271870E+03  0.27120266605E+03  0.65706417737E+03  0.00000000000E+00 0. -1.
          1    1    5    5  503    0  0.37079140348E+02  0.85320468488E+02  0.75648116061E+03  0.76217989435E+03  0.00000000000E+00 0. -1.
         -2    1    5    5    0  503  0.38194738137E+02 -0.33835108271E+01  0.17843617154E+03  0.18250959833E+03  0.00000000000E+00 0.  1.
         -1    1    6    6    0  502 -0.26078080905E+01  0.91139681781E+01 -0.23780106135E+01  0.97734340672E+01  0.00000000000E+00 0.  1.
<mgrwt>
<rscale>  0 0.16956524E+04</rscale>
<asrwt>0</asrwt>
<pdfrwt beam="1">  1        2 0.39864513E+00 0.16956524E+04</pdfrwt>
<pdfrwt beam="2">  1       -2 0.42677647E-01 0.16956524E+04</pdfrwt>
<totfact> 0.15290226E+01</totfact>
</mgrwt>
</event>
<event>
12    1  0.1960998E-007  0.1390613E+04  0.7818608E-02  0.8960641E-01
         -2   -1    0    0    0  501 -0.00000000000E+00  0.00000000000E+00  0.24351890284E+03  0.24351890284E+03  0.00000000000E+00 0. -1.
          2   -1    0    0  501    0  0.00000000000E+00 -0.00000000000E+00 -0.19852727386E+04  0.19852727386E+04  0.00000000000E+00 0.  1.
         23    2    1    2    0    0 -0.12925495448E+03 -0.31742258417E+03 -0.18934998503E+03  0.40215658970E+03  0.91720039322E+02 0.  0.
        254    2    1    2    0    0  0.12925495448E+03  0.31742258417E+03 -0.15524038508E+04  0.18266350518E+04  0.89954096976E+03 0.  0.
        -24    2    4    4    0    0 -0.21467062452E+03  0.46782887072E+03 -0.57101263895E+03  0.77282298224E+03  0.79073375616E+02 0.  0.
         24    2    4    4    0    0  0.34392557899E+03 -0.15040628654E+03 -0.98139121182E+03  0.10538120695E+04  0.80525227928E+02 0.  0.
         13    1    3    3    0    0 -0.31537480295E+02 -0.14253818362E+03 -0.37353501619E+02  0.15068852158E+03  0.00000000000E+00 0. -1.
        -13    1    3    3    0    0 -0.97717474184E+02 -0.17488440055E+03 -0.15199648341E+03  0.25146806812E+03  0.00000000000E+00 0.  1.
          4    1    6    6  502    0  0.28163076963E+03 -0.14381619475E+03 -0.74661306748E+03  0.81082060951E+03  0.00000000000E+00 0. -1.
          3    1    5    5  503    0 -0.38266248740E+02  0.83482617596E+02 -0.15140084496E+03  0.17707588512E+03  0.00000000000E+00 0. -1.
         -4    1    5    5    0  503 -0.17640437578E+03  0.38434625312E+03 -0.41961179398E+03  0.59574709712E+03  0.00000000000E+00 0.  1.
         -3    1    6    6    0  502  0.62294809365E+02 -0.65900917984E+01 -0.23477814434E+03  0.24299146002E+03  0.00000000000E+00 0.  1.
<mgrwt>
<rscale>  0 0.13906134E+04</rscale>
<asrwt>0</asrwt>
<pdfrwt beam="1">  1        2 0.30542658E+00 0.13906134E+04</pdfrwt>
<pdfrwt beam="2">  1       -2 0.37464446E-01 0.13906134E+04</pdfrwt>
<totfact> 0.44584142E+01</totfact>
</mgrwt>
</event>
<event>
12    1  0.1960998E-007  0.1475051E+04  0.7818608E-02  0.8901215E-01
         -2   -1    0    0    0  501 -0.00000000000E+00  0.00000000000E+00  0.82634484034E+03  0.82634484034E+03  0.00000000000E+00 0.  1.
          2   -1    0    0  501    0  0.00000000000E+00 -0.00000000000E+00 -0.65825320637E+03  0.65825320637E+03  0.00000000000E+00 0. -1.
         23    2    1    2    0    0  0.10522155628E+03 -0.27953037396E+03 -0.30026279468E+03  0.43314608564E+03  0.90823894257E+02 0.  0.
        254    2    1    2    0    0 -0.10522155628E+03  0.27953037396E+03  0.46835442864E+03  0.10514519611E+04  0.89274103173E+03 0.  0.
        -24    2    4    4    0    0  0.29624317461E+03  0.53608988020E+02  0.49285886960E+03  0.58310523197E+03  0.80423280861E+02 0.  0.
         24    2    4    4    0    0 -0.40146473089E+03  0.22592138594E+03 -0.24504440956E+02  0.46834672910E+03  0.80831851765E+02 0.  0.
         11    1    3    3    0    0  0.49853162912E+02 -0.11138207549E+03 -0.63633380656E+02  0.13762453170E+03  0.00000000000E+00 0.  1.
        -11    1    3    3    0    0  0.55368393367E+02 -0.16814829847E+03 -0.23662941402E+03  0.29552155394E+03  0.00000000000E+00 0. -1.
          2    1    6    6  502    0 -0.20860422925E+03  0.13541721735E+03  0.23985646111E+02  0.24985767636E+03  0.00000000000E+00 0. -1.
          1    1    5    5  503    0  0.10732959148E+03 -0.12852605314E+02  0.13417227533E+03  0.17229924590E+03  0.00000000000E+00 0. -1.
         -4    1    5    5    0  503  0.18891358313E+03  0.66461593334E+02  0.35868659427E+03  0.41080598607E+03  0.00000000000E+00 0.  1.
         -1    1    6    6    0  502 -0.19286050164E+03  0.90504168592E+02 -0.48490087067E+02  0.21848905274E+03  0.00000000000E+00 0.  1.
<mgrwt>
<rscale>  0 0.14750514E+04</rscale>
<asrwt>0</asrwt>
<pdfrwt beam="1">  1        2 0.10126972E+00 0.14750514E+04</pdfrwt>
<pdfrwt beam="2">  1       -2 0.12712998E+00 0.14750514E+04</pdfrwt>
<totfact> 0.19683030E+01</totfact>
</mgrwt>
</event>
<event>
12    1  0.1960998E-007  0.4136712E+04  0.7818608E-02  0.7977521E-01
         -1   -1    0    0    0  501 -0.00000000000E+00  0.00000000000E+00  0.17501002575E+04  0.17501002575E+04  0.00000000000E+00 0.  1.
          1   -1    0    0  501    0  0.00000000000E+00 -0.00000000000E+00 -0.24444865309E+04  0.24444865309E+04  0.00000000000E+00 0. -1.
         23    2    1    2    0    0 -0.38368180905E+03 -0.10321510594E+04  0.13247811034E+04  0.17252222833E+04  0.93805195519E+02 0.  0.
        254    2    1    2    0    0  0.38368180905E+03  0.10321510594E+04 -0.20191673769E+04  0.24693645052E+04  0.89898644241E+03 0.  0.
        -24    2    4    4    0    0  0.37020169061E+03  0.66797561368E+02 -0.26769409595E+03  0.46794507190E+03  0.76165972518E+02 0.  0.
         24    2    4    4    0    0  0.13480118439E+02  0.96535349799E+03 -0.17514732809E+04  0.20014194333E+04  0.77019506717E+02 0.  0.
         11    1    3    3    0    0 -0.36046651144E+03 -0.88757689259E+03  0.11698789550E+04  0.15120666703E+04  0.00000000000E+00 0. -1.
        -11    1    3    3    0    0 -0.23215297609E+02 -0.14457416677E+03  0.15490214847E+03  0.21315561297E+03  0.00000000000E+00 0.  1.
          4    1    6    6  502    0  0.32677534425E+01  0.93933341671E+03 -0.16817629265E+04  0.19263137042E+04  0.00000000000E+00 0. -1.
          1    1    5    5  503    0  0.26873183665E+03  0.70634898974E+02 -0.22604410588E+03  0.35819272297E+03  0.00000000000E+00 0. -1.
         -2    1    5    5    0  503  0.10146985396E+03 -0.38373376052E+01 -0.41649990064E+02  0.10975234893E+03  0.00000000000E+00 0.  1.
         -3    1    6    6    0  502  0.10212364996E+02  0.26020081287E+02 -0.69710354440E+02  0.75105729110E+02  0.00000000000E+00 0.  1.
<mgrwt>
<rscale>  0 0.41367120E+04</rscale>
<asrwt>0</asrwt>
<pdfrwt beam="1">  1        1 0.37607485E+00 0.41367120E+04</pdfrwt>
<pdfrwt beam="2">  1       -1 0.26924619E+00 0.41367120E+04</pdfrwt>
<totfact> 0.59866873E-02</totfact>
</mgrwt>
</event>
<event>
12    1  0.1960998E-007  0.2256861E+04  0.7818608E-02  0.8495127E-01
          2   -1    0    0  501    0  0.00000000000E+00  0.00000000000E+00  0.24247047060E+04  0.24247047060E+04  0.00000000000E+00 0.  1.
         -2   -1    0    0    0  501 -0.00000000000E+00 -0.00000000000E+00 -0.52515902842E+03  0.52515902842E+03  0.00000000000E+00 0. -1.
         23    2    1    2    0    0  0.32522797580E+03 -0.88684187003E+03  0.86177896950E+03  0.12819504718E+04  0.92044995942E+02 0.  0.
        254    2    1    2    0    0 -0.32522797580E+03  0.88684187003E+03  0.10377667081E+04  0.16679132626E+04  0.90150605792E+03 0.  0.
        -24    2    4    4    0    0  0.65540471656E+00 -0.59750709207E+02  0.53740654555E+03  0.54586134539E+03  0.74754507517E+02 0.  0.
         24    2    4    4    0    0 -0.32588338051E+03  0.94659257923E+03  0.50036016254E+03  0.11220519172E+04  0.80017022475E+02 0.  0.
         11    1    3    3    0    0  0.22056941797E+03 -0.48955155930E+03  0.45509008051E+03  0.70385977206E+03  0.00000000000E+00 0. -1.
        -11    1    3    3    0    0  0.10465855783E+03 -0.39729031073E+03  0.40668888899E+03  0.57809069977E+03  0.00000000000E+00 0.  1.
          2    1    6    6  502    0 -0.26204876912E+03  0.75549247462E+03  0.36286954243E+03  0.87813025311E+03  0.00000000000E+00 0. -1.
          1    1    5    5  503    0 -0.19802418254E+02 -0.14179835126E+02  0.37862892032E+03  0.37941146898E+03  0.00000000000E+00 0. -1.
         -2    1    5    5    0  503  0.20457822971E+02 -0.45570874080E+02  0.15877762523E+03  0.16644987642E+03  0.00000000000E+00 0.  1.
         -1    1    6    6    0  502 -0.63834611389E+02  0.19110010461E+03  0.13749062011E+03  0.24392166409E+03  0.00000000000E+00 0.  1.
<mgrwt>
<rscale>  0 0.22568612E+04</rscale>
<asrwt>0</asrwt>
<pdfrwt beam="1">  1        2 0.37303149E+00 0.22568612E+04</pdfrwt>
<pdfrwt beam="2">  1       -2 0.80793698E-01 0.22568612E+04</pdfrwt>
<totfact> 0.47323056E+00</totfact>
</mgrwt>
</event>
<event>
12    1  0.1960998E-007  0.1563753E+04  0.7818608E-02  0.8843130E-01
         -2   -1    0    0    0  501 -0.00000000000E+00  0.00000000000E+00  0.38833960625E+03  0.38833960625E+03  0.00000000000E+00 0.  1.
          2   -1    0    0  501    0  0.00000000000E+00 -0.00000000000E+00 -0.15742179488E+04  0.15742179488E+04  0.00000000000E+00 0. -1.
         23    2    1    2    0    0  0.59099552991E+02  0.32712439114E+03 -0.89166715685E+03  0.95597753172E+03  0.91211830874E+02 0.  0.
        254    2    1    2    0    0 -0.59099552991E+02 -0.32712439114E+03 -0.29421118565E+03  0.10065800233E+04  0.90340466961E+03 0.  0.
        -24    2    4    4    0    0  0.68550488120E+02  0.27431830303E+03  0.49221024276E+02  0.29778152315E+03  0.79381518616E+02 0.  0.
         24    2    4    4    0    0 -0.12765004111E+03 -0.60144269417E+03 -0.34343220993E+03  0.70879850013E+03  0.80136031871E+02 0.  0.
         13    1    3    3    0    0 -0.23903135893E+02  0.59740296261E+02 -0.14950927816E+03  0.16276758632E+03  0.00000000000E+00 0.  1.
        -13    1    3    3    0    0  0.83002688883E+02  0.26738409488E+03 -0.74215787870E+03  0.79320994539E+03  0.00000000000E+00 0. -1.
          2    1    6    6  502    0 -0.15407788338E+01 -0.18049475139E+03 -0.10598535212E+03  0.20931704217E+03  0.00000000000E+00 0. -1.
          3    1    5    5  503    0 -0.13326733111E+01  0.79445053617E+02  0.43705542246E+02  0.90683333559E+02  0.00000000000E+00 0. -1.
         -4    1    5    5    0  503  0.69883161431E+02  0.19487324942E+03  0.55154820302E+01  0.20709818959E+03  0.00000000000E+00 0.  1.
         -1    1    6    6    0  502 -0.12610926228E+03 -0.42094794278E+03 -0.23744685781E+03  0.49948145796E+03  0.00000000000E+00 0.  1.
<mgrwt>
<rscale>  0 0.15637534E+04</rscale>
<asrwt>0</asrwt>
<pdfrwt beam="1">  1        2 0.24218738E+00 0.15637534E+04</pdfrwt>
<pdfrwt beam="2">  1       -2 0.59744553E-01 0.15637534E+04</pdfrwt>
<totfact> 0.28969226E+01</totfact>
</mgrwt>
</event>
<event>
12    1  0.1960998E-007  0.1467558E+04  0.7818608E-02  0.8906318E-01
         -1   -1    0    0    0  501 -0.00000000000E+00  0.00000000000E+00  0.51896533248E+03  0.51896533248E+03  0.00000000000E+00 0.  1.
          1   -1    0    0  501    0  0.00000000000E+00 -0.00000000000E+00 -0.10375094823E+04  0.10375094823E+04  0.00000000000E+00 0. -1.
         23    2    1    2    0    0  0.12152152605E+03  0.43131068991E+03 -0.21671141221E+03  0.50618575739E+03  0.91998871053E+02 0.  0.
        254    2    1    2    0    0 -0.12152152605E+03 -0.43131068991E+03 -0.30183273765E+03  0.10502890574E+04  0.90067070017E+03 0.  0.
        -24    2    4    4    0    0  0.14900772303E+03 -0.62742757517E+03 -0.27665273937E+03  0.70615367700E+03  0.79041847966E+02 0.  0.
         24    2    4    4    0    0 -0.27052924908E+03  0.19611688526E+03 -0.25179998286E+02  0.34413538044E+03  0.78404212023E+02 0.  0.
         11    1    3    3    0    0  0.44548448755E+02  0.30340959303E+03 -0.16480735034E+03  0.34814279851E+03  0.00000000000E+00 0. -1.
        -11    1    3    3    0    0  0.76973077297E+02  0.12790109688E+03 -0.51904061870E+02  0.15804295887E+03  0.00000000000E+00 0.  1.
          4    1    6    6  502    0 -0.12927718693E+03  0.55265471202E+02  0.12430876415E+02  0.14114315448E+03  0.00000000000E+00 0. -1.
          3    1    5    5  503    0  0.12318902750E+03 -0.36839645171E+03 -0.18420553675E+03  0.42991064409E+03  0.00000000000E+00 0. -1.
         -4    1    5    5    0  503  0.25818695529E+02 -0.25903112346E+03 -0.92447202617E+02  0.27624303291E+03  0.00000000000E+00 0.  1.
         -1    1    6    6    0  502 -0.14125206215E+03  0.14085141406E+03 -0.37610874701E+02  0.20299222596E+03  0.00000000000E+00 0.  1.
<mgrwt>
<rscale>  0 0.14675578E+04</rscale>
<asrwt>0</asrwt>
<pdfrwt beam="1">  1        1 0.15961684E+00 0.14675578E+04</pdfrwt>
<pdfrwt beam="2">  1       -1 0.79840822E-01 0.14675578E+04</pdfrwt>
<totfact> 0.21501413E+01</totfact>
</mgrwt>
</event>
<event>
12    1  0.1960998E-007  0.1981100E+04  0.7818608E-02  0.8615508E-01
          1   -1    0    0  501    0  0.00000000000E+00  0.00000000000E+00  0.13146357271E+04  0.13146357271E+04  0.00000000000E+00 0. -1.
         -1   -1    0    0    0  501 -0.00000000000E+00 -0.00000000000E+00 -0.74635834696E+03  0.74635834696E+03  0.00000000000E+00 0.  1.
         23    2    1    2    0    0  0.34375504383E+03 -0.56376247156E+03 -0.21052295040E+03  0.69894195414E+03  0.90577525463E+02 0.  0.
        254    2    1    2    0    0 -0.34375504383E+03  0.56376247156E+03  0.77880033049E+03  0.13620521199E+04  0.90147677063E+03 0.  0.
        -24    2    4    4    0    0  0.10540256616E+03 -0.17305018496E+03  0.30428941101E+03  0.37404741519E+03  0.79141365203E+02 0.  0.
         24    2    4    4    0    0 -0.44915760999E+03  0.73681265651E+03  0.47451091947E+03  0.98800470468E+03  0.79732266793E+02 0.  0.
         13    1    3    3    0    0  0.28808775475E+02 -0.58238544201E+02  0.58844420186E+01  0.65240326738E+02  0.00000000000E+00 0. -1.
        -13    1    3    3    0    0  0.31494626835E+03 -0.50552392736E+03 -0.21640739241E+03  0.63370162740E+03  0.00000000000E+00 0.  1.
          2    1    6    6  502    0 -0.23659165288E+02  0.20942457654E+02  0.31953120910E+02  0.44937117960E+02  0.00000000000E+00 0. -1.
          1    1    5    5  503    0  0.30237809366E+02 -0.30047790932E+02  0.20057999102E+02  0.47111762683E+02  0.00000000000E+00 0. -1.
         -2    1    5    5    0  503  0.75164756797E+02 -0.14300239402E+03  0.28423141191E+03  0.32693565250E+03  0.00000000000E+00 0.  1.
         -1    1    6    6    0  502 -0.42549844470E+03  0.71587019886E+03  0.44255779856E+03  0.94306758672E+03  0.00000000000E+00 0.  1.
<mgrwt>
<rscale>  0 0.19811000E+04</rscale>
<asrwt>0</asrwt>
<pdfrwt beam="1">  1        1 0.20225165E+00 0.19811000E+04</pdfrwt>
<pdfrwt beam="2">  1       -1 0.11482436E+00 0.19811000E+04</pdfrwt>
<totfact> 0.56528138E+00</totfact>
</mgrwt>
</event>
<event>
12    1  0.1960998E-007  0.1660889E+04  0.7818608E-02  0.8783991E-01
         -2   -1    0    0    0  501 -0.00000000000E+00  0.00000000000E+00  0.75189590907E+03  0.75189590907E+03  0.00000000000E+00 0.  1.
          2   -1    0    0  501    0  0.00000000000E+00 -0.00000000000E+00 -0.91719878826E+03  0.91719878826E+03  0.00000000000E+00 0. -1.
         23    2    1    2    0    0  0.44481108527E+03  0.37409783184E+03 -0.73971292514E+02  0.59320176364E+03  0.92792730861E+02 0.  0.
        254    2    1    2    0    0 -0.44481108527E+03 -0.37409783184E+03 -0.91331586672E+02  0.10758929337E+04  0.90077636330E+03 0.  0.
        -24    2    4    4    0    0 -0.82993747344E+02 -0.22079753285E+03  0.38182447208E+03  0.45620139213E+03  0.81794071242E+02 0.  0.
         24    2    4    4    0    0 -0.36181733792E+03 -0.15330029899E+03 -0.47315605875E+03  0.61969154156E+03  0.75684761101E+02 0.  0.
         11    1    3    3    0    0  0.18580455421E+03  0.14615749384E+03  0.15048472608E+02  0.23687929816E+03  0.00000000000E+00 0.  1.
        -11    1    3    3    0    0  0.25900653106E+03  0.22794033801E+03 -0.89019765122E+02  0.35632246548E+03  0.00000000000E+00 0. -1.
          4    1    6    6  502    0 -0.17129860665E+03 -0.48023802787E+02 -0.25996352551E+03  0.31500878221E+03  0.00000000000E+00 0. -1.
          3    1    5    5  503    0 -0.90374918494E+02 -0.17110234813E+03  0.25744455781E+03  0.32205797580E+03  0.00000000000E+00 0. -1.
         -4    1    5    5    0  503  0.73811711494E+01 -0.49695184727E+02  0.12437991426E+03  0.13414341633E+03  0.00000000000E+00 0.  1.
         -3    1    6    6    0  502 -0.19051873127E+03 -0.10527649620E+03 -0.21319253324E+03  0.30468275935E+03  0.00000000000E+00 0.  1.
<mgrwt>
<rscale>  0 0.16608889E+04</rscale>
<asrwt>0</asrwt>
<pdfrwt beam="1">  1        2 0.14110751E+00 0.16608889E+04</pdfrwt>
<pdfrwt beam="2">  1       -2 0.11567629E+00 0.16608889E+04</pdfrwt>
<totfact> 0.15839176E+01</totfact>
</mgrwt>
</event>
<event>
12    1  0.1960998E-007  0.3273477E+04  0.7818608E-02  0.8169677E-01
          1   -1    0    0  501    0  0.00000000000E+00  0.00000000000E+00  0.37414751334E+04  0.37414751334E+04  0.00000000000E+00 0. -1.
         -1   -1    0    0    0  501 -0.00000000000E+00 -0.00000000000E+00 -0.71600450615E+03  0.71600450615E+03  0.00000000000E+00 0.  1.
         23    2    1    2    0    0 -0.14023770222E+03 -0.15027988140E+04  0.15262089722E+04  0.21483304546E+04  0.89101216977E+02 0.  0.
        254    2    1    2    0    0  0.14023770222E+03  0.15027988140E+04  0.14992616551E+04  0.23091491850E+04  0.89794964210E+03 0.  0.
        -24    2    4    4    0    0  0.40811767523E+03  0.84852644515E+03  0.12234906841E+04  0.15458947275E+04  0.79397036057E+02 0.  0.
         24    2    4    4    0    0 -0.26787997301E+03  0.65427236883E+03  0.27577097098E+03  0.76325445753E+03  0.81705115874E+02 0.  0.
         13    1    3    3    0    0 -0.14015928795E+03 -0.14790276102E+04  0.15155562570E+04  0.21222813352E+04  0.00000000000E+00 0. -1.
        -13    1    3    3    0    0 -0.78414267812E-01 -0.23771203832E+02  0.10652715218E+02  0.26049119408E+02  0.00000000000E+00 0.  1.
          4    1    6    6  502    0 -0.13452281691E+03  0.42549402473E+03  0.18855645332E+03  0.48445339243E+03  0.00000000000E+00 0. -1.
          3    1    5    5  503    0  0.17105920484E+03  0.36614017564E+03  0.46184273143E+03  0.61369258457E+03  0.00000000000E+00 0. -1.
         -4    1    5    5    0  503  0.23705847039E+03  0.48238626952E+03  0.76164795268E+03  0.93220214290E+03  0.00000000000E+00 0.  1.
         -3    1    6    6    0  502 -0.13335715610E+03  0.22877834409E+03  0.87214517657E+02  0.27880106510E+03  0.00000000000E+00 0.  1.
<mgrwt>
<rscale>  0 0.32734771E+04</rscale>
<asrwt>0</asrwt>
<pdfrwt beam="1">  1        1 0.57561155E+00 0.32734771E+04</pdfrwt>
<pdfrwt beam="2">  1       -1 0.11015454E+00 0.32734771E+04</pdfrwt>
<totfact> 0.10069144E-01</totfact>
</mgrwt>
</event>
<event>
12    1  0.1960998E-007  0.2995733E+04  0.7818608E-02  0.8244950E-01
          1   -1    0    0  501    0  0.00000000000E+00  0.00000000000E+00  0.14410043455E+04  0.14410043455E+04  0.00000000000E+00 0. -1.
         -1   -1    0    0    0  501 -0.00000000000E+00 -0.00000000000E+00 -0.15569720858E+04  0.15569720858E+04  0.00000000000E+00 0.  1.
         23    2    1    2    0    0 -0.91171083086E+03 -0.57585867448E+03 -0.88475340178E+03  0.13974354064E+04  0.84895706592E+02 0.  0.
        254    2    1    2    0    0  0.91171083086E+03  0.57585867448E+03  0.76878566152E+03  0.16005410249E+04  0.89881606962E+03 0.  0.
        -24    2    4    4    0    0  0.61137457917E+03 -0.12838142208E+03  0.28169502291E+03  0.68953046927E+03  0.76416729345E+02 0.  0.
         24    2    4    4    0    0  0.30033625169E+03  0.70424009656E+03  0.48709063861E+03  0.91101055565E+03  0.80789631761E+02 0.  0.
         13    1    3    3    0    0 -0.52113194406E+03 -0.37579118221E+03 -0.50815204880E+03  0.81915567534E+03  0.00000000000E+00 0.  1.
        -13    1    3    3    0    0 -0.39057888680E+03 -0.20006749227E+03 -0.37660135298E+03  0.57827973106E+03  0.00000000000E+00 0. -1.
          4    1    6    6  502    0  0.53623692144E+02  0.80336709933E+02  0.38691093349E+02  0.10405041099E+03  0.00000000000E+00 0. -1.
          1    1    5    5  503    0  0.34846902353E+03 -0.99189239120E+02  0.19316786537E+03  0.41058858938E+03  0.00000000000E+00 0. -1.
         -2    1    5    5    0  503  0.26290555564E+03 -0.29192182961E+02  0.88527157537E+02  0.27894187989E+03  0.00000000000E+00 0.  1.
         -3    1    6    6    0  502  0.24671255955E+03  0.62390338663E+03  0.44839954526E+03  0.80696014467E+03  0.00000000000E+00 0.  1.
<mgrwt>
<rscale>  0 0.29957327E+04</rscale>
<asrwt>0</asrwt>
<pdfrwt beam="1">  1        1 0.22169298E+00 0.29957327E+04</pdfrwt>
<pdfrwt beam="2">  1       -1 0.23953417E+00 0.29957327E+04</pdfrwt>
<totfact> 0.49985108E-01</totfact>
</mgrwt>
</event>
<event>
12    1  0.1960998E-007  0.1145557E+04  0.7818608E-02  0.9161892E-01
         -1   -1    0    0    0  501 -0.00000000000E+00  0.00000000000E+00  0.69303634088E+02  0.69303634088E+02  0.00000000000E+00 0.  1.
          1   -1    0    0  501    0  0.00000000000E+00 -0.00000000000E+00 -0.47338845355E+04  0.47338845355E+04  0.00000000000E+00 0. -1.
         23    2    1    2    0    0 -0.13328484340E+03  0.14216794327E+03 -0.69248807270E+03  0.72527203969E+03  0.92212944594E+02 0.  0.
        254    2    1    2    0    0  0.13328484340E+03 -0.14216794327E+03 -0.39720928287E+04  0.40779161299E+04  0.90216514509E+03 0.  0.
        -24    2    4    4    0    0  0.16820400002E+02 -0.23082160282E+03 -0.24251909243E+03  0.34452847853E+03  0.79516187912E+02 0.  0.
         24    2    4    4    0    0  0.11646444339E+03  0.88653659547E+02 -0.37295737363E+04  0.37333876514E+04  0.83902700296E+02 0.  0.
         11    1    3    3    0    0 -0.26094920161E+02  0.90965997684E+02 -0.25688861966E+03  0.27376544797E+03  0.00000000000E+00 0.  1.
        -11    1    3    3    0    0 -0.10718992324E+03  0.51201945587E+02 -0.43559945304E+03  0.45150659172E+03  0.00000000000E+00 0. -1.
          2    1    6    6  502    0  0.73177409266E+02  0.82688411030E+02 -0.18409166075E+04  0.18442251116E+04  0.00000000000E+00 0. -1.
          1    1    5    5  503    0  0.26676336066E+02 -0.30070246435E+02 -0.64681624364E+02  0.76154836727E+02  0.00000000000E+00 0. -1.
         -2    1    5    5    0  503 -0.98559360643E+01 -0.20075135638E+03 -0.17783746807E+03  0.26837364180E+03  0.00000000000E+00 0.  1.
         -1    1    6    6    0  502  0.43287034129E+02  0.59652485172E+01 -0.18886571288E+04  0.18891625398E+04  0.00000000000E+00 0.  1.
<mgrwt>
<rscale>  0 0.11455573E+04</rscale>
<asrwt>0</asrwt>
<pdfrwt beam="1">  1        1 0.72829006E+00 0.11455573E+04</pdfrwt>
<pdfrwt beam="2">  1       -1 0.10662096E-01 0.11455573E+04</pdfrwt>
<totfact> 0.10891336E+00</totfact>
</mgrwt>
</event>
<event>
12    1  0.1960998E-007  0.1288112E+04  0.7818608E-02  0.9039046E-01
          2   -1    0    0  501    0  0.00000000000E+00  0.00000000000E+00  0.28110989070E+03  0.28110989070E+03  0.00000000000E+00 0.  1.
         -2   -1    0    0    0  501 -0.00000000000E+00 -0.00000000000E+00 -0.14756095278E+04  0.14756095278E+04  0.00000000000E+00 0. -1.
         23    2    1    2    0    0 -0.22880970976E+03  0.16338267925E+03 -0.52762783041E+03  0.60198403869E+03  0.70326895635E+02 0.  0.
        254    2    1    2    0    0  0.22880970976E+03 -0.16338267925E+03 -0.66687180664E+03  0.11547353798E+04  0.89980442744E+03 0.  0.
        -24    2    4    4    0    0  0.41090509360E+03  0.52680890201E+02  0.34632728904E+01  0.42268884976E+03  0.83878467487E+02 0.  0.
         24    2    4    4    0    0 -0.18209538384E+03 -0.21606356945E+03 -0.67033507953E+03  0.73204653002E+03  0.81858465634E+02 0.  0.
         13    1    3    3    0    0 -0.72526419854E+02  0.88105965047E+02 -0.17371396864E+03  0.20784437821E+03  0.00000000000E+00 0.  1.
        -13    1    3    3    0    0 -0.15628328991E+03  0.75276714204E+02 -0.35391386178E+03  0.39413966048E+03  0.00000000000E+00 0. -1.
          4    1    6    6  502    0 -0.15594206088E+03 -0.16404742816E+03 -0.44425298315E+03  0.49858820491E+03  0.00000000000E+00 0. -1.
          3    1    5    5  503    0  0.33941825208E+03  0.41682989374E+02  0.35059696145E+02  0.34376067801E+03  0.00000000000E+00 0. -1.
         -4    1    5    5    0  503  0.71486841517E+02  0.10997900827E+02 -0.31596423255E+02  0.78928171746E+02  0.00000000000E+00 0.  1.
         -3    1    6    6    0  502 -0.26153322963E+02 -0.52016141293E+02 -0.22608209639E+03  0.23345832511E+03  0.00000000000E+00 0.  1.
<mgrwt>
<rscale>  0 0.12881125E+04</rscale>
<asrwt>0</asrwt>
<pdfrwt beam="1">  1        2 0.43247675E-01 0.12881125E+04</pdfrwt>
<pdfrwt beam="2">  1       -2 0.22701685E+00 0.12881125E+04</pdfrwt>
<totfact> 0.10340956E+01</totfact>
</mgrwt>
</event>
<event>
12    1  0.1960998E-007  0.2390909E+04  0.7818608E-02  0.8442915E-01
         -1   -1    0    0    0  501 -0.00000000000E+00  0.00000000000E+00  0.13710718792E+04  0.13710718792E+04  0.00000000000E+00 0.  1.
          1   -1    0    0  501    0  0.00000000000E+00 -0.00000000000E+00 -0.10423317603E+04  0.10423317603E+04  0.00000000000E+00 0. -1.
         23    2    1    2    0    0  0.38757694899E+03  0.21772669803E+03 -0.78909828605E+03  0.91017694323E+03  0.90139650048E+02 0.  0.
        254    2    1    2    0    0 -0.38757694899E+03 -0.21772669803E+03  0.11178384049E+04  0.15032266963E+04  0.90139169876E+03 0.  0.
        -24    2    4    4    0    0 -0.66347439921E+03 -0.61996536052E+02  0.66553613179E+03  0.94511968513E+03  0.79189820120E+02 0.  0.
         24    2    4    4    0    0  0.27589745022E+03 -0.15573016198E+03  0.45230227316E+03  0.55810701122E+03  0.80838130072E+02 0.  0.
         11    1    3    3    0    0  0.19177889710E+03  0.14185562524E+03 -0.35141756004E+03  0.42473105054E+03  0.00000000000E+00 0.  1.
        -11    1    3    3    0    0  0.19579805189E+03  0.75871072797E+02 -0.43768072601E+03  0.48544589269E+03  0.00000000000E+00 0. -1.
          4    1    6    6  502    0  0.23627151675E+03 -0.97654102467E+02  0.37193477567E+03  0.45132696653E+03  0.00000000000E+00 0. -1.
          1    1    5    5  503    0 -0.30799676882E+03 -0.10620381861E+02  0.25819127703E+03  0.40204171133E+03  0.00000000000E+00 0. -1.
         -2    1    5    5    0  503 -0.35547763039E+03 -0.51376154190E+02  0.40734485476E+03  0.54307797380E+03  0.00000000000E+00 0.  1.
         -3    1    6    6    0  502  0.39625933467E+02 -0.58076059515E+02  0.80367497488E+02  0.10678004469E+03  0.00000000000E+00 0.  1.
<mgrwt>
<rscale>  0 0.23909093E+04</rscale>
<asrwt>0</asrwt>
<pdfrwt beam="1">  1        1 0.16035873E+00 0.23909093E+04</pdfrwt>
<pdfrwt beam="2">  1       -1 0.21093413E+00 0.23909093E+04</pdfrwt>
<totfact> 0.15939068E+00</totfact>
</mgrwt>
</event>
<event>
12    1  0.1960998E-007  0.2642802E+04  0.7818608E-02  0.8353806E-01
          2   -1    0    0  501    0  0.00000000000E+00  0.00000000000E+00  0.16205231087E+04  0.16205231087E+04  0.00000000000E+00 0. -1.
         -2   -1    0    0    0  501 -0.00000000000E+00 -0.00000000000E+00 -0.10774922205E+04  0.10774922205E+04  0.00000000000E+00 0.  1.
         23    2    1    2    0    0 -0.87845483072E+03 -0.26580171407E+03  0.97364201755E+03  0.13413249727E+04  0.94023737108E+02 0.  0.
        254    2    1    2    0    0  0.87845483072E+03  0.26580171407E+03 -0.43061112942E+03  0.13566903565E+04  0.90158157583E+03 0.  0.
        -24    2    4    4    0    0  0.10334429024E+03 -0.27265171594E+03  0.29647499265E+02  0.30374608973E+03  0.79772879379E+02 0.  0.
         24    2    4    4    0    0  0.77511054049E+03  0.53845343002E+03 -0.46025862868E+03  0.10529442668E+04  0.78263512665E+02 0.  0.
         11    1    3    3    0    0 -0.53323375192E+03 -0.20591689096E+03  0.62700957687E+03  0.84845801879E+03  0.00000000000E+00 0.  1.
        -11    1    3    3    0    0 -0.34522107880E+03 -0.59884823111E+02  0.34663244068E+03  0.49286695388E+03  0.00000000000E+00 0. -1.
          2    1    6    6  502    0  0.14923277237E+03  0.11037766495E+03 -0.12553932057E+03  0.22408429280E+03  0.00000000000E+00 0. -1.
          3    1    5    5  503    0 -0.76067020898E+01 -0.24101476039E+02  0.18513092010E+02  0.31328543530E+02  0.00000000000E+00 0. -1.
         -4    1    5    5    0  503  0.11095099233E+03 -0.24855023990E+03  0.11134407256E+02  0.27241754620E+03  0.00000000000E+00 0.  1.
         -1    1    6    6    0  502  0.62587776811E+03  0.42807576507E+03 -0.33471930811E+03  0.82885997399E+03  0.00000000000E+00 0.  1.
<mgrwt>
<rscale>  0 0.26428023E+04</rscale>
<asrwt>0</asrwt>
<pdfrwt beam="1">  1        2 0.24931125E+00 0.26428023E+04</pdfrwt>
<pdfrwt beam="2">  1       -2 0.16576803E+00 0.26428023E+04</pdfrwt>
<totfact> 0.21885280E+00</totfact>
</mgrwt>
</event>
<event>
12    1  0.1960998E-007  0.2483084E+04  0.7818608E-02  0.8409037E-01
         -2   -1    0    0    0  501 -0.00000000000E+00  0.00000000000E+00  0.14172657918E+04  0.14172657918E+04  0.00000000000E+00 0.  1.
          2   -1    0    0  501    0  0.00000000000E+00 -0.00000000000E+00 -0.10876055732E+04  0.10876055732E+04  0.00000000000E+00 0. -1.
         23    2    1    2    0    0  0.64689788642E+02  0.10284150403E+04  0.46054146849E+03  0.11316144801E+04  0.81428641510E+02 0.  0.
        254    2    1    2    0    0 -0.64689788642E+02 -0.10284150403E+04 -0.13088124989E+03  0.13732568849E+04  0.89826627813E+03 0.  0.
        -24    2    4    4    0    0 -0.21087561948E+03 -0.39678296290E+03  0.33907474091E+03  0.56852277533E+03  0.79631775114E+02 0.  0.
         24    2    4    4    0    0  0.14618583083E+03 -0.63163207738E+03 -0.46995599079E+03  0.80473410954E+03  0.80056076929E+02 0.  0.
         11    1    3    3    0    0  0.51557113733E+02  0.83861059829E+03  0.33997446280E+03  0.90637106469E+03  0.00000000000E+00 0. -1.
        -11    1    3    3    0    0  0.13132674909E+02  0.18980444198E+03  0.12056700569E+03  0.22524341546E+03  0.00000000000E+00 0.  1.
          2    1    6    6  502    0  0.90183364491E+02 -0.44264110038E+03 -0.28299646748E+03  0.53305833038E+03  0.00000000000E+00 0. -1.
          3    1    5    5  503    0 -0.18153589630E+03 -0.26877080579E+03  0.25513154013E+03  0.41265618917E+03  0.00000000000E+00 0. -1.
         -4    1    5    5    0  503 -0.29339723177E+02 -0.12801215711E+03  0.83943200779E+02  0.15586658616E+03  0.00000000000E+00 0.  1.
         -1    1    6    6    0  502  0.56002466344E+02 -0.18899097700E+03 -0.18695952331E+03  0.27167577916E+03  0.00000000000E+00 0.  1.
<mgrwt>
<rscale>  0 0.24830837E+04</rscale>
<asrwt>0</asrwt>
<pdfrwt beam="1">  1        2 0.16732393E+00 0.24830837E+04</pdfrwt>
<pdfrwt beam="2">  1       -2 0.21804089E+00 0.24830837E+04</pdfrwt>
<totfact> 0.20140314E+00</totfact>
</mgrwt>
</event>
<event>
12    1  0.1960998E-007  0.1305053E+04  0.7818608E-02  0.9025568E-01
         -1   -1    0    0    0  501 -0.00000000000E+00  0.00000000000E+00  0.45810772483E+03  0.45810772483E+03  0.00000000000E+00 0.  1.
          1   -1    0    0  501    0  0.00000000000E+00 -0.00000000000E+00 -0.92945582369E+03  0.92945582369E+03  0.00000000000E+00 0. -1.
         23    2    1    2    0    0  0.32104536392E+03  0.51617440026E+02 -0.23036059694E+03  0.40857597068E+03  0.90187767370E+02 0.  0.
        254    2    1    2    0    0 -0.32104536392E+03 -0.51617440026E+02 -0.24098750192E+03  0.97898757784E+03  0.89140743528E+03 0.  0.
        -24    2    4    4    0    0 -0.60794552066E+03 -0.15716641510E+03 -0.15584294121E+03  0.65194062338E+03  0.80252825241E+02 0.  0.
         24    2    4    4    0    0  0.28690015674E+03  0.10554897507E+03 -0.85144560710E+02  0.32704695446E+03  0.79106435446E+02 0.  0.
         11    1    3    3    0    0  0.21908328096E+03  0.10313185175E+02 -0.19370798530E+03  0.29262028185E+03  0.00000000000E+00 0. -1.
        -11    1    3    3    0    0  0.10196208296E+03  0.41304254851E+02 -0.36652611647E+02  0.11595568883E+03  0.00000000000E+00 0.  1.
          4    1    6    6  502    0  0.32463001289E+02  0.10289911125E+02 -0.38477698024E+02  0.51383479532E+02  0.00000000000E+00 0. -1.
          1    1    5    5  503    0 -0.24841348198E+00 -0.11661983638E+01 -0.70331718241E+01  0.71335288455E+01  0.00000000000E+00 0. -1.
         -2    1    5    5    0  503 -0.60769710718E+03 -0.15600021673E+03 -0.14880976939E+03  0.64480709453E+03  0.00000000000E+00 0.  1.
         -3    1    6    6    0  502  0.25443715545E+03  0.95259063947E+02 -0.46666862687E+02  0.27566347493E+03  0.00000000000E+00 0.  1.
<mgrwt>
<rscale>  0 0.13050531E+04</rscale>
<asrwt>0</asrwt>
<pdfrwt beam="1">  1        1 0.14299320E+00 0.13050531E+04</pdfrwt>
<pdfrwt beam="2">  1       -1 0.70478113E-01 0.13050531E+04</pdfrwt>
<totfact> 0.34412705E+01</totfact>
</mgrwt>
</event>
<event>
12    1  0.1960998E-007  0.2552173E+04  0.7818608E-02  0.8384631E-01
          2   -1    0    0  501    0  0.00000000000E+00  0.00000000000E+00  0.11049248748E+04  0.11049248748E+04  0.00000000000E+00 0. -1.
         -2   -1    0    0    0  501 -0.00000000000E+00 -0.00000000000E+00 -0.14737627177E+04  0.14737627177E+04  0.00000000000E+00 0.  1.
         23    2    1    2    0    0  0.67327511513E+03 -0.87938488867E+03 -0.29731634625E+03  0.11502350198E+04  0.89590334473E+02 0.  0.
        254    2    1    2    0    0 -0.67327511513E+03  0.87938488867E+03 -0.71521496556E+02  0.14284525727E+04  0.89930209876E+03 0.  0.
        -24    2    4    4    0    0  0.15415777945E+03  0.27827248354E+01  0.11261164393E+03  0.20652750783E+03  0.78739219058E+02 0.  0.
         24    2    4    4    0    0 -0.82743289458E+03  0.87660216383E+03 -0.18413314049E+03  0.12219250648E+04  0.78225967533E+02 0.  0.
         11    1    3    3    0    0  0.77193490568E+02 -0.15181621925E+03 -0.36629486875E+02  0.17420883652E+03  0.00000000000E+00 0. -1.
        -11    1    3    3    0    0  0.59608162456E+03 -0.72756866942E+03 -0.26068685938E+03  0.97602618331E+03  0.00000000000E+00 0.  1.
          4    1    6    6  502    0 -0.39036561426E+03  0.36411177674E+03 -0.62306605448E+02  0.53744284518E+03  0.00000000000E+00 0. -1.
          3    1    5    5  503    0  0.34333250995E+02  0.29836910496E+02  0.10246845655E+02  0.46626292987E+02  0.00000000000E+00 0. -1.
         -4    1    5    5    0  503  0.11982452846E+03 -0.27054185661E+02  0.10236479828E+03  0.15990121484E+03  0.00000000000E+00 0.  1.
         -3    1    6    6    0  502 -0.43706728032E+03  0.51249038709E+03 -0.12182653504E+03  0.68448221966E+03  0.00000000000E+00 0.  1.
<mgrwt>
<rscale>  0 0.25521733E+04</rscale>
<asrwt>0</asrwt>
<pdfrwt beam="1">  1        2 0.16998844E+00 0.25521733E+04</pdfrwt>
<pdfrwt beam="2">  1       -2 0.22673272E+00 0.25521733E+04</pdfrwt>
<totfact> 0.17218022E+00</totfact>
</mgrwt>
</event>
<event>
12    1  0.1960998E-007  0.2391376E+04  0.7818608E-02  0.8442739E-01
          2   -1    0    0  501    0  0.00000000000E+00  0.00000000000E+00  0.82653272490E+03  0.82653272490E+03  0.00000000000E+00 0. -1.
         -2   -1    0    0    0  501 -0.00000000000E+00 -0.00000000000E+00 -0.17297201879E+04  0.17297201879E+04  0.00000000000E+00 0.  1.
         23    2    1    2    0    0  0.90384430263E+03 -0.33946190759E+03 -0.77090737013E+03  0.12389912242E+04  0.92909473634E+02 0.  0.
        254    2    1    2    0    0 -0.90384430263E+03  0.33946190759E+03 -0.13228009286E+03  0.13172616886E+04  0.88629082309E+03 0.  0.
        -24    2    4    4    0    0 -0.60086029659E+03 -0.11010167702E+03 -0.37162179266E+03  0.71938263623E+03  0.79076831116E+02 0.  0.
         24    2    4    4    0    0 -0.30298400604E+03  0.44956358461E+03  0.23934169980E+03  0.59787905234E+03  0.79171885442E+02 0.  0.
         13    1    3    3    0    0  0.45489808610E+03 -0.18262110372E+03 -0.44888248887E+03  0.66466399412E+03  0.00000000000E+00 0. -1.
        -13    1    3    3    0    0  0.44894621654E+03 -0.15684080386E+03 -0.32202488126E+03  0.57432723011E+03  0.00000000000E+00 0.  1.
          4    1    6    6  502    0 -0.28157364441E+02  0.71869079188E+02  0.11049103773E+02  0.77974896022E+02  0.00000000000E+00 0. -1.
          3    1    5    5  503    0 -0.14141295837E+03  0.60243027559E+01 -0.98134981889E+02  0.17223353822E+03  0.00000000000E+00 0. -1.
         -4    1    5    5    0  503 -0.45944733822E+03 -0.11612597978E+03 -0.27348681077E+03  0.54714909801E+03  0.00000000000E+00 0.  1.
         -3    1    6    6    0  502 -0.27482664160E+03  0.37769450542E+03  0.22829259603E+03  0.51990415632E+03  0.00000000000E+00 0.  1.
<mgrwt>
<rscale>  0 0.23913765E+04</rscale>
<asrwt>0</asrwt>
<pdfrwt beam="1">  1        2 0.12715888E+00 0.23913765E+04</pdfrwt>
<pdfrwt beam="2">  1       -2 0.26611080E+00 0.23913765E+04</pdfrwt>
<totfact> 0.15187660E+00</totfact>
</mgrwt>
</event>
<event>
12    1  0.1960998E-007  0.2270711E+04  0.7818608E-02  0.8489560E-01
          2   -1    0    0  501    0  0.00000000000E+00  0.00000000000E+00  0.28208506703E+04  0.28208506703E+04  0.00000000000E+00 0.  1.
         -2   -1    0    0    0  501 -0.00000000000E+00 -0.00000000000E+00 -0.45696590627E+03  0.45696590627E+03  0.00000000000E+00 0. -1.
         23    2    1    2    0    0  0.52669116376E+02  0.95040220505E+03  0.90693851086E+03  0.13182035069E+04  0.95313357069E+02 0.  0.
        254    2    1    2    0    0 -0.52669116376E+02 -0.95040220505E+03  0.14569462531E+04  0.19596130696E+04  0.90075113700E+03 0.  0.
        -24    2    4    4    0    0  0.33345521406E+03 -0.36333941740E+03  0.24578003228E+03  0.55707728170E+03  0.81971711581E+02 0.  0.
         24    2    4    4    0    0 -0.38612433044E+03 -0.58706278765E+03  0.12111662209E+04  0.14025357879E+04  0.80301348527E+02 0.  0.
         11    1    3    3    0    0  0.26378271145E+02  0.72711776292E+03  0.63828074826E+03  0.96788344750E+03  0.00000000000E+00 0. -1.
        -11    1    3    3    0    0  0.26290845232E+02  0.22328444213E+03  0.26865776259E+03  0.35032005943E+03  0.00000000000E+00 0.  1.
          4    1    6    6  502    0 -0.24687043879E+03 -0.37133575038E+03  0.84309381650E+03  0.95375176879E+03  0.00000000000E+00 0. -1.
          1    1    5    5  503    0  0.32787840255E+03 -0.33929161617E+03  0.21752592529E+03  0.51955805820E+03  0.00000000000E+00 0. -1.
         -2    1    5    5    0  503  0.55768115104E+01 -0.24047801225E+02  0.28254106994E+02  0.37519223505E+02  0.00000000000E+00 0.  1.
         -3    1    6    6    0  502 -0.13925389165E+03 -0.21572703727E+03  0.36807240435E+03  0.44878401909E+03  0.00000000000E+00 0.  1.
<mgrwt>
<rscale>  0 0.22707114E+04</rscale>
<asrwt>0</asrwt>
<pdfrwt beam="1">  1        2 0.43397702E+00 0.22707114E+04</pdfrwt>
<pdfrwt beam="2">  1       -2 0.70302449E-01 0.22707114E+04</pdfrwt>
<totfact> 0.37605344E+00</totfact>
</mgrwt>
</event>
<event>
12    1  0.1960998E-007  0.2575546E+04  0.7818608E-02  0.8376555E-01
         -2   -1    0    0    0  501 -0.00000000000E+00  0.00000000000E+00  0.34494748196E+03  0.34494748196E+03  0.00000000000E+00 0.  1.
          2   -1    0    0  501    0  0.00000000000E+00 -0.00000000000E+00 -0.48075696542E+04  0.48075696542E+04  0.00000000000E+00 0. -1.
         23    2    1    2    0    0  0.81910224490E+03 -0.75083837603E+03 -0.15680792125E+04  0.19241866043E+04  0.94524688806E+02 0.  0.
        254    2    1    2    0    0 -0.81910224490E+03  0.75083837603E+03 -0.28945429597E+04  0.32283305319E+04  0.89947335869E+03 0.  0.
        -24    2    4    4    0    0 -0.18175472823E+03  0.56798678821E+03 -0.64620985367E+03  0.88291431677E+03  0.79415004666E+02 0.  0.
         24    2    4    4    0    0 -0.63734751667E+03  0.18285158782E+03 -0.22483331060E+04  0.23454162151E+04  0.79554423122E+02 0.  0.
         13    1    3    3    0    0  0.12779654389E+03 -0.11764106676E+03 -0.30841359199E+03  0.35396372828E+03  0.00000000000E+00 0.  1.
        -13    1    3    3    0    0  0.69130570101E+03 -0.63319730927E+03 -0.12596656206E+04  0.15702228760E+04  0.00000000000E+00 0. -1.
          2    1    6    6  502    0 -0.23432587326E+03  0.68260366137E+02 -0.96657042808E+03  0.99690846366E+03  0.00000000000E+00 0. -1.
          3    1    5    5  503    0 -0.17856097962E+03  0.46047518511E+03 -0.53880269100E+03  0.73091022662E+03  0.00000000000E+00 0. -1.
         -4    1    5    5    0  503 -0.31937486140E+01  0.10751160310E+03 -0.10740716267E+03  0.15200409016E+03  0.00000000000E+00 0.  1.
         -1    1    6    6    0  502 -0.40302164340E+03  0.11459122169E+03 -0.12817626779E+04  0.13485077514E+04  0.00000000000E+00 0.  1.
<mgrwt>
<rscale>  0 0.25755458E+04</rscale>
<asrwt>0</asrwt>
<pdfrwt beam="1">  1        2 0.73962615E+00 0.25755458E+04</pdfrwt>
<pdfrwt beam="2">  1       -2 0.53068840E-01 0.25755458E+04</pdfrwt>
<totfact> 0.17431737E-01</totfact>
</mgrwt>
</event>
<event>
12    1  0.1960998E-007  0.1977373E+04  0.7818608E-02  0.8617273E-01
         -2   -1    0    0    0  501 -0.00000000000E+00  0.00000000000E+00  0.79205422176E+03  0.79205422176E+03  0.00000000000E+00 0.  1.
          2   -1    0    0  501    0  0.00000000000E+00 -0.00000000000E+00 -0.12341343655E+04  0.12341343655E+04  0.00000000000E+00 0. -1.
         23    2    1    2    0    0 -0.68865321498E+03  0.23931226601E+03  0.12509434865E+03  0.74594944668E+03  0.96324294824E+02 0.  0.
        254    2    1    2    0    0  0.68865321498E+03 -0.23931226601E+03 -0.56717449235E+03  0.12802391405E+04  0.88646023095E+03 0.  0.
        -24    2    4    4    0    0 -0.42452930223E+02  0.44226583219E+02  0.17214552841E+03  0.19958558278E+03  0.80262568831E+02 0.  0.
         24    2    4    4    0    0  0.73110614520E+03 -0.28353884923E+03 -0.73932002076E+03  0.10806535578E+04  0.79420049391E+02 0.  0.
         13    1    3    3    0    0 -0.37255809772E+03  0.84456951001E+02  0.42231506750E+02  0.38433840936E+03  0.00000000000E+00 0. -1.
        -13    1    3    3    0    0 -0.31609511726E+03  0.15485531501E+03  0.82862841898E+02  0.36161103732E+03  0.00000000000E+00 0.  1.
          4    1    6    6  502    0  0.62603467882E+03 -0.26965091468E+03 -0.62567161800E+03  0.92525456412E+03  0.00000000000E+00 0. -1.
          1    1    5    5  503    0  0.13569892774E+02  0.42063075024E+02  0.64104654940E+02  0.77864311821E+02  0.00000000000E+00 0. -1.
         -2    1    5    5    0  503 -0.56022822997E+02  0.21635081950E+01  0.10804087347E+03  0.12172127096E+03  0.00000000000E+00 0.  1.
         -3    1    6    6    0  502  0.10507146639E+03 -0.13887934551E+02 -0.11364840276E+03  0.15539899364E+03  0.00000000000E+00 0.  1.
<mgrwt>
<rscale>  0 0.19773733E+04</rscale>
<asrwt>0</asrwt>
<pdfrwt beam="1">  1        2 0.18986683E+00 0.19773733E+04</pdfrwt>
<pdfrwt beam="2">  1       -2 0.12185450E+00 0.19773733E+04</pdfrwt>
<totfact> 0.85993644E+00</totfact>
</mgrwt>
</event>
<event>
12    1  0.1960998E-007  0.2019076E+04  0.7818608E-02  0.8597754E-01
         -2   -1    0    0    0  501 -0.00000000000E+00  0.00000000000E+00  0.42765386448E+03  0.42765386448E+03  0.00000000000E+00 0.  1.
          2   -1    0    0  501    0  0.00000000000E+00 -0.00000000000E+00 -0.23831578386E+04  0.23831578386E+04  0.00000000000E+00 0. -1.
         23    2    1    2    0    0 -0.30578451518E+03 -0.74152975432E+03 -0.65080445516E+03  0.10370991313E+04  0.93046349121E+02 0.  0.
        254    2    1    2    0    0  0.30578451518E+03  0.74152975432E+03 -0.13046995190E+04  0.17737125717E+04  0.89467586652E+03 0.  0.
        -24    2    4    4    0    0  0.61083102739E+03  0.58096955555E+03 -0.96028091618E+03  0.12804122970E+04  0.81707061510E+02 0.  0.
         24    2    4    4    0    0 -0.30504651221E+03  0.16056019877E+03 -0.34441860278E+03  0.49330027472E+03  0.76733532800E+02 0.  0.
         11    1    3    3    0    0 -0.22809390932E+02 -0.15030414083E+03 -0.12173530308E+03  0.19475904878E+03  0.00000000000E+00 0.  1.
        -11    1    3    3    0    0 -0.28297512425E+03 -0.59122561349E+03 -0.52906915207E+03  0.84234008254E+03  0.00000000000E+00 0. -1.
          4    1    6    6  502    0 -0.24977869223E+03  0.11437401370E+03 -0.30757115716E+03  0.41239644375E+03  0.00000000000E+00 0. -1.
          3    1    5    5  503    0  0.17507342854E+03  0.15282887231E+03 -0.21332007843E+03  0.31545653497E+03  0.00000000000E+00 0. -1.
         -4    1    5    5    0  503  0.43575759885E+03  0.42814068324E+03 -0.74696083775E+03  0.96495576206E+03  0.00000000000E+00 0.  1.
         -3    1    6    6    0  502 -0.55267819982E+02  0.46186185065E+02 -0.36847445621E+02  0.80903830968E+02  0.00000000000E+00 0.  1.
<mgrwt>
<rscale>  0 0.20190757E+04</rscale>
<asrwt>0</asrwt>
<pdfrwt beam="1">  1        2 0.36663967E+00 0.20190757E+04</pdfrwt>
<pdfrwt beam="2">  1       -2 0.65792902E-01 0.20190757E+04</pdfrwt>
<totfact> 0.80216207E+00</totfact>
</mgrwt>
</event>
<event>
12    1  0.1960998E-007  0.2472826E+04  0.7818608E-02  0.8412731E-01
          1   -1    0    0  501    0  0.00000000000E+00  0.00000000000E+00  0.78879614230E+03  0.78879614230E+03  0.00000000000E+00 0. -1.
         -1   -1    0    0    0  501 -0.00000000000E+00 -0.00000000000E+00 -0.19380379924E+04  0.19380379924E+04  0.00000000000E+00 0.  1.
         23    2    1    2    0    0  0.75278171843E+03  0.59745279721E+03  0.21598452087E+02  0.96581807741E+03  0.93316156346E+02 0.  0.
        254    2    1    2    0    0 -0.75278171843E+03 -0.59745279721E+03 -0.11708403022E+04  0.17610160573E+04  0.89815387342E+03 0.  0.
        -24    2    4    4    0    0 -0.70346774965E+03 -0.80614351230E+03 -0.10562562726E+04  0.15056522970E+04  0.81100485284E+02 0.  0.
         24    2    4    4    0    0 -0.49313968774E+02  0.20869071509E+03 -0.11458402959E+03  0.25536376033E+03  0.78086286701E+02 0.  0.
         11    1    3    3    0    0  0.47692440914E+03  0.36405761657E+03  0.57235815428E+02  0.60271948598E+03  0.00000000000E+00 0. -1.
        -11    1    3    3    0    0  0.27585730929E+03  0.23339518064E+03 -0.35637363341E+02  0.36309859143E+03  0.00000000000E+00 0.  1.
          4    1    6    6  502    0 -0.18770946357E+02  0.18842521909E+03 -0.10840258090E+03  0.21819150113E+03  0.00000000000E+00 0. -1.
          3    1    5    5  503    0 -0.25154909710E+03 -0.24224149266E+03 -0.31225445691E+03  0.46846636473E+03  0.00000000000E+00 0. -1.
         -4    1    5    5    0  503 -0.45191865255E+03 -0.56390201964E+03 -0.74400181572E+03  0.10371859323E+04  0.00000000000E+00 0.  1.
         -3    1    6    6    0  502 -0.30543022417E+02  0.20265495999E+02 -0.61814486885E+01  0.37172259204E+02  0.00000000000E+00 0.  1.
<mgrwt>
<rscale>  0 0.24728258E+04</rscale>
<asrwt>0</asrwt>
<pdfrwt beam="1">  1        1 0.12135325E+00 0.24728258E+04</pdfrwt>
<pdfrwt beam="2">  1       -1 0.29815969E+00 0.24728258E+04</pdfrwt>
<totfact> 0.68368690E-01</totfact>
</mgrwt>
</event>
<event>
12    1  0.1960998E-007  0.1789241E+04  0.7818608E-02  0.8712042E-01
          1   -1    0    0  501    0  0.00000000000E+00  0.00000000000E+00  0.28183319300E+04  0.28183319300E+04  0.00000000000E+00 0. -1.
         -1   -1    0    0    0  501 -0.00000000000E+00 -0.00000000000E+00 -0.28397845310E+03  0.28397845310E+03  0.00000000000E+00 0.  1.
         23    2    1    2    0    0  0.58284880938E+03 -0.31795795914E+03  0.90997752396E+03  0.11301215294E+04  0.91134947331E+02 0.  0.
        254    2    1    2    0    0 -0.58284880938E+03  0.31795795914E+03  0.16243759530E+04  0.19721888538E+04  0.90006757523E+03 0.  0.
        -24    2    4    4    0    0 -0.13210618046E+03  0.39191052969E+03  0.13882070216E+04  0.14506910577E+04  0.79623513509E+02 0.  0.
         24    2    4    4    0    0 -0.45074262892E+03 -0.73952570552E+02  0.23616893138E+03  0.52149779607E+03  0.86869367119E+02 0.  0.
         11    1    3    3    0    0  0.54554339427E+03 -0.30256654290E+03  0.88462587458E+03  0.10824634155E+04  0.00000000000E+00 0. -1.
        -11    1    3    3    0    0  0.37305415105E+02 -0.15391416240E+02  0.25351649381E+02  0.47658113857E+02  0.00000000000E+00 0.  1.
          2    1    6    6  502    0 -0.35480504550E+03 -0.54075303926E+02  0.14314343770E+03  0.38639462026E+03  0.00000000000E+00 0. -1.
          1    1    5    5  503    0 -0.84399859750E+02  0.15751013421E+03  0.68441461555E+03  0.70735856868E+03  0.00000000000E+00 0. -1.
         -2    1    5    5    0  503 -0.47706320710E+02  0.23440039547E+03  0.70379240603E+03  0.74333248901E+03  0.00000000000E+00 0.  1.
         -1    1    6    6    0  502 -0.95937583415E+02 -0.19877266626E+02  0.93025493682E+02  0.13510317581E+03  0.00000000000E+00 0.  1.
<mgrwt>
<rscale>  0 0.17892407E+04</rscale>
<asrwt>0</asrwt>
<pdfrwt beam="1">  1        1 0.43358951E+00 0.17892407E+04</pdfrwt>
<pdfrwt beam="2">  1       -1 0.43688995E-01 0.17892407E+04</pdfrwt>
<totfact> 0.39617059E+00</totfact>
</mgrwt>
</event>
<event>
12    1  0.1960998E-007  0.3384207E+04  0.7818608E-02  0.8141793E-01
         -3   -1    0    0    0  501 -0.00000000000E+00  0.00000000000E+00  0.25669922561E+04  0.25669922561E+04  0.00000000000E+00 0.  1.
          3   -1    0    0  501    0  0.00000000000E+00 -0.00000000000E+00 -0.11153963428E+04  0.11153963428E+04  0.00000000000E+00 0. -1.
         23    2    1    2    0    0  0.97540676162E+03 -0.95651258597E+03 -0.16960884371E+03  0.13796797751E+04  0.91730279771E+02 0.  0.
        254    2    1    2    0    0 -0.97540676162E+03  0.95651258597E+03  0.16212047570E+04  0.23027088237E+04  0.89879273752E+03 0.  0.
        -24    2    4    4    0    0 -0.67339880329E+03  0.10253212803E+04  0.15437301892E+04  0.19734264797E+04  0.80990727081E+02 0.  0.
         24    2    4    4    0    0 -0.30200795834E+03 -0.68808694346E+02  0.77474567853E+02  0.32928234400E+03  0.80505341975E+02 0.  0.
         11    1    3    3    0    0  0.36254166549E+03 -0.41709769929E+03 -0.58794761799E+02  0.55575513851E+03  0.00000000000E+00 0. -1.
        -11    1    3    3    0    0  0.61286509614E+03 -0.53941488668E+03 -0.11081408191E+03  0.82392463659E+03  0.00000000000E+00 0.  1.
          2    1    6    6  502    0 -0.17189405230E+03 -0.25600150262E+02  0.81876122046E+02  0.19211098946E+03  0.00000000000E+00 0. -1.
          3    1    5    5  503    0 -0.21947388322E+03  0.31084245364E+03  0.53639461284E+03  0.65765568278E+03  0.00000000000E+00 0. -1.
         -4    1    5    5    0  503 -0.45392492007E+03  0.71447882668E+03  0.10073355763E+04  0.13157707970E+04  0.00000000000E+00 0.  1.
         -1    1    6    6    0  502 -0.13011390604E+03 -0.43208544084E+02 -0.44015541922E+01  0.13717135454E+03  0.00000000000E+00 0.  1.
<mgrwt>
<rscale>  0 0.33842067E+04</rscale>
<asrwt>0</asrwt>
<pdfrwt beam="1">  1        3 0.17159944E+00 0.33842067E+04</pdfrwt>
<pdfrwt beam="2">  1       -3 0.39492188E+00 0.33842067E+04</pdfrwt>
<totfact> 0.54809649E-03</totfact>
</mgrwt>
</event>
<event>
12    1  0.1960998E-007  0.3072876E+04  0.7818608E-02  0.8223221E-01
         -1   -1    0    0    0  501 -0.00000000000E+00  0.00000000000E+00  0.33228248901E+04  0.33228248901E+04  0.00000000000E+00 0.  1.
          1   -1    0    0  501    0  0.00000000000E+00 -0.00000000000E+00 -0.71043224336E+03  0.71043224336E+03  0.00000000000E+00 0. -1.
         23    2    1    2    0    0 -0.12100313320E+04  0.67351716308E+03  0.90225176813E+03  0.16554984485E+04  0.93891780474E+02 0.  0.
        254    2    1    2    0    0  0.12100313320E+04 -0.67351716308E+03  0.17101408786E+04  0.23777586850E+04  0.90075154493E+03 0.  0.
        -24    2    4    4    0    0  0.57312052823E+01  0.16577694655E+03  0.18149531530E+03  0.25693908538E+03  0.74580837994E+02 0.  0.
         24    2    4    4    0    0  0.12043001268E+04 -0.83929410963E+03  0.15286455633E+04  0.21208195996E+04  0.79781689235E+02 0.  0.
         11    1    3    3    0    0 -0.58184675694E+03  0.32672117581E+03  0.37895457769E+03  0.76739751579E+03  0.00000000000E+00 0. -1.
        -11    1    3    3    0    0 -0.62818457511E+03  0.34679598727E+03  0.52329719043E+03  0.88810093272E+03  0.00000000000E+00 0.  1.
          4    1    6    6  502    0  0.87173846531E+03 -0.62929246614E+03  0.11624226794E+04  0.15834024900E+04  0.00000000000E+00 0. -1.
          1    1    5    5  503    0 -0.13128634750E+02  0.15910312484E+03  0.14674539489E+03  0.21684182324E+03  0.00000000000E+00 0. -1.
         -2    1    5    5    0  503  0.18859840032E+02  0.66738217105E+01  0.34749920411E+02  0.40097262136E+02  0.00000000000E+00 0.  1.
         -3    1    6    6    0  502  0.33256166146E+03 -0.21000164349E+03  0.36622288393E+03  0.53741710956E+03  0.00000000000E+00 0.  1.
<mgrwt>
<rscale>  0 0.30728761E+04</rscale>
<asrwt>0</asrwt>
<pdfrwt beam="1">  1        1 0.10929727E+00 0.30728761E+04</pdfrwt>
<pdfrwt beam="2">  1       -1 0.51120382E+00 0.30728761E+04</pdfrwt>
<totfact> 0.28391551E-02</totfact>
</mgrwt>
</event>
<event>
12    1  0.1960998E-007  0.1236953E+04  0.7818608E-02  0.9081112E-01
          2   -1    0    0  501    0  0.00000000000E+00  0.00000000000E+00  0.19371534945E+04  0.19371534945E+04  0.00000000000E+00 0. -1.
         -2   -1    0    0    0  501 -0.00000000000E+00 -0.00000000000E+00 -0.19746162254E+03  0.19746162254E+03  0.00000000000E+00 0.  1.
         23    2    1    2    0    0  0.27525591424E+03 -0.40762610455E+02  0.48709178751E+03  0.56772635742E+03  0.87334979919E+02 0.  0.
        254    2    1    2    0    0 -0.27525591424E+03  0.40762610455E+02  0.12526000845E+04  0.15668887596E+04  0.89928082638E+03 0.  0.
        -24    2    4    4    0    0 -0.58450939908E+03 -0.25372737263E+02  0.62620670215E+03  0.86052638839E+03  0.77947532868E+02 0.  0.
         24    2    4    4    0    0  0.30925348484E+03  0.66135347718E+02  0.62639338233E+03  0.70636237125E+03  0.81040286234E+02 0.  0.
         13    1    3    3    0    0  0.18436112347E+03 -0.57225702654E+02  0.38058481047E+03  0.42674184567E+03  0.00000000000E+00 0. -1.
        -13    1    3    3    0    0  0.90894790772E+02  0.16463092199E+02  0.10650697704E+03  0.14098451175E+03  0.00000000000E+00 0.  1.
          4    1    6    6  502    0  0.30496359424E+03  0.52766518995E+02  0.57401904771E+03  0.65213876320E+03  0.00000000000E+00 0. -1.
          3    1    5    5  503    0 -0.52144391131E+03 -0.43225487091E+02  0.53624571975E+03  0.74922070669E+03  0.00000000000E+00 0. -1.
         -4    1    5    5    0  503 -0.63065487767E+02  0.17852749828E+02  0.89960982398E+02  0.11130568170E+03  0.00000000000E+00 0.  1.
         -3    1    6    6    0  502  0.42898905923E+01  0.13368828723E+02  0.52374334620E+02  0.54223608046E+02  0.00000000000E+00 0.  1.
<mgrwt>
<rscale>  0 0.12369535E+04</rscale>
<asrwt>0</asrwt>
<pdfrwt beam="1">  1        2 0.29802360E+00 0.12369535E+04</pdfrwt>
<pdfrwt beam="2">  1       -2 0.30378712E-01 0.12369535E+04</pdfrwt>
<totfact> 0.71453615E+01</totfact>
</mgrwt>
</event>
<event>
12    1  0.1960998E-007  0.4342814E+04  0.7818608E-02  0.7938748E-01
          2   -1    0    0  501    0  0.00000000000E+00  0.00000000000E+00  0.16308213281E+04  0.16308213281E+04  0.00000000000E+00 0. -1.
         -2   -1    0    0    0  501 -0.00000000000E+00 -0.00000000000E+00 -0.28911868896E+04  0.28911868896E+04  0.00000000000E+00 0.  1.
         23    2    1    2    0    0 -0.16453021443E+04 -0.12153613415E+04 -0.97700813440E+03  0.22687001398E+04  0.91285776806E+02 0.  0.
        254    2    1    2    0    0  0.16453021443E+04  0.12153613415E+04 -0.28335742703E+03  0.22533080779E+04  0.90165599082E+03 0.  0.
        -24    2    4    4    0    0  0.12951406882E+04  0.10894010818E+04  0.11981201727E+03  0.16986712200E+04  0.83335915580E+02 0.  0.
         24    2    4    4    0    0  0.35016145610E+03  0.12596025969E+03 -0.40316944430E+03  0.55463685786E+03  0.81224447848E+02 0.  0.
         11    1    3    3    0    0 -0.80312100003E+03 -0.56108338087E+03 -0.42621341037E+03  0.10683986953E+04  0.00000000000E+00 0. -1.
        -11    1    3    3    0    0 -0.84218114430E+03 -0.65427796064E+03 -0.55079472403E+03  0.12003014445E+04  0.00000000000E+00 0.  1.
          2    1    6    6  502    0  0.25072421222E+03  0.59678561469E+02 -0.23831547053E+03  0.35102482075E+03  0.00000000000E+00 0. -1.
          1    1    5    5  503    0  0.78923258782E+03  0.69123817993E+03  0.39528503216E+02  0.10498860898E+04  0.00000000000E+00 0. -1.
         -2    1    5    5    0  503  0.50590810041E+03  0.39816290189E+03  0.80283514050E+02  0.64878513017E+03  0.00000000000E+00 0.  1.
         -1    1    6    6    0  502  0.99437243884E+02  0.66281698223E+02 -0.16485397376E+03  0.20361203711E+03  0.00000000000E+00 0.  1.
<mgrwt>
<rscale>  0 0.43428144E+04</rscale>
<asrwt>0</asrwt>
<pdfrwt beam="1">  1        2 0.25089559E+00 0.43428144E+04</pdfrwt>
<pdfrwt beam="2">  1       -2 0.44479798E+00 0.43428144E+04</pdfrwt>
<totfact> 0.30923184E-02</totfact>
</mgrwt>
</event>
<event>
12    1  0.1960998E-007  0.2123732E+04  0.7818608E-02  0.8550861E-01
         -2   -1    0    0    0  501 -0.00000000000E+00  0.00000000000E+00  0.11903719260E+04  0.11903719260E+04  0.00000000000E+00 0.  1.
          2   -1    0    0  501    0  0.00000000000E+00 -0.00000000000E+00 -0.94723313215E+03  0.94723313215E+03  0.00000000000E+00 0. -1.
         23    2    1    2    0    0 -0.76666771081E+03  0.35010494070E+03 -0.12484210094E+03  0.85721547704E+03  0.94233622443E+02 0.  0.
        254    2    1    2    0    0  0.76666771081E+03 -0.35010494070E+03  0.36798089478E+03  0.12803895811E+04  0.89086176940E+03 0.  0.
        -24    2    4    4    0    0  0.78506593276E+03 -0.21290106776E+03 -0.64432169034E+02  0.81976402877E+03  0.78779280444E+02 0.  0.
         24    2    4    4    0    0 -0.18398221944E+02 -0.13720387294E+03  0.43241306381E+03  0.46062555234E+03  0.77662374357E+02 0.  0.
         11    1    3    3    0    0 -0.50650929703E+03  0.18811584592E+03 -0.10235300716E+03  0.54992306511E+03  0.00000000000E+00 0. -1.
        -11    1    3    3    0    0 -0.26015841379E+03  0.16198909478E+03 -0.22489093776E+02  0.30729241193E+03  0.00000000000E+00 0.  1.
          2    1    6    6  502    0 -0.39155485157E+02 -0.64974234483E+02  0.14619225649E+03  0.16470269889E+03  0.00000000000E+00 0. -1.
          1    1    5    5  503    0  0.22260936216E+02 -0.40599341085E+00  0.10033223851E+02  0.24420886403E+02  0.00000000000E+00 0. -1.
         -2    1    5    5    0  503  0.76280499654E+03 -0.21249507435E+03 -0.74465392885E+02  0.79534314236E+03  0.00000000000E+00 0.  1.
         -1    1    6    6    0  502  0.20757263213E+02 -0.72229638460E+02  0.28622080732E+03  0.29592285345E+03  0.00000000000E+00 0.  1.
<mgrwt>
<rscale>  0 0.21237323E+04</rscale>
<asrwt>0</asrwt>
<pdfrwt beam="1">  1        2 0.14572817E+00 0.21237323E+04</pdfrwt>
<pdfrwt beam="2">  1       -2 0.18313414E+00 0.21237323E+04</pdfrwt>
<totfact> 0.43255548E+00</totfact>
</mgrwt>
</event>
<event>
12    1  0.1960998E-007  0.1541591E+04  0.7818608E-02  0.8857257E-01
          1   -1    0    0  501    0  0.00000000000E+00  0.00000000000E+00  0.35514993024E+03  0.35514993024E+03  0.00000000000E+00 0. -1.
         -1   -1    0    0    0  501 -0.00000000000E+00 -0.00000000000E+00 -0.16728876721E+04  0.16728876721E+04  0.00000000000E+00 0.  1.
         23    2    1    2    0    0  0.25811952334E+03  0.35356193409E+03 -0.76522142701E+03  0.88598075751E+03  0.88126844662E+02 0.  0.
        254    2    1    2    0    0 -0.25811952334E+03 -0.35356193409E+03 -0.55251631488E+03  0.11420568449E+04  0.89854762208E+03 0.  0.
        -24    2    4    4    0    0 -0.19962285094E+03 -0.63577285809E+03 -0.25210132295E+03  0.71682108998E+03  0.78873241967E+02 0.  0.
         24    2    4    4    0    0 -0.58496672405E+02  0.28221092400E+03 -0.30041499193E+03  0.42523575489E+03  0.86668411532E+02 0.  0.
         11    1    3    3    0    0  0.15719025830E+03  0.25956731535E+03 -0.58521535249E+03  0.65921239164E+03  0.00000000000E+00 0.  1.
        -11    1    3    3    0    0  0.10092926504E+03  0.93994618743E+02 -0.18000607453E+03  0.22676836587E+03  0.00000000000E+00 0. -1.
          2    1    6    6  502    0 -0.44444889221E+02  0.10621389026E+03 -0.17174218082E+03  0.20676584664E+03  0.00000000000E+00 0. -1.
          1    1    5    5  503    0 -0.54673136105E+02 -0.15967772406E+03 -0.10111749231E+03  0.19675079320E+03  0.00000000000E+00 0. -1.
         -2    1    5    5    0  503 -0.14494971483E+03 -0.47609513403E+03 -0.15098383065E+03  0.52007029678E+03  0.00000000000E+00 0.  1.
         -1    1    6    6    0  502 -0.14051783184E+02  0.17599703374E+03 -0.12867281111E+03  0.21846990826E+03  0.00000000000E+00 0.  1.
<mgrwt>
<rscale>  0 0.15415913E+04</rscale>
<asrwt>0</asrwt>
<pdfrwt beam="1">  1        1 0.54638450E-01 0.15415913E+04</pdfrwt>
<pdfrwt beam="2">  1       -1 0.25736734E+00 0.15415913E+04</pdfrwt>
<totfact> 0.42304603E+00</totfact>
</mgrwt>
</event>
<event>
12    1  0.1960998E-007  0.1326191E+04  0.7818608E-02  0.9009050E-01
         -2   -1    0    0    0  501 -0.00000000000E+00  0.00000000000E+00  0.75556644181E+03  0.75556644181E+03  0.00000000000E+00 0.  1.
          2   -1    0    0  501    0  0.00000000000E+00 -0.00000000000E+00 -0.58194149030E+03  0.58194149030E+03  0.00000000000E+00 0. -1.
         23    2    1    2    0    0 -0.60423399791E+02  0.27458364337E+03  0.25748351428E+03  0.39165451948E+03  0.89712530081E+02 0.  0.
        254    2    1    2    0    0  0.60423399791E+02 -0.27458364337E+03 -0.83858562769E+02  0.94585341263E+03  0.89919922997E+03 0.  0.
        -24    2    4    4    0    0  0.18892455204E+03  0.11744829141E+03  0.29627705836E+03  0.37918946570E+03  0.80733933850E+02 0.  0.
         24    2    4    4    0    0 -0.12850115224E+03 -0.39203193479E+03 -0.38013562113E+03  0.56666394692E+03  0.80020961451E+02 0.  0.
         11    1    3    3    0    0 -0.54782796708E+02  0.24956652679E+03  0.26160548878E+03  0.36568023992E+03  0.00000000000E+00 0.  1.
        -11    1    3    3    0    0 -0.56406030830E+01  0.25017116581E+02 -0.41219744913E+01  0.25974279564E+02  0.00000000000E+00 0. -1.
          2    1    6    6  502    0 -0.53354726881E+02 -0.65610395007E+02 -0.63718184087E+02  0.10588417161E+03  0.00000000000E+00 0. -1.
          1    1    5    5  503    0  0.67272316866E+02  0.47301792367E+02  0.51621030223E+02  0.97096626815E+02  0.00000000000E+00 0. -1.
         -2    1    5    5    0  503  0.12165223517E+03  0.70146499045E+02  0.24465602813E+03  0.28209283889E+03  0.00000000000E+00 0.  1.
         -1    1    6    6    0  502 -0.75146425363E+02 -0.32642153978E+03 -0.31641743704E+03  0.46077977531E+03  0.00000000000E+00 0.  1.
<mgrwt>
<rscale>  0 0.13261907E+04</rscale>
<asrwt>0</asrwt>
<pdfrwt beam="1">  1        2 0.89529460E-01 0.13261907E+04</pdfrwt>
<pdfrwt beam="2">  1       -2 0.11624099E+00 0.13261907E+04</pdfrwt>
<totfact> 0.28915039E+01</totfact>
</mgrwt>
</event>
<event>
12    1  0.1960998E-007  0.4560653E+04  0.7818608E-02  0.7900103E-01
          1   -1    0    0  501    0  0.00000000000E+00  0.00000000000E+00  0.19394330549E+04  0.19394330549E+04  0.00000000000E+00 0. -1.
         -1   -1    0    0    0  501 -0.00000000000E+00 -0.00000000000E+00 -0.26811389023E+04  0.26811389023E+04  0.00000000000E+00 0.  1.
         23    2    1    2    0    0  0.48255463088E+03 -0.10282049726E+04 -0.22543098734E+04  0.25258899721E+04  0.90236956297E+02 0.  0.
        254    2    1    2    0    0 -0.48255463088E+03  0.10282049726E+04  0.15126040260E+04  0.20946819852E+04  0.89980955872E+03 0.  0.
        -24    2    4    4    0    0 -0.47006240779E+03  0.30347460109E+03  0.11480218220E+04  0.12793902022E+04  0.76352373044E+02 0.  0.
         24    2    4    4    0    0 -0.12492223089E+02  0.72473037148E+03  0.36458220400E+03  0.81529178297E+03  0.79939607911E+02 0.  0.
         13    1    3    3    0    0  0.18258259368E+03 -0.33006069920E+03 -0.67329509555E+03  0.77175303975E+03  0.00000000000E+00 0. -1.
        -13    1    3    3    0    0  0.29997203720E+03 -0.69814427337E+03 -0.15810147779E+04  0.17541369323E+04  0.00000000000E+00 0.  1.
          2    1    6    6  502    0  0.80389096980E+01  0.70547739372E+02  0.12496867736E+02  0.72095626101E+02  0.00000000000E+00 0. -1.
          3    1    5    5  503    0 -0.17227428273E+03  0.11974195187E+03  0.35065114583E+03  0.40862304096E+03  0.00000000000E+00 0. -1.
         -4    1    5    5    0  503 -0.29778812507E+03  0.18373264922E+03  0.79737067620E+03  0.87076716123E+03  0.00000000000E+00 0.  1.
         -1    1    6    6    0  502 -0.20531132787E+02  0.65418263211E+03  0.35208533626E+03  0.74319615686E+03  0.00000000000E+00 0.  1.
<mgrwt>
<rscale>  0 0.45606532E+04</rscale>
<asrwt>0</asrwt>
<pdfrwt beam="1">  1        1 0.29837432E+00 0.45606532E+04</pdfrwt>
<pdfrwt beam="2">  1       -1 0.41248291E+00 0.45606532E+04</pdfrwt>
<totfact> 0.14389250E-02</totfact>
</mgrwt>
</event>
<event>
12    1  0.1960998E-007  0.1275864E+04  0.7818608E-02  0.9048927E-01
          2   -1    0    0  501    0  0.00000000000E+00  0.00000000000E+00  0.31187977750E+04  0.31187977750E+04  0.00000000000E+00 0. -1.
         -2   -1    0    0    0  501 -0.00000000000E+00 -0.00000000000E+00 -0.13048526655E+03  0.13048526655E+03  0.00000000000E+00 0.  1.
         23    2    1    2    0    0  0.22857234673E+03 -0.61891665798E+02  0.24851039998E+03  0.35493601300E+03  0.90256625456E+02 0.  0.
        254    2    1    2    0    0 -0.22857234673E+03  0.61891665798E+02  0.27398021085E+04  0.28943470286E+04  0.90258142687E+03 0.  0.
        -24    2    4    4    0    0  0.11991587270E+03 -0.56297171096E+02  0.29207369829E+02  0.15787192371E+03  0.80754478794E+02 0.  0.
         24    2    4    4    0    0 -0.34848821943E+03  0.11818883689E+03  0.27105947387E+04  0.27364751049E+04  0.74562202196E+02 0.  0.
         13    1    3    3    0    0  0.12071752889E+00  0.11849540399E+02  0.21448897500E+02  0.24504721675E+02  0.00000000000E+00 0. -1.
        -13    1    3    3    0    0  0.22845162920E+03 -0.73741206198E+02  0.22706150248E+03  0.33043129132E+03  0.00000000000E+00 0.  1.
          4    1    6    6  502    0 -0.30077354753E+03  0.75174542591E+02  0.23221585023E+04  0.23427624823E+04  0.00000000000E+00 0. -1.
          1    1    5    5  503    0  0.88038485693E+02 -0.66568409619E+02  0.46982235788E+02  0.11995606947E+03  0.00000000000E+00 0. -1.
         -2    1    5    5    0  503  0.31877387010E+02  0.10271238523E+02 -0.17774865959E+02  0.37915854247E+02  0.00000000000E+00 0.  1.
         -3    1    6    6    0  502 -0.47714671900E+02  0.43014294303E+02  0.38843623636E+03  0.39371262254E+03  0.00000000000E+00 0.  1.
<mgrwt>
<rscale>  0 0.12758639E+04</rscale>
<asrwt>0</asrwt>
<pdfrwt beam="1">  1        2 0.47981499E+00 0.12758639E+04</pdfrwt>
<pdfrwt beam="2">  1       -2 0.20074659E-01 0.12758639E+04</pdfrwt>
<totfact> 0.30950123E+01</totfact>
</mgrwt>
</event>
<event>
12    1  0.1960998E-007  0.4098872E+04  0.7818608E-02  0.7984893E-01
          1   -1    0    0  501    0  0.00000000000E+00  0.00000000000E+00  0.15089617286E+04  0.15089617286E+04  0.00000000000E+00 0. -1.
         -1   -1    0    0    0  501 -0.00000000000E+00 -0.00000000000E+00 -0.27834947944E+04  0.27834947944E+04  0.00000000000E+00 0.  1.
         23    2    1    2    0    0  0.64436058320E+03 -0.14986133298E+04 -0.17210113573E+04  0.23732597939E+04  0.97157006984E+02 0.  0.
        254    2    1    2    0    0 -0.64436058320E+03  0.14986133298E+04  0.44647829153E+03  0.19191967291E+04  0.90715530475E+03 0.  0.
        -24    2    4    4    0    0 -0.56015387230E+03  0.29187772966E+03  0.28033595044E+03  0.69563632669E+03  0.79728816474E+02 0.  0.
         24    2    4    4    0    0 -0.84206710895E+02  0.12067356001E+04  0.16614234109E+03  0.12235604024E+04  0.78709606570E+02 0.  0.
         11    1    3    3    0    0  0.22988421156E+03 -0.65092968367E+03 -0.70697281598E+03  0.98811272957E+03  0.00000000000E+00 0. -1.
        -11    1    3    3    0    0  0.41447637164E+03 -0.84768364610E+03 -0.10140385413E+04  0.13851470643E+04  0.00000000000E+00 0.  1.
          4    1    6    6  502    0 -0.52461389468E+02  0.99125845679E+03  0.11060941762E+03  0.99878925145E+03  0.00000000000E+00 0. -1.
          3    1    5    5  503    0 -0.44364977569E+03  0.23410532517E+03  0.18608488053E+03  0.53503084912E+03  0.00000000000E+00 0. -1.
         -4    1    5    5    0  503 -0.11650409661E+03  0.57772404484E+02  0.94251069910E+02  0.16060547757E+03  0.00000000000E+00 0.  1.
         -3    1    6    6    0  502 -0.31745321427E+02  0.21547714332E+03  0.55532923469E+02  0.22477115099E+03  0.00000000000E+00 0.  1.
<mgrwt>
<rscale>  0 0.40988716E+04</rscale>
<asrwt>0</asrwt>
<pdfrwt beam="1">  1        1 0.23214796E+00 0.40988716E+04</pdfrwt>
<pdfrwt beam="2">  1       -1 0.42822997E+00 0.40988716E+04</pdfrwt>
<totfact> 0.22894595E-02</totfact>
</mgrwt>
</event>
<event>
12    1  0.1960998E-007  0.1125790E+04  0.7818608E-02  0.9180414E-01
          1   -1    0    0  501    0  0.00000000000E+00  0.00000000000E+00  0.32906612570E+03  0.32906612570E+03  0.00000000000E+00 0. -1.
         -1   -1    0    0    0  501 -0.00000000000E+00 -0.00000000000E+00 -0.96287840361E+03  0.96287840361E+03  0.00000000000E+00 0.  1.
         23    2    1    2    0    0 -0.19291274306E+02 -0.17918479730E+03 -0.65527915076E+02  0.21180394153E+03  0.89931402447E+02 0.  0.
        254    2    1    2    0    0  0.19291274306E+02  0.17918479730E+03 -0.56828436283E+03  0.10801405878E+04  0.90070929133E+03 0.  0.
        -24    2    4    4    0    0  0.14171978442E+02 -0.36177891603E+03 -0.25619668176E+03  0.45071420975E+03  0.80135697838E+02 0.  0.
         24    2    4    4    0    0  0.51192958639E+01  0.54096371333E+03 -0.31208768106E+03  0.62942637803E+03  0.78172235217E+02 0.  0.
         11    1    3    3    0    0 -0.19526463229E+02 -0.58952877710E+02 -0.67278049676E+02  0.91559054848E+02  0.00000000000E+00 0.  1.
        -11    1    3    3    0    0  0.23518892295E+00 -0.12023191959E+03  0.17501346007E+01  0.12024488668E+03  0.00000000000E+00 0. -1.
          4    1    6    6  502    0 -0.97855998176E+01  0.31447851841E+03 -0.22276238069E+03  0.38550690624E+03  0.00000000000E+00 0. -1.
          1    1    5    5  503    0 -0.29438658217E+02 -0.72634271992E+02 -0.56525107727E+02  0.96630532799E+02  0.00000000000E+00 0. -1.
         -2    1    5    5    0  503  0.43610636659E+02 -0.28914464404E+03 -0.19967157404E+03  0.35408367695E+03  0.00000000000E+00 0.  1.
         -3    1    6    6    0  502  0.14904895681E+02  0.22648519492E+03 -0.89325300371E+02  0.24391947179E+03  0.00000000000E+00 0.  1.
<mgrwt>
<rscale>  0 0.11257898E+04</rscale>
<asrwt>0</asrwt>
<pdfrwt beam="1">  1        1 0.50625558E-01 0.11257898E+04</pdfrwt>
<pdfrwt beam="2">  1       -1 0.14813514E+00 0.11257898E+04</pdfrwt>
<totfact> 0.27885515E+01</totfact>
</mgrwt>
</event>
<event>
12    1  0.1960998E-007  0.1757215E+04  0.7818608E-02  0.8729389E-01
          3   -1    0    0  501    0  0.00000000000E+00  0.00000000000E+00  0.10649128139E+04  0.10649128139E+04  0.00000000000E+00 0. -1.
         -3   -1    0    0    0  501 -0.00000000000E+00 -0.00000000000E+00 -0.72489645319E+03  0.72489645319E+03  0.00000000000E+00 0.  1.
         23    2    1    2    0    0  0.52987815583E+03 -0.17631124051E+03  0.45432514512E+03  0.72560664487E+03  0.90758757342E+02 0.  0.
        254    2    1    2    0    0 -0.52987815583E+03  0.17631124051E+03 -0.11430878444E+03  0.10642026222E+04  0.89866801954E+03 0.  0.
        -24    2    4    4    0    0 -0.16675534537E+03 -0.48338795054E+02  0.36820731839E+03  0.41490422861E+03  0.80155506895E+02 0.  0.
         24    2    4    4    0    0 -0.36312281046E+03  0.22465003556E+03 -0.48251610283E+03  0.64929839360E+03  0.80254597887E+02 0.  0.
         13    1    3    3    0    0  0.99646468015E+02 -0.35070336237E+01  0.55992078517E+02  0.11435397120E+03  0.00000000000E+00 0.  1.
        -13    1    3    3    0    0  0.43023168782E+03 -0.17280420689E+03  0.39833306661E+03  0.61125267367E+03  0.00000000000E+00 0. -1.
          4    1    6    6  502    0 -0.60351340854E+01  0.85644976291E+01 -0.38539330149E+02  0.39938120028E+02  0.00000000000E+00 0. -1.
          3    1    5    5  503    0 -0.44177376780E+02 -0.37116740944E+02  0.61056457193E+02  0.84007047576E+02  0.00000000000E+00 0. -1.
         -4    1    5    5    0  503 -0.12257796859E+03 -0.11222054110E+02  0.30715086120E+03  0.33089718103E+03  0.00000000000E+00 0.  1.
         -3    1    6    6    0  502 -0.35708767638E+03  0.21608553794E+03 -0.44397677268E+03  0.60936027357E+03  0.00000000000E+00 0.  1.
<mgrwt>
<rscale>  0 0.17572154E+04</rscale>
<asrwt>0</asrwt>
<pdfrwt beam="1">  1        3 0.16383274E+00 0.17572154E+04</pdfrwt>
<pdfrwt beam="2">  1       -3 0.11152253E+00 0.17572154E+04</pdfrwt>
<totfact> 0.42897026E-01</totfact>
</mgrwt>
</event>
<event>
12    1  0.1960998E-007  0.1784051E+04  0.7818608E-02  0.8714827E-01
          1   -1    0    0  501    0  0.00000000000E+00  0.00000000000E+00  0.11819023748E+04  0.11819023748E+04  0.00000000000E+00 0. -1.
         -1   -1    0    0    0  501 -0.00000000000E+00 -0.00000000000E+00 -0.67324469791E+03  0.67324469791E+03  0.00000000000E+00 0.  1.
         23    2    1    2    0    0  0.46127015309E+03 -0.16139950660E+03 -0.27755625577E+03  0.56894316067E+03  0.88537506710E+02 0.  0.
        254    2    1    2    0    0 -0.46127015309E+03  0.16139950660E+03  0.78621393269E+03  0.12862039121E+04  0.89295475842E+03 0.  0.
        -24    2    4    4    0    0  0.12286897111E+03 -0.13105843363E+03  0.55386072377E+03  0.58847853384E+03  0.85277115144E+02 0.  0.
         24    2    4    4    0    0 -0.58413912421E+03  0.29245794023E+03  0.23235320892E+03  0.69772537822E+03  0.77990553870E+02 0.  0.
         13    1    3    3    0    0  0.19554795344E+03 -0.86670163216E+02 -0.16793253074E+03  0.27194126970E+03  0.00000000000E+00 0.  1.
        -13    1    3    3    0    0  0.26572219966E+03 -0.74729343380E+02 -0.10962372503E+03  0.29700189097E+03  0.00000000000E+00 0. -1.
          4    1    6    6  502    0 -0.14087617380E+03  0.34985954873E+02  0.57053226620E+02  0.15596532964E+03  0.00000000000E+00 0. -1.
          3    1    5    5  503    0  0.79657538329E+02 -0.68071108916E+02  0.43304521968E+03  0.44554142520E+03  0.00000000000E+00 0. -1.
         -2    1    5    5    0  503  0.43211432785E+02 -0.62987324713E+02  0.12081550409E+03  0.14293710864E+03  0.00000000000E+00 0.  1.
         -3    1    6    6    0  502 -0.44326295041E+03  0.25747198535E+03  0.17529998230E+03  0.54176004858E+03  0.00000000000E+00 0.  1.
<mgrwt>
<rscale>  0 0.17840510E+04</rscale>
<asrwt>0</asrwt>
<pdfrwt beam="1">  1        1 0.18183113E+00 0.17840510E+04</pdfrwt>
<pdfrwt beam="2">  1       -1 0.10357611E+00 0.17840510E+04</pdfrwt>
<totfact> 0.91502841E+00</totfact>
</mgrwt>
</event>
<event>
12    1  0.1960998E-007  0.1963674E+04  0.7818608E-02  0.8623795E-01
         -1   -1    0    0    0  501 -0.00000000000E+00  0.00000000000E+00  0.45698206718E+03  0.45698206718E+03  0.00000000000E+00 0.  1.
          1   -1    0    0  501    0  0.00000000000E+00 -0.00000000000E+00 -0.21094998697E+04  0.21094998697E+04  0.00000000000E+00 0. -1.
         23    2    1    2    0    0  0.54014723811E+03 -0.30444315578E+03 -0.53796227434E+02  0.62890157486E+03  0.90434964659E+02 0.  0.
        254    2    1    2    0    0 -0.54014723811E+03  0.30444315578E+03 -0.15987215750E+04  0.19375803620E+04  0.90214317638E+03 0.  0.
        -24    2    4    4    0    0 -0.66297235726E+03  0.92901874979E+02 -0.15297299662E+04  0.16717048228E+04  0.79750486975E+02 0.  0.
         24    2    4    4    0    0  0.12282511915E+03  0.21154128081E+03 -0.68991608846E+02  0.26587553920E+03  0.78065593398E+02 0.  0.
         11    1    3    3    0    0  0.39266531374E+03 -0.17838031701E+03 -0.18357669451E+02  0.43167417126E+03  0.00000000000E+00 0.  1.
        -11    1    3    3    0    0  0.14748192437E+03 -0.12606283878E+03 -0.35438557983E+02  0.19722740360E+03  0.00000000000E+00 0. -1.
          4    1    6    6  502    0  0.36708906135E+02  0.42983918856E+02 -0.50313634168E+02  0.75674453107E+02  0.00000000000E+00 0. -1.
          3    1    5    5  503    0 -0.32903957439E+03  0.66517166458E+02 -0.68044793655E+03  0.75874960910E+03  0.00000000000E+00 0. -1.
         -4    1    5    5    0  503 -0.33393278287E+03  0.26384708521E+02 -0.84928202965E+03  0.91295521369E+03  0.00000000000E+00 0.  1.
         -3    1    6    6    0  502  0.86116213016E+02  0.16855736195E+03 -0.18677974678E+02  0.19020108609E+03  0.00000000000E+00 0.  1.
<mgrwt>
<rscale>  0 0.19636737E+04</rscale>
<asrwt>0</asrwt>
<pdfrwt beam="1">  1        1 0.32453844E+00 0.19636737E+04</pdfrwt>
<pdfrwt beam="2">  1       -1 0.70304933E-01 0.19636737E+04</pdfrwt>
<totfact> 0.47777891E+00</totfact>
</mgrwt>
</event>
<event>
12    1  0.1960998E-007  0.1795011E+04  0.7818608E-02  0.8708957E-01
          1   -1    0    0  501    0  0.00000000000E+00  0.00000000000E+00  0.21155331748E+04  0.21155331748E+04  0.00000000000E+00 0. -1.
         -1   -1    0    0    0  501 -0.00000000000E+00 -0.00000000000E+00 -0.38076261795E+03  0.38076261795E+03  0.00000000000E+00 0.  1.
         23    2    1    2    0    0 -0.28952177920E+03  0.57762025121E+03  0.41925134873E+03  0.77596604524E+03  0.94252823352E+02 0.  0.
        254    2    1    2    0    0  0.28952177920E+03 -0.57762025121E+03  0.13155192081E+04  0.17203297475E+04  0.90081942585E+03 0.  0.
        -24    2    4    4    0    0  0.47083914009E+03 -0.68052409345E+03  0.77604533497E+03  0.11372956619E+04  0.79953255439E+02 0.  0.
         24    2    4    4    0    0 -0.18131736089E+03  0.10290384223E+03  0.53947387315E+03  0.58303408560E+03  0.73698704590E+02 0.  0.
         13    1    3    3    0    0 -0.18458069238E+03  0.39807768814E+03  0.23311103556E+03  0.49686681585E+03  0.00000000000E+00 0.  1.
        -13    1    3    3    0    0 -0.10494108682E+03  0.17954256307E+03  0.18614031317E+03  0.27909922939E+03  0.00000000000E+00 0. -1.
          4    1    6    6  502    0 -0.16094148750E+03  0.10948119314E+03  0.43766110326E+03  0.47899429574E+03  0.00000000000E+00 0. -1.
          1    1    5    5  503    0  0.34666661161E+03 -0.54027871312E+03  0.56559173906E+03  0.85555411444E+03  0.00000000000E+00 0. -1.
         -2    1    5    5    0  503  0.12417252848E+03 -0.14024538033E+03  0.21045359591E+03  0.28174154746E+03  0.00000000000E+00 0.  1.
         -3    1    6    6    0  502 -0.20375873391E+02 -0.65773509040E+01  0.10181276989E+03  0.10403978986E+03  0.00000000000E+00 0.  1.
<mgrwt>
<rscale>  0 0.17950108E+04</rscale>
<asrwt>0</asrwt>
<pdfrwt beam="1">  1        1 0.32546664E+00 0.17950108E+04</pdfrwt>
<pdfrwt beam="2">  1       -1 0.58578865E-01 0.17950108E+04</pdfrwt>
<totfact> 0.69358980E+00</totfact>
</mgrwt>
</event>
<event>
12    1  0.1960998E-007  0.1650772E+04  0.7818608E-02  0.8789950E-01
         -1   -1    0    0    0  501 -0.00000000000E+00  0.00000000000E+00  0.24890528126E+03  0.24890528126E+03  0.00000000000E+00 0.  1.
          1   -1    0    0  501    0  0.00000000000E+00 -0.00000000000E+00 -0.27370323585E+04  0.27370323585E+04  0.00000000000E+00 0. -1.
         23    2    1    2    0    0 -0.27805214099E+03 -0.48183631182E+03 -0.63586046354E+03  0.85161931511E+03  0.10704066648E+03 0.  0.
        254    2    1    2    0    0  0.27805214099E+03  0.48183631182E+03 -0.18522666137E+04  0.21343183246E+04  0.90274242074E+03 0.  0.
        -24    2    4    4    0    0  0.15860007722E+03  0.56899882097E+03 -0.18734446781E+04  0.19660152799E+04  0.80668927908E+02 0.  0.
         24    2    4    4    0    0  0.11945206377E+03 -0.87162509149E+02  0.21178064450E+02  0.16830304475E+03  0.77532611981E+02 0.  0.
         11    1    3    3    0    0 -0.26188707480E+03 -0.38271070698E+03 -0.55064396184E+03  0.71990353374E+03  0.00000000000E+00 0. -1.
        -11    1    3    3    0    0 -0.16165066191E+02 -0.99125604836E+02 -0.85216501702E+02  0.13171578137E+03  0.00000000000E+00 0.  1.
          4    1    6    6  502    0  0.10667260331E+03 -0.90563855397E+02  0.39783063601E+02  0.14547696846E+03  0.00000000000E+00 0. -1.
          1    1    5    5  503    0  0.10339847924E+03  0.27426582034E+03 -0.10279613044E+04  0.10689328459E+04  0.00000000000E+00 0. -1.
         -2    1    5    5    0  503  0.55201597984E+02  0.29473300063E+03 -0.84548337372E+03  0.89708243396E+03  0.00000000000E+00 0.  1.
         -1    1    6    6    0  502  0.12779460455E+02  0.34013462479E+01 -0.18604999150E+02  0.22826076299E+02  0.00000000000E+00 0.  1.
<mgrwt>
<rscale>  0 0.16507717E+04</rscale>
<asrwt>0</asrwt>
<pdfrwt beam="1">  1        1 0.42108190E+00 0.16507717E+04</pdfrwt>
<pdfrwt beam="2">  1       -1 0.38293120E-01 0.16507717E+04</pdfrwt>
<totfact> 0.58397437E+00</totfact>
</mgrwt>
</event>
<event>
12    1  0.1960998E-007  0.3004538E+04  0.7818608E-02  0.8242436E-01
          2   -1    0    0  501    0  0.00000000000E+00  0.00000000000E+00  0.22836707662E+04  0.22836707662E+04  0.00000000000E+00 0. -1.
         -2   -1    0    0    0  501 -0.00000000000E+00 -0.00000000000E+00 -0.98823871996E+03  0.98823871996E+03  0.00000000000E+00 0.  1.
         23    2    1    2    0    0 -0.35937169563E+03 -0.12929366472E+04  0.86585336998E+03  0.15996912906E+04  0.92070504811E+02 0.  0.
        254    2    1    2    0    0  0.35937169563E+03  0.12929366472E+04  0.42957867623E+03  0.16722181955E+04  0.90052355054E+03 0.  0.
        -24    2    4    4    0    0  0.38577712599E+03  0.12299967148E+04  0.65395651580E+02  0.12932738682E+04  0.81023438067E+02 0.  0.
         24    2    4    4    0    0 -0.26405430366E+02  0.62939932324E+02  0.36418302465E+03  0.37894432728E+03  0.79440832687E+02 0.  0.
         13    1    3    3    0    0 -0.77484205133E+02 -0.16925984173E+03  0.10564656354E+03  0.21404180072E+03  0.00000000000E+00 0. -1.
        -13    1    3    3    0    0 -0.28188749049E+03 -0.11236768054E+04  0.76020680644E+03  0.13856494899E+04  0.00000000000E+00 0.  1.
          2    1    6    6  502    0 -0.14822240820E+02 -0.79047354037E+01  0.15199113783E+02  0.22653845689E+02  0.00000000000E+00 0. -1.
          3    1    5    5  503    0  0.25109862025E+03  0.71618355748E+03  0.69350341892E+02  0.76208849553E+03  0.00000000000E+00 0. -1.
         -4    1    5    5    0  503  0.13467850574E+03  0.51381315735E+03 -0.39546903115E+01  0.53118537268E+03  0.00000000000E+00 0.  1.
         -1    1    6    6    0  502 -0.11583189546E+02  0.70844667727E+02  0.34898391087E+03  0.35629048159E+03  0.00000000000E+00 0.  1.
<mgrwt>
<rscale>  0 0.30045378E+04</rscale>
<asrwt>0</asrwt>
<pdfrwt beam="1">  1        2 0.35133396E+00 0.30045378E+04</pdfrwt>
<pdfrwt beam="2">  1       -2 0.15203673E+00 0.30045378E+04</pdfrwt>
<totfact> 0.11454880E+00</totfact>
</mgrwt>
</event>
<event>
12    1  0.1960998E-007  0.1965832E+04  0.7818608E-02  0.8622764E-01
          2   -1    0    0  501    0  0.00000000000E+00  0.00000000000E+00  0.23443463881E+04  0.23443463881E+04  0.00000000000E+00 0. -1.
         -2   -1    0    0    0  501 -0.00000000000E+00 -0.00000000000E+00 -0.41210818219E+03  0.41210818219E+03  0.00000000000E+00 0.  1.
         23    2    1    2    0    0 -0.22339914618E+03  0.72718424203E+03  0.92375565426E+03  0.11998279203E+04  0.86939226625E+02 0.  0.
        254    2    1    2    0    0  0.22339914618E+03 -0.72718424203E+03  0.10084825516E+04  0.15566266500E+04  0.90958527372E+03 0.  0.
        -24    2    4    4    0    0 -0.54468219120E+02 -0.67476593018E+03  0.10575415188E+04  0.12581345750E+04  0.78947434543E+02 0.  0.
         24    2    4    4    0    0  0.27786736530E+03 -0.52418311845E+02 -0.49058967164E+02  0.29849207499E+03  0.82053546290E+02 0.  0.
         13    1    3    3    0    0 -0.20264587551E+03  0.68869824674E+03  0.89564637273E+03  0.11478471374E+04  0.00000000000E+00 0. -1.
        -13    1    3    3    0    0 -0.20753270673E+02  0.38485995285E+02  0.28109281526E+02  0.51980782840E+02  0.00000000000E+00 0.  1.
          4    1    6    6  502    0  0.97664970042E+02  0.78599434522E+01 -0.46507545900E+02  0.10845818047E+03  0.00000000000E+00 0. -1.
          1    1    5    5  503    0  0.67406281602E+01 -0.32362644702E+03  0.46291860625E+03  0.56486560285E+03  0.00000000000E+00 0. -1.
         -2    1    5    5    0  503 -0.61208847280E+02 -0.35113948316E+03  0.59462291252E+03  0.69326897213E+03  0.00000000000E+00 0.  1.
         -3    1    6    6    0  502  0.18020239526E+03 -0.60278255298E+02 -0.25514212638E+01  0.19003389453E+03  0.00000000000E+00 0.  1.
<mgrwt>
<rscale>  0 0.19658325E+04</rscale>
<asrwt>0</asrwt>
<pdfrwt beam="1">  1        2 0.36066867E+00 0.19658325E+04</pdfrwt>
<pdfrwt beam="2">  1       -2 0.63401260E-01 0.19658325E+04</pdfrwt>
<totfact> 0.91808314E+00</totfact>
</mgrwt>
</event>
<event>
12    1  0.1960998E-007  0.1453307E+04  0.7818608E-02  0.8916111E-01
          2   -1    0    0  501    0  0.00000000000E+00  0.00000000000E+00  0.32593813161E+04  0.32593813161E+04  0.00000000000E+00 0.  1.
         -2   -1    0    0    0  501 -0.00000000000E+00 -0.00000000000E+00 -0.16200179194E+03  0.16200179194E+03  0.00000000000E+00 0. -1.
         23    2    1    2    0    0  0.12126579349E+02 -0.53062490304E+02 -0.70091919786E+02  0.12758717815E+03  0.91667491541E+02 0.  0.
        254    2    1    2    0    0 -0.12126579349E+02  0.53062490304E+02  0.31674714440E+04  0.32937959299E+04  0.90180574282E+03 0.  0.
        -24    2    4    4    0    0 -0.44260752828E+03 -0.48053064253E+02  0.16925135177E+04  0.17518932057E+04  0.79481291640E+02 0.  0.
         24    2    4    4    0    0  0.43048094893E+03  0.10111555456E+03  0.14749579263E+04  0.15419027242E+04  0.80155621971E+02 0.  0.
         11    1    3    3    0    0 -0.27768602831E+02 -0.30954725751E+02 -0.70641578523E+02  0.81972696465E+02  0.00000000000E+00 0. -1.
        -11    1    3    3    0    0  0.39895182181E+02 -0.22107764553E+02  0.54965873739E+00  0.45614481686E+02  0.00000000000E+00 0.  1.
          4    1    6    6  502    0  0.26155880868E+03  0.21684578749E+02  0.88866906402E+03  0.92661531215E+03  0.00000000000E+00 0. -1.
          1    1    5    5  503    0 -0.33840813214E+03 -0.50102049339E+02  0.11652836154E+04  0.12144612730E+04  0.00000000000E+00 0. -1.
         -4    1    5    5    0  503 -0.10419939614E+03  0.20489850859E+01  0.52722990223E+03  0.53743193271E+03  0.00000000000E+00 0.  1.
         -3    1    6    6    0  502  0.16892214025E+03  0.79430975808E+02  0.58628886229E+03  0.61528741205E+03  0.00000000000E+00 0.  1.
<mgrwt>
<rscale>  0 0.14533074E+04</rscale>
<asrwt>0</asrwt>
<pdfrwt beam="1">  1        2 0.50144323E+00 0.14533074E+04</pdfrwt>
<pdfrwt beam="2">  1       -2 0.24923355E-01 0.14533074E+04</pdfrwt>
<totfact> 0.16773097E+01</totfact>
</mgrwt>
</event>
<event>
12    1  0.1960998E-007  0.2051946E+04  0.7818608E-02  0.8582712E-01
         -1   -1    0    0    0  501 -0.00000000000E+00  0.00000000000E+00  0.48902244590E+03  0.48902244590E+03  0.00000000000E+00 0.  1.
          1   -1    0    0  501    0  0.00000000000E+00 -0.00000000000E+00 -0.21524997271E+04  0.21524997271E+04  0.00000000000E+00 0. -1.
         23    2    1    2    0    0  0.38197423316E+03 -0.43992345000E+03 -0.14279210319E+04  0.15448484072E+04  0.90339201110E+02 0.  0.
        254    2    1    2    0    0 -0.38197423316E+03  0.43992345000E+03 -0.23555624927E+03  0.10966737658E+04  0.89876005992E+03 0.  0.
        -24    2    4    4    0    0 -0.63754787860E+03  0.12319003242E+03 -0.11360001539E+03  0.66428053688E+03  0.81979183830E+02 0.  0.
         24    2    4    4    0    0  0.25557364545E+03  0.31673341758E+03 -0.12195623389E+03  0.43239322890E+03  0.80328297309E+02 0.  0.
         13    1    3    3    0    0  0.12161801223E+03 -0.19803204637E+03 -0.50655193911E+03  0.55731723399E+03  0.00000000000E+00 0. -1.
        -13    1    3    3    0    0  0.26035622093E+03 -0.24189140363E+03 -0.92136909283E+03  0.98753117326E+03  0.00000000000E+00 0.  1.
          4    1    6    6  502    0  0.19519630823E+03  0.18104542021E+03 -0.82643583094E+02  0.27876334901E+03  0.00000000000E+00 0. -1.
          1    1    5    5  503    0 -0.55899697251E+03  0.13428625021E+03 -0.10595029742E+03  0.58458179735E+03  0.00000000000E+00 0. -1.
         -2    1    5    5    0  503 -0.78550906095E+02 -0.11096217792E+02 -0.76497179692E+01  0.79698739530E+02  0.00000000000E+00 0.  1.
         -3    1    6    6    0  502  0.60377337217E+02  0.13568799737E+03 -0.39312650796E+02  0.15362987988E+03  0.00000000000E+00 0.  1.
<mgrwt>
<rscale>  0 0.20519461E+04</rscale>
<asrwt>0</asrwt>
<pdfrwt beam="1">  1        1 0.33115381E+00 0.20519461E+04</pdfrwt>
<pdfrwt beam="2">  1       -1 0.75234222E-01 0.20519461E+04</pdfrwt>
<totfact> 0.38501585E+00</totfact>
</mgrwt>
</event>
<event>
12    1  0.1960998E-007  0.2578335E+04  0.7818608E-02  0.8375598E-01
          2   -1    0    0  501    0  0.00000000000E+00  0.00000000000E+00  0.17786548607E+04  0.17786548607E+04  0.00000000000E+00 0. -1.
         -2   -1    0    0    0  501 -0.00000000000E+00 -0.00000000000E+00 -0.93438726038E+03  0.93438726038E+03  0.00000000000E+00 0.  1.
         23    2    1    2    0    0  0.25024208108E+03  0.13990010655E+02  0.15327142165E+04  0.15557926192E+04  0.91983613512E+02 0.  0.
        254    2    1    2    0    0 -0.25024208108E+03 -0.13990010655E+02 -0.68844661614E+03  0.11572495019E+04  0.89579620825E+03 0.  0.
        -24    2    4    4    0    0 -0.40527392712E+03 -0.15177261603E+03 -0.60689323160E+01  0.44005752458E+03  0.79573299680E+02 0.  0.
         24    2    4    4    0    0  0.15503184605E+03  0.13778260537E+03 -0.68237768383E+03  0.71719197727E+03  0.75538792972E+02 0.  0.
         11    1    3    3    0    0  0.17513292850E+03  0.19923138217E+02  0.79850654270E+03  0.81772927844E+03  0.00000000000E+00 0.  1.
        -11    1    3    3    0    0  0.75109152577E+02 -0.59331275623E+01  0.73420767377E+03  0.73806334080E+03  0.00000000000E+00 0. -1.
          2    1    6    6  502    0  0.12426364269E+03  0.92364945983E+02 -0.58785788282E+03  0.60790593560E+03  0.00000000000E+00 0. -1.
          3    1    5    5  503    0 -0.26297091926E+03 -0.63139700358E+02  0.16237962806E+02  0.27093172124E+03  0.00000000000E+00 0. -1.
         -4    1    5    5    0  503 -0.14230300786E+03 -0.88632915667E+02 -0.22306895122E+02  0.16912580334E+03  0.00000000000E+00 0.  1.
         -1    1    6    6    0  502  0.30768203355E+02  0.45417659388E+02 -0.94519801007E+02  0.10928604167E+03  0.00000000000E+00 0.  1.
<mgrwt>
<rscale>  0 0.25783347E+04</rscale>
<asrwt>0</asrwt>
<pdfrwt beam="1">  1        2 0.27363921E+00 0.25783347E+04</pdfrwt>
<pdfrwt beam="2">  1       -2 0.14375189E+00 0.25783347E+04</pdfrwt>
<totfact> 0.26343037E+00</totfact>
</mgrwt>
</event>
<event>
12    1  0.1960998E-007  0.1807306E+04  0.7818608E-02  0.8702424E-01
         -1   -1    0    0    0  501 -0.00000000000E+00  0.00000000000E+00  0.56970246434E+03  0.56970246434E+03  0.00000000000E+00 0.  1.
          1   -1    0    0  501    0  0.00000000000E+00 -0.00000000000E+00 -0.14333606741E+04  0.14333606741E+04  0.00000000000E+00 0. -1.
         23    2    1    2    0    0  0.55225543790E+03  0.21179073590E+03 -0.69067886456E+03  0.91407559061E+03  0.93034976742E+02 0.  0.
        254    2    1    2    0    0 -0.55225543790E+03 -0.21179073590E+03 -0.17297934523E+03  0.10889875479E+04  0.89784778276E+03 0.  0.
        -24    2    4    4    0    0  0.14203290446E+03 -0.29921607508E+03 -0.18069459848E+03  0.38520035610E+03  0.77621974216E+02 0.  0.
         24    2    4    4    0    0 -0.69428834236E+03  0.87425339183E+02  0.77152532577E+01  0.70378719176E+03  0.74681951525E+02 0.  0.
         11    1    3    3    0    0  0.10873412207E+03  0.71589399308E+02 -0.11287965810E+03  0.17230777292E+03  0.00000000000E+00 0.  1.
        -11    1    3    3    0    0  0.44352131583E+03  0.14020133659E+03 -0.57779920646E+03  0.74176781769E+03  0.00000000000E+00 0. -1.
          4    1    6    6  502    0 -0.11902639873E+03  0.36031431459E+02 -0.18028650086E+02  0.12566057405E+03  0.00000000000E+00 0. -1.
          3    1    5    5  503    0  0.19979454425E+01 -0.54122977467E+02 -0.92692304162E+01  0.54947312113E+02  0.00000000000E+00 0. -1.
         -4    1    5    5    0  503  0.14003495901E+03 -0.24509309761E+03 -0.17142536807E+03  0.33025304398E+03  0.00000000000E+00 0.  1.
         -3    1    6    6    0  502 -0.57526194363E+03  0.51393907724E+02  0.25743903344E+02  0.57812661770E+03  0.00000000000E+00 0.  1.
<mgrwt>
<rscale>  0 0.18073064E+04</rscale>
<asrwt>0</asrwt>
<pdfrwt beam="1">  1        1 0.22051702E+00 0.18073064E+04</pdfrwt>
<pdfrwt beam="2">  1       -1 0.87646534E-01 0.18073064E+04</pdfrwt>
<totfact> 0.87904862E+00</totfact>
</mgrwt>
</event>
<event>
12    1  0.1960998E-007  0.3678930E+04  0.7818608E-02  0.8072647E-01
          2   -1    0    0  501    0  0.00000000000E+00  0.00000000000E+00  0.44435715591E+04  0.44435715591E+04  0.00000000000E+00 0.  1.
         -2   -1    0    0    0  501 -0.00000000000E+00 -0.00000000000E+00 -0.76146662668E+03  0.76146662668E+03  0.00000000000E+00 0. -1.
         23    2    1    2    0    0  0.10389155697E+04 -0.13737936458E+04  0.19292877717E+04  0.25878121955E+04  0.89253073531E+02 0.  0.
        254    2    1    2    0    0 -0.10389155697E+04  0.13737936458E+04  0.17528171607E+04  0.26172259902E+04  0.90047173329E+03 0.  0.
        -24    2    4    4    0    0 -0.11773667667E+04  0.10392992471E+04  0.14444248929E+04  0.21351830142E+04  0.79421687273E+02 0.  0.
         24    2    4    4    0    0  0.13845119695E+03  0.33449439876E+03  0.30839226777E+03  0.48204297602E+03  0.78768033899E+02 0.  0.
         11    1    3    3    0    0  0.80891685097E+03 -0.10823718753E+04  0.14581805537E+04  0.19880055018E+04  0.00000000000E+00 0. -1.
        -11    1    3    3    0    0  0.22999871878E+03 -0.29142177057E+03  0.47110721797E+03  0.59980669371E+03  0.00000000000E+00 0.  1.
          2    1    6    6  502    0  0.12378895189E+03  0.26524256735E+03  0.28213412501E+03  0.40654272671E+03  0.00000000000E+00 0. -1.
          3    1    5    5  503    0 -0.94892825599E+03  0.85884268031E+03  0.11399694788E+04  0.17139445723E+04  0.00000000000E+00 0. -1.
         -4    1    5    5    0  503 -0.22843851071E+03  0.18045656675E+03  0.30445541419E+03  0.42123844185E+03  0.00000000000E+00 0.  1.
         -1    1    6    6    0  502  0.14662245055E+02  0.69251831415E+02  0.26258142766E+02  0.75500249311E+02  0.00000000000E+00 0.  1.
<mgrwt>
<rscale>  0 0.36789300E+04</rscale>
<asrwt>0</asrwt>
<pdfrwt beam="1">  1        2 0.68362638E+00 0.36789300E+04</pdfrwt>
<pdfrwt beam="2">  1       -2 0.11714871E+00 0.36789300E+04</pdfrwt>
<totfact> 0.63344672E-02</totfact>
</mgrwt>
</event>
<event>
12    1  0.1960998E-007  0.2795169E+04  0.7818608E-02  0.8304770E-01
         -1   -1    0    0    0  501 -0.00000000000E+00  0.00000000000E+00  0.79708154501E+03  0.79708154501E+03  0.00000000000E+00 0.  1.
          1   -1    0    0  501    0  0.00000000000E+00 -0.00000000000E+00 -0.24504932302E+04  0.24504932302E+04  0.00000000000E+00 0. -1.
         23    2    1    2    0    0 -0.12218267408E+04 -0.24969656827E+03 -0.62711520323E+03  0.13985221234E+04  0.85916766046E+02 0.  0.
        254    2    1    2    0    0  0.12218267408E+04  0.24969656827E+03 -0.10262964820E+04  0.18490526518E+04  0.90027900088E+03 0.  0.
        -24    2    4    4    0    0  0.12939327749E+04  0.43032563331E+02 -0.81294635158E+03  0.15308004207E+04  0.79714051574E+02 0.  0.
         24    2    4    4    0    0 -0.72106034063E+02  0.20666400494E+03 -0.21335013040E+03  0.31825223110E+03  0.88639231593E+02 0.  0.
         13    1    3    3    0    0 -0.23086955823E+03 -0.14769052246E+02 -0.12748009867E+03  0.26414021538E+03  0.00000000000E+00 0. -1.
        -13    1    3    3    0    0 -0.99095718261E+03 -0.23492751602E+03 -0.49963510455E+03  0.11343819080E+04  0.00000000000E+00 0.  1.
          4    1    6    6  502    0 -0.80176794873E+01  0.12100573918E+02  0.80700102379E+01  0.16608194928E+02  0.00000000000E+00 0. -1.
          1    1    5    5  503    0  0.16679293285E+02 -0.84402496248E+01 -0.93393839577E+01  0.20896428664E+02  0.00000000000E+00 0. -1.
         -2    1    5    5    0  503  0.12772534816E+04  0.51472812956E+02 -0.80360696763E+03  0.15099039921E+04  0.00000000000E+00 0.  1.
         -3    1    6    6    0  502 -0.64088354575E+02  0.19456343102E+03 -0.22142014063E+03  0.30164403618E+03  0.00000000000E+00 0.  1.
<mgrwt>
<rscale>  0 0.27951694E+04</rscale>
<asrwt>0</asrwt>
<pdfrwt beam="1">  1        1 0.37699895E+00 0.27951694E+04</pdfrwt>
<pdfrwt beam="2">  1       -1 0.12262793E+00 0.27951694E+04</pdfrwt>
<totfact> 0.74493056E-01</totfact>
</mgrwt>
</event>
<event>
12    1  0.1960998E-007  0.2389570E+04  0.7818608E-02  0.8443419E-01
         -1   -1    0    0    0  501 -0.00000000000E+00  0.00000000000E+00  0.16200164344E+04  0.16200164344E+04  0.00000000000E+00 0.  1.
          1   -1    0    0  501    0  0.00000000000E+00 -0.00000000000E+00 -0.88117111756E+03  0.88117111756E+03  0.00000000000E+00 0. -1.
         23    2    1    2    0    0  0.79554007064E+03  0.63996949160E+03  0.26303096177E+03  0.10581760680E+04  0.90035270190E+02 0.  0.
        254    2    1    2    0    0 -0.79554007064E+03 -0.63996949160E+03  0.47581435512E+03  0.14430114840E+04  0.90190791560E+03 0.  0.
        -24    2    4    4    0    0 -0.36998005922E+03 -0.81242848527E+03  0.30184476603E+03  0.94573291265E+03  0.79844795586E+02 0.  0.
         24    2    4    4    0    0 -0.42556001142E+03  0.17245899367E+03  0.17396958909E+03  0.49727857135E+03  0.78594731195E+02 0.  0.
         11    1    3    3    0    0  0.37486286364E+03  0.35193900564E+03  0.10932501794E+03  0.52567593608E+03  0.00000000000E+00 0.  1.
        -11    1    3    3    0    0  0.42067720700E+03  0.28803048596E+03  0.15370594383E+03  0.53250013193E+03  0.00000000000E+00 0. -1.
          2    1    6    6  502    0 -0.36365243998E+03  0.11566737880E+03  0.13639417767E+03  0.40524734586E+03  0.00000000000E+00 0. -1.
          1    1    5    5  503    0 -0.29731045861E+03 -0.69066423410E+03  0.27939007212E+03  0.80216544768E+03  0.00000000000E+00 0. -1.
         -2    1    5    5    0  503 -0.72669600612E+02 -0.12176425118E+03  0.22454693909E+02  0.14356746496E+03  0.00000000000E+00 0.  1.
         -1    1    6    6    0  502 -0.61907571440E+02  0.56791614869E+02  0.37575411426E+02  0.92031225489E+02  0.00000000000E+00 0.  1.
<mgrwt>
<rscale>  0 0.23895704E+04</rscale>
<asrwt>0</asrwt>
<pdfrwt beam="1">  1        1 0.13556479E+00 0.23895704E+04</pdfrwt>
<pdfrwt beam="2">  1       -1 0.24923330E+00 0.23895704E+04</pdfrwt>
<totfact> 0.11929866E+00</totfact>
</mgrwt>
</event>
<event>
12    1  0.1960998E-007  0.2356280E+04  0.7818608E-02  0.8456056E-01
          1   -1    0    0  501    0  0.00000000000E+00  0.00000000000E+00  0.17463834737E+04  0.17463834737E+04  0.00000000000E+00 0. -1.
         -1   -1    0    0    0  501 -0.00000000000E+00 -0.00000000000E+00 -0.79479300471E+03  0.79479300471E+03  0.00000000000E+00 0.  1.
         23    2    1    2    0    0  0.49196845060E+03 -0.29381296588E+03  0.12968318405E+04  0.14206283624E+04  0.89739100732E+02 0.  0.
        254    2    1    2    0    0 -0.49196845060E+03  0.29381296588E+03 -0.34524137143E+03  0.11205481161E+04  0.89893128804E+03 0.  0.
        -24    2    4    4    0    0 -0.33309801965E+03  0.58235386495E+03 -0.62552124809E+02  0.67852152181E+03  0.79927295236E+02 0.  0.
         24    2    4    4    0    0 -0.15887043095E+03 -0.28854089908E+03 -0.28268924663E+03  0.44202659427E+03  0.83538228464E+02 0.  0.
         11    1    3    3    0    0  0.34061537415E+03 -0.15477698919E+03  0.81292942091E+03  0.89489049211E+03  0.00000000000E+00 0. -1.
        -11    1    3    3    0    0  0.15135307645E+03 -0.13903597669E+03  0.48390241956E+03  0.52573787025E+03  0.00000000000E+00 0.  1.
          2    1    6    6  502    0 -0.12140282840E+03 -0.22377289265E+03 -0.16776391871E+03  0.30488963028E+03  0.00000000000E+00 0. -1.
          1    1    5    5  503    0 -0.33035609327E+03  0.58184254805E+03 -0.67867215819E+02  0.67251903919E+03  0.00000000000E+00 0. -1.
         -2    1    5    5    0  503 -0.27419263763E+01  0.51131690227E+00  0.53150910099E+01  0.60024826257E+01  0.00000000000E+00 0.  1.
         -1    1    6    6    0  502 -0.37467602551E+02 -0.64768006423E+02 -0.11492532791E+03  0.13713696399E+03  0.00000000000E+00 0.  1.
<mgrwt>
<rscale>  0 0.23562796E+04</rscale>
<asrwt>0</asrwt>
<pdfrwt beam="1">  1        1 0.26867438E+00 0.23562796E+04</pdfrwt>
<pdfrwt beam="2">  1       -1 0.12227585E+00 0.23562796E+04</pdfrwt>
<totfact> 0.23558148E+00</totfact>
</mgrwt>
</event>
<event>
12    1  0.1960998E-007  0.2489065E+04  0.7818608E-02  0.8406891E-01
          1   -1    0    0  501    0  0.00000000000E+00  0.00000000000E+00  0.26539850216E+04  0.26539850216E+04  0.00000000000E+00 0. -1.
         -1   -1    0    0    0  501 -0.00000000000E+00 -0.00000000000E+00 -0.58359836880E+03  0.58359836880E+03  0.00000000000E+00 0.  1.
         23    2    1    2    0    0 -0.58632783903E+03 -0.26697704977E+03  0.20265164846E+04  0.21284262158E+04  0.91498708982E+02 0.  0.
        254    2    1    2    0    0  0.58632783903E+03  0.26697704977E+03  0.43870168172E+02  0.11091571746E+04  0.90180262051E+03 0.  0.
        -24    2    4    4    0    0  0.81842356146E+03  0.15308574572E+03  0.13438820357E+02  0.83661687317E+03  0.80590440477E+02 0.  0.
         24    2    4    4    0    0 -0.23209572242E+03  0.11389130405E+03  0.30431347815E+02  0.27254030141E+03  0.80700033832E+02 0.  0.
         11    1    3    3    0    0 -0.32588038286E+03 -0.11281034909E+03  0.97337082407E+03  0.10326543274E+04  0.00000000000E+00 0.  1.
        -11    1    3    3    0    0 -0.26044745618E+03 -0.15416670068E+03  0.10531456605E+04  0.10957718884E+04  0.00000000000E+00 0. -1.
          4    1    6    6  502    0 -0.43864645022E+02  0.33636834012E+02  0.39137269818E+02  0.67729384864E+02  0.00000000000E+00 0. -1.
          1    1    5    5  503    0  0.30651736489E+03  0.47394489041E+02 -0.32712835124E+02  0.31188020481E+03  0.00000000000E+00 0. -1.
         -2    1    5    5    0  503  0.51190619656E+03  0.10569125668E+03  0.46151655481E+02  0.52473666836E+03  0.00000000000E+00 0.  1.
         -3    1    6    6    0  502 -0.18823107740E+03  0.80254470037E+02 -0.87059220028E+01  0.20481091655E+03  0.00000000000E+00 0.  1.
<mgrwt>
<rscale>  0 0.24890651E+04</rscale>
<asrwt>0</asrwt>
<pdfrwt beam="1">  1        1 0.40830538E+00 0.24890651E+04</pdfrwt>
<pdfrwt beam="2">  1       -1 0.89784366E-01 0.24890651E+04</pdfrwt>
<totfact> 0.11416270E+00</totfact>
</mgrwt>
</event>
<event>
12    1  0.1960998E-007  0.5607503E+04  0.7818608E-02  0.7741068E-01
          1   -1    0    0  501    0  0.00000000000E+00  0.00000000000E+00  0.35952279756E+04  0.35952279756E+04  0.00000000000E+00 0. -1.
         -1   -1    0    0    0  501 -0.00000000000E+00 -0.00000000000E+00 -0.21865153898E+04  0.21865153898E+04  0.00000000000E+00 0.  1.
         23    2    1    2    0    0  0.15006240504E+04  0.12441704508E+04 -0.12852071699E+04  0.23366298986E+04  0.90824898700E+02 0.  0.
        254    2    1    2    0    0 -0.15006240504E+04 -0.12441704508E+04  0.26939197558E+04  0.34451134669E+04  0.90098307308E+03 0.  0.
        -24    2    4    4    0    0 -0.11124801229E+04 -0.11452687386E+04  0.25548367553E+04  0.30137785017E+04  0.80109322629E+02 0.  0.
         24    2    4    4    0    0 -0.38814392746E+03 -0.98901712203E+02  0.13908300043E+03  0.43133496515E+03  0.79173948081E+02 0.  0.
         13    1    3    3    0    0  0.26173698430E+03  0.25932583297E+03 -0.25982068649E+03  0.45084689832E+03  0.00000000000E+00 0.  1.
        -13    1    3    3    0    0  0.12388870661E+04  0.98484461779E+03 -0.10253864834E+04  0.18857830003E+04  0.00000000000E+00 0. -1.
          2    1    6    6  502    0 -0.22028862642E+03 -0.15425376244E+02  0.75827849960E+02  0.23348422643E+03  0.00000000000E+00 0. -1.
          3    1    5    5  503    0 -0.10960165742E+04 -0.11330711176E+04  0.25032349595E+04  0.29582575532E+04  0.00000000000E+00 0. -1.
         -4    1    5    5    0  503 -0.16463548719E+02 -0.12197620954E+02  0.51601795789E+02  0.55520948497E+02  0.00000000000E+00 0.  1.
         -1    1    6    6    0  502 -0.16785530104E+03 -0.83476335959E+02  0.63255150470E+02  0.19785073872E+03  0.00000000000E+00 0.  1.
<mgrwt>
<rscale>  0 0.56075026E+04</rscale>
<asrwt>0</asrwt>
<pdfrwt beam="1">  1        1 0.55311200E+00 0.56075026E+04</pdfrwt>
<pdfrwt beam="2">  1       -1 0.33638698E+00 0.56075026E+04</pdfrwt>
<totfact> 0.27572333E-03</totfact>
</mgrwt>
</event>
<event>
12    1  0.1960998E-007  0.1320534E+04  0.7818608E-02  0.9013438E-01
          2   -1    0    0  501    0  0.00000000000E+00  0.00000000000E+00  0.24570163422E+04  0.24570163422E+04  0.00000000000E+00 0. -1.
         -2   -1    0    0    0  501 -0.00000000000E+00 -0.00000000000E+00 -0.17743159004E+03  0.17743159004E+03  0.00000000000E+00 0.  1.
         23    2    1    2    0    0 -0.28622753987E+03 -0.19802663725E+03  0.66022872950E+03  0.75113164569E+03  0.84593263701E+02 0.  0.
        254    2    1    2    0    0  0.28622753987E+03  0.19802663725E+03  0.16193560227E+04  0.18833162865E+04  0.89634008802E+03 0.  0.
        -24    2    4    4    0    0 -0.36285475273E+02  0.20202497872E+03  0.15204989722E+04  0.15363435772E+04  0.79396063308E+02 0.  0.
         24    2    4    4    0    0  0.32251301514E+03 -0.39983414706E+01  0.98857050455E+02  0.34697270938E+03  0.81158566775E+02 0.  0.
         13    1    3    3    0    0 -0.59787892474E+01 -0.16688462007E+02  0.10319248659E+02  0.20511888696E+02  0.00000000000E+00 0.  1.
        -13    1    3    3    0    0 -0.28024875062E+03 -0.18133817524E+03  0.64990948084E+03  0.73061975699E+03  0.00000000000E+00 0. -1.
          4    1    6    6  502    0  0.24493165337E+03 -0.21505521295E+02  0.42556194836E+02  0.24952962146E+03  0.00000000000E+00 0. -1.
          1    1    5    5  503    0 -0.26987530813E+02  0.20564556239E+03  0.14868429142E+04  0.15012395797E+04  0.00000000000E+00 0. -1.
         -2    1    5    5    0  503 -0.92979444599E+01 -0.36205836748E+01  0.33656057983E+02  0.35103997440E+02  0.00000000000E+00 0.  1.
         -3    1    6    6    0  502  0.77581361772E+02  0.17507179824E+02  0.56300855619E+02  0.97443087919E+02  0.00000000000E+00 0.  1.
<mgrwt>
<rscale>  0 0.13205337E+04</rscale>
<asrwt>0</asrwt>
<pdfrwt beam="1">  1        2 0.37800249E+00 0.13205337E+04</pdfrwt>
<pdfrwt beam="2">  1       -2 0.27297169E-01 0.13205337E+04</pdfrwt>
<totfact> 0.44260345E+01</totfact>
</mgrwt>
</event>
<event>
12    1  0.1960998E-007  0.2029916E+04  0.7818608E-02  0.8592760E-01
         -1   -1    0    0    0  501 -0.00000000000E+00  0.00000000000E+00  0.14416237806E+04  0.14416237806E+04  0.00000000000E+00 0.  1.
          1   -1    0    0  501    0  0.00000000000E+00 -0.00000000000E+00 -0.71456927518E+03  0.71456927518E+03  0.00000000000E+00 0. -1.
         23    2    1    2    0    0 -0.25256217790E+03  0.60544921083E+03 -0.21588858102E+03  0.69658952709E+03  0.90954325020E+02 0.  0.
        254    2    1    2    0    0  0.25256217790E+03 -0.60544921083E+03  0.94294308648E+03  0.14596035287E+04  0.90052451168E+03 0.  0.
        -24    2    4    4    0    0  0.41227394566E+03 -0.75484440557E+03  0.62641690225E+03  0.10671305971E+04  0.81300018054E+02 0.  0.
         24    2    4    4    0    0 -0.15971176775E+03  0.14939519475E+03  0.31652618423E+03  0.39247293164E+03  0.77584816777E+02 0.  0.
         11    1    3    3    0    0  0.18207258321E-01  0.35913439205E+02 -0.28916337527E+02  0.46107808699E+02  0.00000000000E+00 0. -1.
        -11    1    3    3    0    0 -0.25258038516E+03  0.56953577162E+03 -0.18697224349E+03  0.65048171839E+03  0.00000000000E+00 0.  1.
          2    1    6    6  502    0 -0.12189994474E+03  0.15113225627E+03  0.26253690257E+03  0.32653664514E+03  0.00000000000E+00 0. -1.
          3    1    5    5  503    0  0.40160283032E+03 -0.70133226014E+03  0.57240102870E+03  0.99035080153E+03  0.00000000000E+00 0. -1.
         -4    1    5    5    0  503  0.10671115336E+02 -0.53512145432E+02  0.54015873547E+02  0.76779795561E+02  0.00000000000E+00 0.  1.
         -1    1    6    6    0  502 -0.37811823014E+02 -0.17370615223E+01  0.53989281661E+02  0.65936286494E+02  0.00000000000E+00 0.  1.
<mgrwt>
<rscale>  0 0.20299163E+04</rscale>
<asrwt>0</asrwt>
<pdfrwt beam="1">  1        1 0.10993374E+00 0.20299163E+04</pdfrwt>
<pdfrwt beam="2">  1       -1 0.22178827E+00 0.20299163E+04</pdfrwt>
<totfact> 0.26146641E+00</totfact>
</mgrwt>
</event>
<event>
12    1  0.1960998E-007  0.3855507E+04  0.7818608E-02  0.8034347E-01
          2   -1    0    0  501    0  0.00000000000E+00  0.00000000000E+00  0.27219113894E+04  0.27219113894E+04  0.00000000000E+00 0.  1.
         -2   -1    0    0    0  501 -0.00000000000E+00 -0.00000000000E+00 -0.13653029675E+04  0.13653029675E+04  0.00000000000E+00 0. -1.
         23    2    1    2    0    0 -0.12404225850E+04 -0.13334801488E+04  0.66358134766E+03  0.19405109330E+04  0.91787687042E+02 0.  0.
        254    2    1    2    0    0  0.12404225850E+04  0.13334801488E+04  0.69302707418E+03  0.21467034239E+04  0.90068394447E+03 0.  0.
        -24    2    4    4    0    0  0.47747813414E+03  0.29872340640E+03  0.64196557993E+03  0.85772430808E+03  0.79687770345E+02 0.  0.
         24    2    4    4    0    0  0.76294445091E+03  0.10347567424E+04  0.51061494254E+02  0.12889791158E+04  0.77808313754E+02 0.  0.
         11    1    3    3    0    0 -0.27032278207E+03 -0.34415650770E+03  0.14408937769E+03  0.46073838245E+03  0.00000000000E+00 0. -1.
        -11    1    3    3    0    0 -0.97009980298E+03 -0.98932364107E+03  0.51949196997E+03  0.14797725506E+04  0.00000000000E+00 0.  1.
          4    1    6    6  502    0  0.14517229628E+03  0.20484054986E+03 -0.20510984550E+02  0.25190344769E+03  0.00000000000E+00 0. -1.
          3    1    5    5  503    0  0.31143589644E+03  0.19500026419E+03  0.35962065106E+03  0.51414437009E+03  0.00000000000E+00 0. -1.
         -4    1    5    5    0  503  0.16604223769E+03  0.10372314220E+03  0.28234492887E+03  0.34357993798E+03  0.00000000000E+00 0.  1.
         -3    1    6    6    0  502  0.61777215463E+03  0.82991619252E+03  0.71572478804E+02  0.10370756681E+04  0.00000000000E+00 0.  1.
<mgrwt>
<rscale>  0 0.38555071E+04</rscale>
<asrwt>0</asrwt>
<pdfrwt beam="1">  1        2 0.41875560E+00 0.38555071E+04</pdfrwt>
<pdfrwt beam="2">  1       -2 0.21004661E+00 0.38555071E+04</pdfrwt>
<totfact> 0.23529332E-01</totfact>
</mgrwt>
</event>
<event>
12    1  0.1960998E-007  0.1223454E+04  0.7818608E-02  0.9092572E-01
          2   -1    0    0  501    0  0.00000000000E+00  0.00000000000E+00  0.15194731974E+04  0.15194731974E+04  0.00000000000E+00 0. -1.
         -2   -1    0    0    0  501 -0.00000000000E+00 -0.00000000000E+00 -0.24627590876E+03  0.24627590876E+03  0.00000000000E+00 0.  1.
         23    2    1    2    0    0  0.13220674168E+03 -0.22250788283E+03  0.19297092949E+03  0.33780581058E+03  0.99431411356E+02 0.  0.
        254    2    1    2    0    0 -0.13220674168E+03  0.22250788283E+03  0.10802263592E+04  0.14279432956E+04  0.89729855008E+03 0.  0.
        -24    2    4    4    0    0 -0.18340636628E+03  0.53225261930E+03  0.47319030564E+03  0.73983424658E+03  0.80714937375E+02 0.  0.
         24    2    4    4    0    0  0.51199624600E+02 -0.30974473647E+03  0.60703605352E+03  0.68810904903E+03  0.80237707733E+02 0.  0.
         11    1    3    3    0    0  0.15513545177E+02 -0.59761979683E+02  0.30619884786E+01  0.61818606205E+02  0.00000000000E+00 0.  1.
        -11    1    3    3    0    0  0.11669319651E+03 -0.16274590315E+03  0.18990894101E+03  0.27598720438E+03  0.00000000000E+00 0. -1.
          4    1    6    6  502    0  0.25687424746E+02 -0.16529110157E+03  0.23724804300E+03  0.29028886640E+03  0.00000000000E+00 0. -1.
          3    1    5    5  503    0 -0.11270719483E+03  0.23141933636E+03  0.24821480991E+03  0.35758693050E+03  0.00000000000E+00 0. -1.
         -4    1    5    5    0  503 -0.70699171447E+02  0.30083328294E+03  0.22497549574E+03  0.38224731608E+03  0.00000000000E+00 0.  1.
         -3    1    6    6    0  502  0.25512199854E+02 -0.14445363490E+03  0.36978801052E+03  0.39782018262E+03  0.00000000000E+00 0.  1.
<mgrwt>
<rscale>  0 0.12234535E+04</rscale>
<asrwt>0</asrwt>
<pdfrwt beam="1">  1        2 0.23376510E+00 0.12234535E+04</pdfrwt>
<pdfrwt beam="2">  1       -2 0.37888602E-01 0.12234535E+04</pdfrwt>
<totfact> 0.80125094E+01</totfact>
</mgrwt>
</event>
<event>
12    1  0.1960998E-007  0.5666658E+04  0.7818608E-02  0.7733164E-01
         -1   -1    0    0    0  501 -0.00000000000E+00  0.00000000000E+00  0.28249880805E+04  0.28249880805E+04  0.00000000000E+00 0.  1.
          1   -1    0    0  501    0  0.00000000000E+00 -0.00000000000E+00 -0.28416945267E+04  0.28416945267E+04  0.00000000000E+00 0. -1.
         23    2    1    2    0    0 -0.99015015656E+03 -0.25531956682E+04  0.34288653680E+03  0.27612166481E+04  0.86837479508E+02 0.  0.
        254    2    1    2    0    0  0.99015015656E+03  0.25531956682E+04 -0.35959298304E+03  0.29054659591E+04  0.90178704410E+03 0.  0.
        -24    2    4    4    0    0  0.72457325755E+03  0.11317184974E+04  0.18361458268E+03  0.13586914921E+04  0.80839919843E+02 0.  0.
         24    2    4    4    0    0  0.26557689900E+03  0.14214771708E+04 -0.54320756571E+03  0.15467744670E+04  0.79425158892E+02 0.  0.
         13    1    3    3    0    0 -0.93211490528E+03 -0.24171386826E+04  0.30503524095E+03  0.26085329413E+04  0.00000000000E+00 0. -1.
        -13    1    3    3    0    0 -0.58035251274E+02 -0.13605698565E+03  0.37851295848E+02  0.15268370683E+03  0.00000000000E+00 0.  1.
          2    1    6    6  502    0  0.53197744420E+02  0.48941754842E+03 -0.18613054534E+03  0.52631180552E+03  0.00000000000E+00 0. -1.
          3    1    5    5  503    0  0.20761348423E+03  0.28400847802E+03  0.19743931549E+02  0.35235493079E+03  0.00000000000E+00 0. -1.
         -4    1    5    5    0  503  0.51695977333E+03  0.84771001943E+03  0.16387065113E+03  0.10063365613E+04  0.00000000000E+00 0.  1.
         -1    1    6    6    0  502  0.21237915458E+03  0.93205962238E+03 -0.35707702037E+03  0.10204626615E+04  0.00000000000E+00 0.  1.
<mgrwt>
<rscale>  0 0.56666580E+04</rscale>
<asrwt>0</asrwt>
<pdfrwt beam="1">  1        1 0.43718377E+00 0.56666580E+04</pdfrwt>
<pdfrwt beam="2">  1       -1 0.43461355E+00 0.56666580E+04</pdfrwt>
<totfact> 0.22087936E-03</totfact>
</mgrwt>
</event>
<event>
12    1  0.2640441E-007  0.3664142E+04  0.7818608E-02  0.8075955E-01
          1   -1    0    0  501    0  0.00000000000E+00  0.00000000000E+00  0.19161374043E+04  0.19161374043E+04  0.00000000000E+00 0. -1.
         -1   -1    0    0    0  501 -0.00000000000E+00 -0.00000000000E+00 -0.17516932642E+04  0.17516932642E+04  0.00000000000E+00 0.  1.
         23    2    1    2    0    0 -0.15142284088E+04 -0.63423075057E+02 -0.73739140801E+03  0.16878719774E+04  0.90860129178E+02 0.  0.
        254    2    1    2    0    0  0.15142284088E+04  0.63423075057E+02  0.90183554805E+03  0.19799586912E+04  0.90001050139E+03 0.  0.
        -24    2    4    4    0    0  0.10176619725E+04 -0.43060544860E+02  0.98939332169E+02  0.10264490526E+04  0.79489404326E+02 0.  0.
         24    2    4    4    0    0  0.49656643630E+03  0.10648361992E+03  0.80289621588E+03  0.95350963856E+03  0.81371434733E+02 0.  0.
         13    1    3    3    0    0 -0.79570954728E+03  0.19697682291E+01 -0.41844803859E+03  0.89903076956E+03  0.00000000000E+00 0.  1.
        -13    1    3    3    0    0 -0.71851886148E+03 -0.65392843286E+02 -0.31894336942E+03  0.78884120782E+03  0.00000000000E+00 0. -1.
          4    1    6    6  502    0  0.62836855970E+02  0.17496276986E+02  0.16109097626E+03  0.17379554888E+03  0.00000000000E+00 0. -1.
          1    1    5    5  503    0  0.11503933491E+03 -0.10715210734E+02  0.36178335087E+02  0.12106913829E+03  0.00000000000E+00 0. -1.
         -2    1    5    5    0  503  0.90262263755E+03 -0.32345334125E+02  0.62760997082E+02  0.90537991430E+03  0.00000000000E+00 0.  1.
         -1    1    6    6    0  502  0.43372958033E+03  0.88987342930E+02  0.64180523962E+03  0.77971408968E+03  0.00000000000E+00 0.  1.
<mgrwt>
<rscale>  0 0.36641425E+04</rscale>
<asrwt>0</asrwt>
<pdfrwt beam="1">  1        1 0.29479037E+00 0.36641425E+04</pdfrwt>
<pdfrwt beam="2">  1       -1 0.26949127E+00 0.36641425E+04</pdfrwt>
<totfact> 0.14234237E-01</totfact>
</mgrwt>
</event>
<event>
12    1  0.1960998E-007  0.1864018E+04  0.7818608E-02  0.8672977E-01
          1   -1    0    0  501    0  0.00000000000E+00  0.00000000000E+00  0.15976181325E+04  0.15976181325E+04  0.00000000000E+00 0. -1.
         -1   -1    0    0    0  501 -0.00000000000E+00 -0.00000000000E+00 -0.54371012657E+03  0.54371012657E+03  0.00000000000E+00 0.  1.
         23    2    1    2    0    0 -0.70235387694E+03 -0.11176969262E+03  0.35803620703E+03  0.80140175683E+03  0.90892341045E+02 0.  0.
        254    2    1    2    0    0  0.70235387694E+03  0.11176969262E+03  0.69587179886E+03  0.13399265022E+04  0.89742522710E+03 0.  0.
        -24    2    4    4    0    0  0.33570385158E+03 -0.38322126018E+03  0.23660350180E+03  0.56727856044E+03  0.79171572241E+02 0.  0.
         24    2    4    4    0    0  0.36665002536E+03  0.49499095280E+03  0.45926829706E+03  0.77264794178E+03  0.81296917513E+02 0.  0.
         11    1    3    3    0    0 -0.20367023769E+03 -0.16379632919E+02  0.14625859857E+03  0.25127959676E+03  0.00000000000E+00 0. -1.
        -11    1    3    3    0    0 -0.49868363926E+03 -0.95390059702E+02  0.21177760846E+03  0.55012216007E+03  0.00000000000E+00 0.  1.
          4    1    6    6  502    0  0.70793415223E+02  0.56936089142E+02  0.89659251872E+02  0.12764093126E+03  0.00000000000E+00 0. -1.
          3    1    5    5  503    0  0.16342104256E+03 -0.12769278175E+03  0.93847631589E+02  0.22763844495E+03  0.00000000000E+00 0. -1.
         -4    1    5    5    0  503  0.17228280901E+03 -0.25552847843E+03  0.14275587021E+03  0.33964011549E+03  0.00000000000E+00 0.  1.
         -3    1    6    6    0  502  0.29585661014E+03  0.43805486365E+03  0.36960904519E+03  0.64500701052E+03  0.00000000000E+00 0.  1.
<mgrwt>
<rscale>  0 0.18640184E+04</rscale>
<asrwt>0</asrwt>
<pdfrwt beam="1">  1        1 0.24578740E+00 0.18640184E+04</pdfrwt>
<pdfrwt beam="2">  1       -1 0.83647712E-01 0.18640184E+04</pdfrwt>
<totfact> 0.74506632E+00</totfact>
</mgrwt>
</event>
<event>
12    1  0.1960998E-007  0.2220930E+04  0.7818608E-02  0.8509767E-01
          2   -1    0    0  501    0  0.00000000000E+00  0.00000000000E+00  0.20590988439E+04  0.20590988439E+04  0.00000000000E+00 0. -1.
         -2   -1    0    0    0  501 -0.00000000000E+00 -0.00000000000E+00 -0.59886983699E+03  0.59886983699E+03  0.00000000000E+00 0.  1.
         23    2    1    2    0    0  0.31030884376E+03  0.13240538155E+03  0.16434251467E+04  0.16802141465E+04  0.91927155181E+02 0.  0.
        254    2    1    2    0    0 -0.31030884376E+03 -0.13240538155E+03 -0.18319613983E+03  0.97775453431E+03  0.89923319564E+03 0.  0.
        -24    2    4    4    0    0 -0.49558793276E+03  0.49475634258E+02 -0.38886553320E+03  0.63698868605E+03  0.80516742133E+02 0.  0.
         24    2    4    4    0    0  0.18527908900E+03 -0.18188101580E+03  0.20566939338E+03  0.34076584826E+03  0.80077582605E+02 0.  0.
         13    1    3    3    0    0  0.22102586241E+03  0.48527147423E+02  0.10080236359E+04  0.10331113040E+04  0.00000000000E+00 0.  1.
        -13    1    3    3    0    0  0.89282981350E+02  0.83878234122E+02  0.63540151080E+03  0.64710284256E+03  0.00000000000E+00 0. -1.
          4    1    6    6  502    0  0.13634249373E+03 -0.78524157999E+02  0.12024167531E+03  0.19802368411E+03  0.00000000000E+00 0. -1.
          1    1    5    5  503    0 -0.42257730256E+03  0.15498891536E+02 -0.34169629004E+03  0.54366179459E+03  0.00000000000E+00 0. -1.
         -2    1    5    5    0  503 -0.73010630202E+02  0.33976742722E+02 -0.47169243163E+02  0.93326891457E+02  0.00000000000E+00 0.  1.
         -3    1    6    6    0  502  0.48936595268E+02 -0.10335685780E+03  0.85427718067E+02  0.14274216415E+03  0.00000000000E+00 0.  1.
<mgrwt>
<rscale>  0 0.22209297E+04</rscale>
<asrwt>0</asrwt>
<pdfrwt beam="1">  1        2 0.31678443E+00 0.22209297E+04</pdfrwt>
<pdfrwt beam="2">  1       -2 0.92133822E-01 0.22209297E+04</pdfrwt>
<totfact> 0.56561540E+00</totfact>
</mgrwt>
</event>
<event>
12    1  0.1960998E-007  0.1698002E+04  0.7818608E-02  0.8762505E-01
          1   -1    0    0  501    0  0.00000000000E+00  0.00000000000E+00  0.17652325024E+04  0.17652325024E+04  0.00000000000E+00 0. -1.
         -1   -1    0    0    0  501 -0.00000000000E+00 -0.00000000000E+00 -0.40833280695E+03  0.40833280695E+03  0.00000000000E+00 0.  1.
         23    2    1    2    0    0 -0.27597340807E+02  0.51323853372E+03  0.80709727964E+02  0.52808052136E+03  0.90440981488E+02 0.  0.
        254    2    1    2    0    0  0.27597340807E+02 -0.51323853372E+03  0.12761899675E+04  0.16454847880E+04  0.90265383659E+03 0.  0.
        -24    2    4    4    0    0 -0.40954197075E+03 -0.13768816413E+03  0.70392417575E+03  0.82991075179E+03  0.80993545300E+02 0.  0.
         24    2    4    4    0    0  0.43713931156E+03 -0.37555036959E+03  0.57226579177E+03  0.81557403624E+03  0.74458138231E+02 0.  0.
         11    1    3    3    0    0 -0.10852637129E+02  0.46962836935E+03  0.50526019189E+02  0.47246318761E+03  0.00000000000E+00 0.  1.
        -11    1    3    3    0    0 -0.16744703678E+02  0.43610164372E+02  0.30183708775E+02  0.55617333748E+02  0.00000000000E+00 0. -1.
          4    1    6    6  502    0  0.38983106641E+03 -0.33440051703E+03  0.47337538470E+03  0.69848136766E+03  0.00000000000E+00 0. -1.
          3    1    5    5  503    0 -0.34118658415E+03 -0.89565737226E+02  0.52603639658E+03  0.63335976902E+03  0.00000000000E+00 0. -1.
         -4    1    5    5    0  503 -0.68355386602E+02 -0.48122426904E+02  0.17788777917E+03  0.19655098276E+03  0.00000000000E+00 0.  1.
         -3    1    6    6    0  502  0.47308245147E+02 -0.41149852561E+02  0.98890407066E+02  0.11709266858E+03  0.00000000000E+00 0.  1.
<mgrwt>
<rscale>  0 0.16980016E+04</rscale>
<asrwt>0</asrwt>
<pdfrwt beam="1">  1        1 0.27157423E+00 0.16980016E+04</pdfrwt>
<pdfrwt beam="2">  1       -1 0.62820433E-01 0.16980016E+04</pdfrwt>
<totfact> 0.10523792E+01</totfact>
</mgrwt>
</event>
<event>
12    1  0.1960998E-007  0.2120332E+04  0.7818608E-02  0.8552340E-01
          2   -1    0    0  501    0  0.00000000000E+00  0.00000000000E+00  0.17355485706E+04  0.17355485706E+04  0.00000000000E+00 0. -1.
         -2   -1    0    0    0  501 -0.00000000000E+00 -0.00000000000E+00 -0.64760592230E+03  0.64760592230E+03  0.00000000000E+00 0.  1.
         23    2    1    2    0    0 -0.84552578132E+03  0.17803858538E+03  0.38298921192E+03  0.95006216931E+03  0.96570204225E+02 0.  0.
        254    2    1    2    0    0  0.84552578132E+03 -0.17803858538E+03  0.70495343636E+03  0.14330923236E+04  0.90010148079E+03 0.  0.
        -24    2    4    4    0    0  0.38482860721E+03 -0.53093079764E+03  0.40528514006E+03  0.77520545707E+03  0.81895586527E+02 0.  0.
         24    2    4    4    0    0  0.46069717410E+03  0.35289221227E+03  0.29966829629E+03  0.65788686651E+03  0.78988870222E+02 0.  0.
         11    1    3    3    0    0 -0.58692094681E+03  0.16406501741E+03  0.24728900562E+03  0.65768182280E+03  0.00000000000E+00 0. -1.
        -11    1    3    3    0    0 -0.25860483451E+03  0.13973567965E+02  0.13570020630E+03  0.29238034651E+03  0.00000000000E+00 0.  1.
          2    1    6    6  502    0  0.63536129516E+02  0.27918825132E+02  0.58973916624E+02  0.91072627021E+02  0.00000000000E+00 0. -1.
          3    1    5    5  503    0  0.71253971601E+02 -0.15941165695E+03  0.11121586473E+03  0.20702215680E+03  0.00000000000E+00 0. -1.
         -4    1    5    5    0  503  0.31357463561E+03 -0.37151914070E+03  0.29406927533E+03  0.56818330027E+03  0.00000000000E+00 0.  1.
         -1    1    6    6    0  502  0.39716104459E+03  0.32497338714E+03  0.24069437967E+03  0.56681423949E+03  0.00000000000E+00 0.  1.
<mgrwt>
<rscale>  0 0.21203316E+04</rscale>
<asrwt>0</asrwt>
<pdfrwt beam="1">  1        2 0.26700747E+00 0.21203316E+04</pdfrwt>
<pdfrwt beam="2">  1       -2 0.99631681E-01 0.21203316E+04</pdfrwt>
<totfact> 0.71837212E+00</totfact>
</mgrwt>
</event>
<event>
12    1  0.1960998E-007  0.1038653E+04  0.7818608E-02  0.9267138E-01
          1   -1    0    0  501    0  0.00000000000E+00  0.00000000000E+00  0.74297298317E+03  0.74297298317E+03  0.00000000000E+00 0. -1.
         -1   -1    0    0    0  501 -0.00000000000E+00 -0.00000000000E+00 -0.36300093357E+03  0.36300093357E+03  0.00000000000E+00 0.  1.
         23    2    1    2    0    0 -0.81567199050E+02  0.37948173924E+02  0.86487851513E+01  0.12584664191E+03  0.87574562119E+02 0.  0.
        254    2    1    2    0    0  0.81567199050E+02 -0.37948173924E+02  0.37132326444E+03  0.98012727483E+03  0.90259361636E+03 0.  0.
        -24    2    4    4    0    0  0.47317700749E+02 -0.29804899725E+03  0.56426770145E+03  0.64486579571E+03  0.79885455586E+02 0.  0.
         24    2    4    4    0    0  0.34249498301E+02  0.26010082332E+03 -0.19294443701E+03  0.33526147912E+03  0.79669549901E+02 0.  0.
         13    1    3    3    0    0 -0.65893223275E+02  0.29971028506E+02 -0.33805541241E+02  0.79893642062E+02  0.00000000000E+00 0.  1.
        -13    1    3    3    0    0 -0.15673975774E+02  0.79771454180E+01  0.42454326392E+02  0.45952999848E+02  0.00000000000E+00 0. -1.
          4    1    6    6  502    0 -0.14529997773E+02  0.85565722295E+01 -0.53193733468E+01  0.17681388418E+02  0.00000000000E+00 0. -1.
          3    1    5    5  503    0  0.37817875953E+02 -0.47013673385E+02  0.93837799314E+02  0.11156168611E+03  0.00000000000E+00 0. -1.
         -4    1    5    5    0  503  0.94998247956E+01 -0.25103532386E+03  0.47042990214E+03  0.53330410961E+03  0.00000000000E+00 0.  1.
         -3    1    6    6    0  502  0.48779496073E+02  0.25154425109E+03 -0.18762506366E+03  0.31758009070E+03  0.00000000000E+00 0.  1.
<mgrwt>
<rscale>  0 0.10386528E+04</rscale>
<asrwt>0</asrwt>
<pdfrwt beam="1">  1        1 0.11430354E+00 0.10386528E+04</pdfrwt>
<pdfrwt beam="2">  1       -1 0.55846297E-01 0.10386528E+04</pdfrwt>
<totfact> 0.80633030E+01</totfact>
</mgrwt>
</event>
<event>
12    1  0.1960998E-007  0.3297486E+04  0.7818608E-02  0.8163535E-01
         -2   -1    0    0    0  501 -0.00000000000E+00  0.00000000000E+00  0.16969114961E+04  0.16969114961E+04  0.00000000000E+00 0.  1.
          2   -1    0    0  501    0  0.00000000000E+00 -0.00000000000E+00 -0.16019419168E+04  0.16019419168E+04  0.00000000000E+00 0. -1.
         23    2    1    2    0    0  0.13118960082E+04 -0.14801908013E+03 -0.72086803939E+03  0.15069772450E+04  0.91372328887E+02 0.  0.
        254    2    1    2    0    0 -0.13118960082E+04  0.14801908013E+03  0.81583761872E+03  0.17918761679E+04  0.89568320101E+03 0.  0.
        -24    2    4    4    0    0 -0.63786536148E+03  0.30010506699E+03 -0.13303203331E+02  0.70961309931E+03  0.80240294630E+02 0.  0.
         24    2    4    4    0    0 -0.67403064670E+03 -0.15208598686E+03  0.82914082205E+03  0.10822630686E+04  0.79820966727E+02 0.  0.
         11    1    3    3    0    0  0.87001396618E+03 -0.10862526020E+03 -0.52584813328E+03  0.10223697999E+04  0.00000000000E+00 0. -1.
        -11    1    3    3    0    0  0.44188204200E+03 -0.39393819924E+02 -0.19501990611E+03  0.48460744512E+03  0.00000000000E+00 0.  1.
          2    1    6    6  502    0 -0.28199079016E+03 -0.42736258864E+02  0.29006019023E+03  0.40679246245E+03  0.00000000000E+00 0. -1.
          3    1    5    5  503    0 -0.14054503615E+03  0.10027333887E+03  0.11862624057E+02  0.17305597801E+03  0.00000000000E+00 0. -1.
         -4    1    5    5    0  503 -0.49732032534E+03  0.19983172812E+03 -0.25165827388E+02  0.53655712130E+03  0.00000000000E+00 0.  1.
         -1    1    6    6    0  502 -0.39203985654E+03 -0.10934972800E+03  0.53908063182E+03  0.67547060613E+03  0.00000000000E+00 0.  1.
<mgrwt>
<rscale>  0 0.32974861E+04</rscale>
<asrwt>0</asrwt>
<pdfrwt beam="1">  1        2 0.24645260E+00 0.32974861E+04</pdfrwt>
<pdfrwt beam="2">  1       -2 0.26106331E+00 0.32974861E+04</pdfrwt>
<totfact> 0.51076714E-01</totfact>
</mgrwt>
</event>
<event>
12    1  0.1960998E-007  0.1357529E+04  0.7818608E-02  0.8985148E-01
         -2   -1    0    0    0  501 -0.00000000000E+00  0.00000000000E+00  0.14109181710E+03  0.14109181710E+03  0.00000000000E+00 0.  1.
          2   -1    0    0  501    0  0.00000000000E+00 -0.00000000000E+00 -0.32654020363E+04  0.32654020363E+04  0.00000000000E+00 0. -1.
         23    2    1    2    0    0  0.12780174327E+03 -0.33058583012E+03 -0.59173706448E+03  0.69573775602E+03  0.90983487554E+02 0.  0.
        254    2    1    2    0    0 -0.12780174327E+03  0.33058583012E+03 -0.25325731547E+04  0.27107560974E+04  0.89925055395E+03 0.  0.
        -24    2    4    4    0    0 -0.36133415227E+03 -0.10632707880E+03 -0.59209807427E+03  0.70641186542E+03  0.81054159462E+02 0.  0.
         24    2    4    4    0    0  0.23353240900E+03  0.43691290892E+03 -0.19404750805E+04  0.20043442320E+04  0.80758815640E+02 0.  0.
         13    1    3    3    0    0 -0.22974445689E+01 -0.73456499753E+01 -0.56854916649E+02  0.57373498868E+02  0.00000000000E+00 0. -1.
        -13    1    3    3    0    0  0.13009918784E+03 -0.32324018015E+03 -0.53488214783E+03  0.63836425715E+03  0.00000000000E+00 0.  1.
          4    1    6    6  502    0  0.12384570693E+03  0.16781249421E+03 -0.91662578458E+03  0.94005405233E+03  0.00000000000E+00 0. -1.
          1    1    5    5  503    0 -0.31201721041E+03 -0.60286544296E+02 -0.49114307921E+03  0.58498780437E+03  0.00000000000E+00 0. -1.
         -2    1    5    5    0  503 -0.49316941859E+02 -0.46040534504E+02 -0.10095499506E+03  0.12142406104E+03  0.00000000000E+00 0.  1.
         -3    1    6    6    0  502  0.10968670207E+03  0.26910041471E+03 -0.10238492959E+04  0.10642901796E+04  0.00000000000E+00 0.  1.
<mgrwt>
<rscale>  0 0.13575294E+04</rscale>
<asrwt>0</asrwt>
<pdfrwt beam="1">  1        2 0.50236954E+00 0.13575294E+04</pdfrwt>
<pdfrwt beam="2">  1       -2 0.21706434E-01 0.13575294E+04</pdfrwt>
<totfact> 0.21508504E+01</totfact>
</mgrwt>
</event>
<event>
12    1  0.1960998E-007  0.2913305E+04  0.7818608E-02  0.8268930E-01
          1   -1    0    0  501    0  0.00000000000E+00  0.00000000000E+00  0.96609720033E+03  0.96609720033E+03  0.00000000000E+00 0. -1.
         -1   -1    0    0    0  501 -0.00000000000E+00 -0.00000000000E+00 -0.21962972712E+04  0.21962972712E+04  0.00000000000E+00 0.  1.
         23    2    1    2    0    0 -0.37538163529E+03  0.73122182760E+03 -0.16763501395E+04  0.18693017256E+04  0.92425200585E+02 0.  0.
        254    2    1    2    0    0  0.37538163529E+03 -0.73122182760E+03  0.44615006869E+03  0.12930927459E+04  0.89299621079E+03 0.  0.
        -24    2    4    4    0    0  0.39553309587E+02  0.16213148545E+03 -0.73924534697E+02  0.20336810338E+03  0.89680910831E+02 0.  0.
         24    2    4    4    0    0  0.33582832570E+03 -0.89335331305E+03  0.52007460339E+03  0.10897246425E+04  0.78494567931E+02 0.  0.
         11    1    3    3    0    0 -0.23962882389E+03  0.36595956314E+03 -0.89302997122E+03  0.99440982728E+03  0.00000000000E+00 0.  1.
        -11    1    3    3    0    0 -0.13575281140E+03  0.36526226445E+03 -0.78332016831E+03  0.87489189830E+03  0.00000000000E+00 0. -1.
          4    1    6    6  502    0  0.12571655626E+02 -0.14394561132E+02  0.13817234098E+01  0.19161395433E+02  0.00000000000E+00 0. -1.
          1    1    5    5  503    0 -0.28406239527E+02  0.51840352372E+02 -0.31920905968E+02  0.67180955754E+02  0.00000000000E+00 0. -1.
         -2    1    5    5    0  503  0.67959549114E+02  0.11029113308E+03 -0.42003628729E+02  0.13618714762E+03  0.00000000000E+00 0.  1.
         -3    1    6    6    0  502  0.32325667007E+03 -0.87895875191E+03  0.51869287998E+03  0.10705632471E+04  0.00000000000E+00 0.  1.
<mgrwt>
<rscale>  0 0.29133051E+04</rscale>
<asrwt>0</asrwt>
<pdfrwt beam="1">  1        1 0.14863034E+00 0.29133051E+04</pdfrwt>
<pdfrwt beam="2">  1       -1 0.33789189E+00 0.29133051E+04</pdfrwt>
<totfact> 0.25770920E-01</totfact>
</mgrwt>
</event>
<event>
12    1  0.1960998E-007  0.1752716E+04  0.7818608E-02  0.8731857E-01
          2   -1    0    0  501    0  0.00000000000E+00  0.00000000000E+00  0.10748149259E+04  0.10748149259E+04  0.00000000000E+00 0.  1.
         -2   -1    0    0    0  501 -0.00000000000E+00 -0.00000000000E+00 -0.71454503673E+03  0.71454503673E+03  0.00000000000E+00 0. -1.
         23    2    1    2    0    0 -0.17635270600E+03  0.61495501485E+03  0.17955441804E+03  0.67087312552E+03  0.92525749383E+02 0.  0.
        254    2    1    2    0    0  0.17635270600E+03 -0.61495501485E+03  0.18071547117E+03  0.11184868372E+04  0.89949139860E+03 0.  0.
        -24    2    4    4    0    0 -0.19142094460E+03 -0.51429740195E+03  0.38865013514E+03  0.67731728790E+03  0.81030767445E+02 0.  0.
         24    2    4    4    0    0  0.36777365060E+03 -0.10065761291E+03 -0.20793466396E+03  0.44116954925E+03  0.77487635134E+02 0.  0.
         13    1    3    3    0    0 -0.14079219863E+03  0.47964496206E+03  0.99515077710E+02  0.50969106675E+03  0.00000000000E+00 0. -1.
        -13    1    3    3    0    0 -0.35560507368E+02  0.13531005279E+03  0.80039340326E+02  0.16118205877E+03  0.00000000000E+00 0.  1.
          2    1    6    6  502    0  0.87926419895E+02 -0.43701156027E+01 -0.19023994143E+02  0.90067006051E+02  0.00000000000E+00 0. -1.
          3    1    5    5  503    0 -0.35451495925E+02 -0.14574726218E+03  0.68866436752E+02  0.16505047443E+03  0.00000000000E+00 0. -1.
         -4    1    5    5    0  503 -0.15596944867E+03 -0.36855013976E+03  0.31978369838E+03  0.51226681348E+03  0.00000000000E+00 0.  1.
         -1    1    6    6    0  502  0.27984723070E+03 -0.96287497305E+02 -0.18891066982E+03  0.35110254320E+03  0.00000000000E+00 0.  1.
<mgrwt>
<rscale>  0 0.17527164E+04</rscale>
<asrwt>0</asrwt>
<pdfrwt beam="1">  1        2 0.16535614E+00 0.17527164E+04</pdfrwt>
<pdfrwt beam="2">  1       -2 0.10993001E+00 0.17527164E+04</pdfrwt>
<totfact> 0.14085223E+01</totfact>
</mgrwt>
</event>
<event>
12    1  0.1960998E-007  0.2932996E+04  0.7818608E-02  0.8263127E-01
         -1   -1    0    0    0  501 -0.00000000000E+00  0.00000000000E+00  0.20491014265E+04  0.20491014265E+04  0.00000000000E+00 0.  1.
          1   -1    0    0  501    0  0.00000000000E+00 -0.00000000000E+00 -0.10495415615E+04  0.10495415615E+04  0.00000000000E+00 0. -1.
         23    2    1    2    0    0 -0.17875831168E+03  0.12850009218E+04  0.16776423833E+03  0.13113605422E+04  0.91322115796E+02 0.  0.
        254    2    1    2    0    0  0.17875831168E+03 -0.12850009218E+04  0.83179562673E+03  0.17872824458E+04  0.90515892164E+03 0.  0.
        -24    2    4    4    0    0 -0.17814285844E+03 -0.99324600380E+03  0.25308212192E+03  0.10434801940E+04  0.80795128297E+02 0.  0.
         24    2    4    4    0    0  0.35690117013E+03 -0.29175491803E+03  0.57871350481E+03  0.74380225183E+03  0.76374680002E+02 0.  0.
         11    1    3    3    0    0 -0.96782073740E+02  0.61476311336E+03  0.35873072376E+02  0.62336773470E+03  0.00000000000E+00 0. -1.
        -11    1    3    3    0    0 -0.81976237945E+02  0.67023780847E+03  0.13189116595E+03  0.68799280748E+03  0.00000000000E+00 0.  1.
          2    1    6    6  502    0  0.10231258145E+03 -0.68817563479E+02  0.10698248729E+03  0.16324513455E+03  0.00000000000E+00 0. -1.
          1    1    5    5  503    0 -0.77131462544E+01 -0.38468227108E+02  0.26947172209E+02  0.47596714299E+02  0.00000000000E+00 0. -1.
         -2    1    5    5    0  503 -0.17042971219E+03 -0.95477777669E+03  0.22613494971E+03  0.99588347970E+03  0.00000000000E+00 0.  1.
         -1    1    6    6    0  502  0.25458858868E+03 -0.22293735455E+03  0.47173101752E+03  0.58055711728E+03  0.00000000000E+00 0.  1.
<mgrwt>
<rscale>  0 0.29329965E+04</rscale>
<asrwt>0</asrwt>
<pdfrwt beam="1">  1        1 0.16146793E+00 0.29329965E+04</pdfrwt>
<pdfrwt beam="2">  1       -1 0.31524637E+00 0.29329965E+04</pdfrwt>
<totfact> 0.31158405E-01</totfact>
</mgrwt>
</event>
<event>
12    1  0.1960998E-007  0.3030640E+04  0.7818608E-02  0.8235035E-01
         -1   -1    0    0    0  501 -0.00000000000E+00  0.00000000000E+00  0.12848308975E+04  0.12848308975E+04  0.00000000000E+00 0.  1.
          1   -1    0    0  501    0  0.00000000000E+00 -0.00000000000E+00 -0.17871576702E+04  0.17871576702E+04  0.00000000000E+00 0. -1.
         23    2    1    2    0    0 -0.66476753869E+03 -0.48748127029E+03  0.89193923752E+03  0.12179886501E+04  0.91579904544E+02 0.  0.
        254    2    1    2    0    0  0.66476753869E+03  0.48748127029E+03 -0.13942660102E+04  0.18539999175E+04  0.90209983792E+03 0.  0.
        -24    2    4    4    0    0  0.18524489217E+02  0.49897303156E+02  0.11702966222E+03  0.15101277773E+03  0.79221333218E+02 0.  0.
         24    2    4    4    0    0  0.64624304948E+03  0.43758396713E+03 -0.15112956724E+04  0.17029871398E+04  0.83909364879E+02 0.  0.
         13    1    3    3    0    0 -0.64875010375E+02 -0.33711858017E+02  0.11750568477E+03  0.13839379428E+03  0.00000000000E+00 0.  1.
        -13    1    3    3    0    0 -0.59989252832E+03 -0.45376941227E+03  0.77443355275E+03  0.10795948558E+04  0.00000000000E+00 0. -1.
          2    1    6    6  502    0  0.62621252448E+02  0.72589845158E+02 -0.20985048842E+03  0.23071179937E+03  0.00000000000E+00 0. -1.
          3    1    5    5  503    0  0.27748241679E+01 -0.20837007095E+02  0.14818380462E+02  0.25718960192E+02  0.00000000000E+00 0. -1.
         -4    1    5    5    0  503  0.15749665049E+02  0.70734310251E+02  0.10221128176E+03  0.12529381754E+03  0.00000000000E+00 0.  1.
         -1    1    6    6    0  502  0.58362179703E+03  0.36499412197E+03 -0.13014451840E+04  0.14722753404E+04  0.00000000000E+00 0.  1.
<mgrwt>
<rscale>  0 0.30306405E+04</rscale>
<asrwt>0</asrwt>
<pdfrwt beam="1">  1        1 0.27494733E+00 0.30306405E+04</pdfrwt>
<pdfrwt beam="2">  1       -1 0.19766629E+00 0.30306405E+04</pdfrwt>
<totfact> 0.55119178E-01</totfact>
</mgrwt>
</event>
<event>
12    1  0.1960998E-007  0.3039481E+04  0.7818608E-02  0.8232546E-01
          2   -1    0    0  501    0  0.00000000000E+00  0.00000000000E+00  0.25411495525E+04  0.25411495525E+04  0.00000000000E+00 0. -1.
         -2   -1    0    0    0  501 -0.00000000000E+00 -0.00000000000E+00 -0.90888431733E+03  0.90888431733E+03  0.00000000000E+00 0.  1.
         23    2    1    2    0    0 -0.69748526379E+03 -0.98821077056E+03 -0.16810127455E+02  0.12130954013E+04  0.90948622768E+02 0.  0.
        254    2    1    2    0    0  0.69748526379E+03  0.98821077056E+03  0.16490753626E+04  0.22369384685E+04  0.90631006844E+03 0.  0.
        -24    2    4    4    0    0  0.88643557499E+03  0.81468215135E+03  0.11332566607E+04  0.16554259087E+04  0.81787797475E+02 0.  0.
         24    2    4    4    0    0 -0.18895031120E+03  0.17352861921E+03  0.51581870191E+03  0.58151255984E+03  0.79205569372E+02 0.  0.
         11    1    3    3    0    0 -0.40500946739E+03 -0.58629613427E+03  0.34279019840E+02  0.71340793164E+03  0.00000000000E+00 0.  1.
        -11    1    3    3    0    0 -0.29247579641E+03 -0.40191463629E+03 -0.51089147294E+02  0.49968746964E+03  0.00000000000E+00 0. -1.
          2    1    6    6  502    0 -0.92861707482E+02  0.34620438389E+02  0.17415365268E+03  0.20037805822E+03  0.00000000000E+00 0. -1.
          1    1    5    5  503    0  0.24691346926E+02  0.30416018143E+02  0.57469926719E+02  0.69552780317E+02  0.00000000000E+00 0. -1.
         -2    1    5    5    0  503  0.86174422807E+03  0.78426613320E+03  0.10757867340E+04  0.15858731284E+04  0.00000000000E+00 0.  1.
         -1    1    6    6    0  502 -0.96088603716E+02  0.13890818082E+03  0.34166504923E+03  0.38113450162E+03  0.00000000000E+00 0.  1.
<mgrwt>
<rscale>  0 0.30394809E+04</rscale>
<asrwt>0</asrwt>
<pdfrwt beam="1">  1        2 0.39094608E+00 0.30394809E+04</pdfrwt>
<pdfrwt beam="2">  1       -2 0.13982836E+00 0.30394809E+04</pdfrwt>
<totfact> 0.10125830E+00</totfact>
</mgrwt>
</event>
<event>
12    1  0.1960998E-007  0.3194540E+04  0.7818608E-02  0.8190261E-01
          1   -1    0    0  501    0  0.00000000000E+00  0.00000000000E+00  0.11552456507E+04  0.11552456507E+04  0.00000000000E+00 0. -1.
         -1   -1    0    0    0  501 -0.00000000000E+00 -0.00000000000E+00 -0.22084239674E+04  0.22084239674E+04  0.00000000000E+00 0.  1.
         23    2    1    2    0    0  0.79056723739E+03  0.11549192741E+04 -0.95413515223E+03  0.16963949822E+04  0.92449771814E+02 0.  0.
        254    2    1    2    0    0 -0.79056723739E+03 -0.11549192741E+04 -0.99043164470E+02  0.16672746360E+04  0.90064425648E+03 0.  0.
        -24    2    4    4    0    0 -0.73263623767E+03 -0.37496155844E+03 -0.25626009682E+03  0.86554269892E+03  0.78376650657E+02 0.  0.
         24    2    4    4    0    0 -0.57930999715E+02 -0.77995771567E+03  0.15721693235E+03  0.80173193704E+03  0.79792832322E+02 0.  0.
         11    1    3    3    0    0  0.76925797993E+03  0.11207931196E+04 -0.90589355188E+03  0.16335783372E+04  0.00000000000E+00 0. -1.
        -11    1    3    3    0    0  0.21309257454E+02  0.34126154530E+02 -0.48241600353E+02  0.62816644935E+02  0.00000000000E+00 0.  1.
          4    1    6    6  502    0 -0.18168454417E+02 -0.61567938618E+03  0.10503964789E+03  0.62483960096E+03  0.00000000000E+00 0. -1.
          1    1    5    5  503    0 -0.42741435701E+03 -0.23911992489E+03 -0.11663218776E+03  0.50345251840E+03  0.00000000000E+00 0. -1.
         -2    1    5    5    0  503 -0.30522188066E+03 -0.13584163355E+03 -0.13962790907E+03  0.36209018052E+03  0.00000000000E+00 0.  1.
         -3    1    6    6    0  502 -0.39762545298E+02 -0.16427832949E+03  0.52177284465E+02  0.17689233608E+03  0.00000000000E+00 0.  1.
<mgrwt>
<rscale>  0 0.31945405E+04</rscale>
<asrwt>0</asrwt>
<pdfrwt beam="1">  1        1 0.17773010E+00 0.31945405E+04</pdfrwt>
<pdfrwt beam="2">  1       -1 0.33975753E+00 0.31945405E+04</pdfrwt>
<totfact> 0.17518900E-01</totfact>
</mgrwt>
</event>
<event>
12    1  0.2644883E-007  0.2906974E+04  0.7818608E-02  0.8270806E-01
          2   -1    0    0  501    0  0.00000000000E+00  0.00000000000E+00  0.16189578985E+04  0.16189578985E+04  0.00000000000E+00 0.  1.
         -2   -1    0    0    0  501 -0.00000000000E+00 -0.00000000000E+00 -0.13049283861E+04  0.13049283861E+04  0.00000000000E+00 0. -1.
         23    2    1    2    0    0 -0.72294904491E+02  0.12977140370E+04  0.32852005257E+03  0.13429507645E+04  0.79391788665E+02 0.  0.
        254    2    1    2    0    0  0.72294904491E+02 -0.12977140370E+04 -0.14490540122E+02  0.15809355201E+04  0.89992158989E+03 0.  0.
        -24    2    4    4    0    0  0.34039293432E+02 -0.12831150776E+04  0.24130127501E+03  0.13084940544E+04  0.79921269500E+02 0.  0.
         24    2    4    4    0    0  0.38255611059E+02 -0.14598959358E+02 -0.25579181513E+03  0.27244146564E+03  0.84369888696E+02 0.  0.
         11    1    3    3    0    0  0.72409544221E+01  0.41909931109E+03  0.12759655171E+03  0.43815242095E+03  0.00000000000E+00 0. -1.
        -11    1    3    3    0    0 -0.79535858913E+02  0.87861472588E+03  0.20092350086E+03  0.90479834360E+03  0.00000000000E+00 0.  1.
          2    1    6    6  502    0  0.37162025175E+02 -0.45152900266E+02 -0.20480829948E+03  0.21299352116E+03  0.00000000000E+00 0. -1.
          1    1    5    5  503    0  0.31708105412E+02 -0.12459364572E+04  0.24764821891E+03  0.12707055913E+04  0.00000000000E+00 0. -1.
         -2    1    5    5    0  503  0.23311880197E+01 -0.37178620362E+02 -0.63469439059E+01  0.37788463141E+02  0.00000000000E+00 0.  1.
         -1    1    6    6    0  502  0.10935858839E+01  0.30553940908E+02 -0.50983515648E+02  0.59447944480E+02  0.00000000000E+00 0.  1.
<mgrwt>
<rscale>  0 0.29069738E+04</rscale>
<asrwt>0</asrwt>
<pdfrwt beam="1">  1        2 0.24907045E+00 0.29069738E+04</pdfrwt>
<pdfrwt beam="2">  1       -2 0.20075821E+00 0.29069738E+04</pdfrwt>
<totfact> 0.12344050E+00</totfact>
</mgrwt>
</event>
<event>
12    1  0.1960998E-007  0.1914438E+04  0.7818608E-02  0.8647703E-01
         -2   -1    0    0    0  501 -0.00000000000E+00  0.00000000000E+00  0.43093777703E+03  0.43093777703E+03  0.00000000000E+00 0.  1.
          2   -1    0    0  501    0  0.00000000000E+00 -0.00000000000E+00 -0.21262182835E+04  0.21262182835E+04  0.00000000000E+00 0. -1.
         23    2    1    2    0    0  0.62224051981E+03 -0.20164922119E+03 -0.11316377126E+04  0.13100824074E+04  0.88692326553E+02 0.  0.
        254    2    1    2    0    0 -0.62224051981E+03  0.20164922119E+03 -0.56364279390E+03  0.12470736531E+04  0.89980765963E+03 0.  0.
        -24    2    4    4    0    0 -0.10187036029E+03  0.42219350108E+03 -0.50826441591E+03  0.67320812663E+03  0.79066697295E+02 0.  0.
         24    2    4    4    0    0 -0.52037015952E+03 -0.22054427990E+03 -0.55378377987E+02  0.57386552650E+03  0.82643786433E+02 0.  0.
         11    1    3    3    0    0  0.57063733774E+03 -0.16990640760E+03 -0.10641562235E+04  0.12193947788E+04  0.00000000000E+00 0. -1.
        -11    1    3    3    0    0  0.51603182070E+02 -0.31742813584E+02 -0.67481489068E+02  0.90687628599E+02  0.00000000000E+00 0.  1.
          2    1    6    6  502    0 -0.22742056989E+02  0.68527683749E+01 -0.61332818228E+01  0.24531178863E+02  0.00000000000E+00 0. -1.
          3    1    5    5  503    0 -0.95618518503E+02  0.23916740616E+03 -0.31614404586E+03  0.40778794365E+03  0.00000000000E+00 0. -1.
         -4    1    5    5    0  503 -0.62518417830E+01  0.18302609492E+03 -0.19212037005E+03  0.26542018299E+03  0.00000000000E+00 0.  1.
         -1    1    6    6    0  502 -0.49762810254E+03 -0.22739704827E+03 -0.49245096164E+02  0.54933434764E+03  0.00000000000E+00 0.  1.
<mgrwt>
<rscale>  0 0.19144375E+04</rscale>
<asrwt>0</asrwt>
<pdfrwt beam="1">  1        2 0.32711051E+00 0.19144375E+04</pdfrwt>
<pdfrwt beam="2">  1       -2 0.66298119E-01 0.19144375E+04</pdfrwt>
<totfact> 0.11117477E+01</totfact>
</mgrwt>
</event>
<event>
12    1  0.1960998E-007  0.1134666E+04  0.7818608E-02  0.9172048E-01
          2   -1    0    0  501    0  0.00000000000E+00  0.00000000000E+00  0.17459337088E+04  0.17459337088E+04  0.00000000000E+00 0. -1.
         -2   -1    0    0    0  501 -0.00000000000E+00 -0.00000000000E+00 -0.18435214626E+03  0.18435214626E+03  0.00000000000E+00 0.  1.
         23    2    1    2    0    0 -0.95170038317E+02  0.96133687343E+02  0.60452083431E+02  0.17457425977E+03  0.92318447491E+02 0.  0.
        254    2    1    2    0    0  0.95170038317E+02 -0.96133687343E+02  0.15011294791E+04  0.17557115952E+04  0.90046347550E+03 0.  0.
        -24    2    4    4    0    0  0.35775582928E+03  0.54012263842E+02  0.13654352679E+04  0.14148697064E+04  0.80847122622E+02 0.  0.
         24    2    4    4    0    0 -0.26258579096E+03 -0.15014595119E+03  0.13569421114E+03  0.34084188882E+03  0.79152826628E+02 0.  0.
         11    1    3    3    0    0 -0.31716720316E+02  0.14000511454E+01  0.51114662420E+02  0.60171581374E+02  0.00000000000E+00 0. -1.
        -11    1    3    3    0    0 -0.63453318001E+02  0.94733636198E+02  0.93374210115E+01  0.11440267839E+03  0.00000000000E+00 0.  1.
          4    1    6    6  502    0 -0.16113591595E+03 -0.12507168087E+03  0.62801208406E+02  0.21342844361E+03  0.00000000000E+00 0. -1.
          3    1    5    5  503    0  0.24559108790E+03  0.73706962238E+02  0.97665666147E+03  0.10097553828E+04  0.00000000000E+00 0. -1.
         -4    1    5    5    0  503  0.11216474138E+03 -0.19694698395E+02  0.38877860646E+03  0.40511432361E+03  0.00000000000E+00 0.  1.
         -3    1    6    6    0  502 -0.10144987501E+03 -0.25074270312E+02  0.72893002731E+02  0.12741344520E+03  0.00000000000E+00 0.  1.
<mgrwt>
<rscale>  0 0.11346658E+04</rscale>
<asrwt>0</asrwt>
<pdfrwt beam="1">  1        2 0.26860517E+00 0.11346658E+04</pdfrwt>
<pdfrwt beam="2">  1       -2 0.28361870E-01 0.11346658E+04</pdfrwt>
<totfact> 0.10430265E+02</totfact>
</mgrwt>
</event>
<event>
12    1  0.1960998E-007  0.3255955E+04  0.7818608E-02  0.8174194E-01
          2   -1    0    0  501    0  0.00000000000E+00  0.00000000000E+00  0.19438706299E+04  0.19438706299E+04  0.00000000000E+00 0. -1.
         -2   -1    0    0    0  501 -0.00000000000E+00 -0.00000000000E+00 -0.13634193721E+04  0.13634193721E+04  0.00000000000E+00 0.  1.
         23    2    1    2    0    0  0.22228265167E+03 -0.14295564740E+04  0.67304846845E+03  0.16006389080E+04  0.12652819157E+03 0.  0.
        254    2    1    2    0    0 -0.22228265167E+03  0.14295564740E+04 -0.92597210648E+02  0.17066510940E+04  0.90057893811E+03 0.  0.
        -24    2    4    4    0    0 -0.22105653344E+03  0.12155821339E+04 -0.41995321164E+03  0.13073485701E+04  0.79332645775E+02 0.  0.
         24    2    4    4    0    0 -0.12261182287E+01  0.21397434016E+03  0.32735600100E+03  0.39930252394E+03  0.80585560878E+02 0.  0.
         13    1    3    3    0    0  0.22688312877E+02 -0.51983310515E+03  0.26277086665E+03  0.58291486952E+03  0.00000000000E+00 0. -1.
        -13    1    3    3    0    0  0.19959433879E+03 -0.90972336886E+03  0.41027760180E+03  0.10177240385E+04  0.00000000000E+00 0.  1.
          2    1    6    6  502    0  0.36550817683E+02  0.12449958166E+03  0.21141427255E+03  0.24805665229E+03  0.00000000000E+00 0. -1.
          3    1    5    5  503    0 -0.20527667443E+03  0.99634713276E+03 -0.36508021673E+03  0.10808004842E+04  0.00000000000E+00 0. -1.
         -4    1    5    5    0  503 -0.15779859013E+02  0.21923500109E+03 -0.54872994911E+02  0.22654808590E+03  0.00000000000E+00 0.  1.
         -1    1    6    6    0  502 -0.37776935912E+02  0.89474758506E+02  0.11594172844E+03  0.15124587165E+03  0.00000000000E+00 0.  1.
<mgrwt>
<rscale>  0 0.32559551E+04</rscale>
<asrwt>0</asrwt>
<pdfrwt beam="1">  1        2 0.29905702E+00 0.32559551E+04</pdfrwt>
<pdfrwt beam="2">  1       -2 0.20975683E+00 0.32559551E+04</pdfrwt>
<totfact> 0.69161429E-01</totfact>
</mgrwt>
</event>
<event>
12    1  0.1960998E-007  0.1378217E+04  0.7818608E-02  0.8969739E-01
          2   -1    0    0  501    0  0.00000000000E+00  0.00000000000E+00  0.76670938000E+03  0.76670938000E+03  0.00000000000E+00 0. -1.
         -2   -1    0    0    0  501 -0.00000000000E+00 -0.00000000000E+00 -0.61936160919E+03  0.61936160919E+03  0.00000000000E+00 0.  1.
         23    2    1    2    0    0 -0.97425038307E+02  0.36902211513E+03  0.10098694124E+03  0.40834970942E+03  0.10431760800E+03 0.  0.
        254    2    1    2    0    0  0.97425038307E+02 -0.36902211513E+03  0.46360829563E+02  0.97772127977E+03  0.89895529080E+03 0.  0.
        -24    2    4    4    0    0  0.39403002527E+03 -0.13611382800E+03  0.29667622669E+03  0.51813666612E+03  0.81622217009E+02 0.  0.
         24    2    4    4    0    0 -0.29660498696E+03 -0.23290828713E+03 -0.25031539712E+03  0.45958461365E+03  0.79620541096E+02 0.  0.
         13    1    3    3    0    0 -0.10567684816E+02  0.22289170162E+03  0.80068735138E+02  0.23707253945E+03  0.00000000000E+00 0.  1.
        -13    1    3    3    0    0 -0.86857353491E+02  0.14613041351E+03  0.20918206107E+02  0.17127716997E+03  0.00000000000E+00 0. -1.
          2    1    6    6  502    0 -0.25595666359E+03 -0.21288538697E+03 -0.18736018131E+03  0.38201811366E+03  0.00000000000E+00 0. -1.
          1    1    5    5  503    0  0.16670061762E+03 -0.16711828867E+02  0.12921417549E+03  0.21157666290E+03  0.00000000000E+00 0. -1.
         -2    1    5    5    0  503  0.22732940765E+03 -0.11940199913E+03  0.16746205120E+03  0.30656000321E+03  0.00000000000E+00 0.  1.
         -1    1    6    6    0  502 -0.40648323371E+02 -0.20022900164E+02 -0.62955215810E+02  0.77566499995E+02  0.00000000000E+00 0.  1.
<mgrwt>
<rscale>  0 0.13782168E+04</rscale>
<asrwt>0</asrwt>
<pdfrwt beam="1">  1        2 0.11795529E+00 0.13782168E+04</pdfrwt>
<pdfrwt beam="2">  1       -2 0.95286402E-01 0.13782168E+04</pdfrwt>
<totfact> 0.32881856E+01</totfact>
</mgrwt>
</event>
<event>
12    1  0.1960998E-007  0.3802215E+04  0.7818608E-02  0.8045680E-01
         -2   -1    0    0    0  501 -0.00000000000E+00  0.00000000000E+00  0.24548591056E+04  0.24548591056E+04  0.00000000000E+00 0.  1.
          2   -1    0    0  501    0  0.00000000000E+00 -0.00000000000E+00 -0.14722677800E+04  0.14722677800E+04  0.00000000000E+00 0. -1.
         23    2    1    2    0    0 -0.28167043855E+03 -0.17684789474E+04  0.34592805264E+03  0.18259550597E+04  0.87118536089E+02 0.  0.
        254    2    1    2    0    0  0.28167043855E+03  0.17684789474E+04  0.63666327298E+03  0.21011718258E+04  0.89595027507E+03 0.  0.
        -24    2    4    4    0    0  0.44549317382E+03  0.42839637916E+03  0.36322215241E+03  0.72117773466E+03  0.78608952258E+02 0.  0.
         24    2    4    4    0    0 -0.16382273528E+03  0.13400825682E+04  0.27344112057E+03  0.13799940912E+04  0.83393447633E+02 0.  0.
         11    1    3    3    0    0 -0.20227885222E+03 -0.11367393451E+04  0.18616764009E+03  0.11695090692E+04  0.00000000000E+00 0. -1.
        -11    1    3    3    0    0 -0.79391586320E+02 -0.63173960223E+03  0.15976041254E+03  0.65644599048E+03  0.00000000000E+00 0.  1.
          4    1    6    6  502    0 -0.11453137401E+03  0.71496157000E+03  0.11418028138E+03  0.73302429623E+03  0.00000000000E+00 0. -1.
          1    1    5    5  503    0  0.24023290718E+03  0.26479142465E+03  0.24421247179E+03  0.43297353226E+03  0.00000000000E+00 0. -1.
         -2    1    5    5    0  503  0.20526026664E+03  0.16360495451E+03  0.11900968062E+03  0.28820420240E+03  0.00000000000E+00 0.  1.
         -3    1    6    6    0  502 -0.49291361265E+02  0.62512099819E+03  0.15926083919E+03  0.64696979495E+03  0.00000000000E+00 0.  1.
<mgrwt>
<rscale>  0 0.38022151E+04</rscale>
<asrwt>0</asrwt>
<pdfrwt beam="1">  1        2 0.22650274E+00 0.38022151E+04</pdfrwt>
<pdfrwt beam="2">  1       -2 0.37767063E+00 0.38022151E+04</pdfrwt>
<totfact> 0.10929578E-01</totfact>
</mgrwt>
</event>
<event>
12    1  0.1960998E-007  0.1898267E+04  0.7818608E-02  0.8655719E-01
         -2   -1    0    0    0  501 -0.00000000000E+00  0.00000000000E+00  0.10467101498E+04  0.10467101498E+04  0.00000000000E+00 0. -1.
          2   -1    0    0  501    0  0.00000000000E+00 -0.00000000000E+00 -0.86065327254E+03  0.86065327254E+03  0.00000000000E+00 0.  1.
         23    2    1    2    0    0  0.47503854861E+03 -0.21754612608E+03 -0.44162369548E+03  0.69022697197E+03  0.91617928363E+02 0.  0.
        254    2    1    2    0    0 -0.47503854861E+03  0.21754612608E+03  0.62768057273E+03  0.12171364504E+04  0.90246900101E+03 0.  0.
        -24    2    4    4    0    0 -0.67323401850E+03  0.37455660970E+03  0.50681385655E+03  0.92558578941E+03  0.79448542010E+02 0.  0.
         24    2    4    4    0    0  0.19819546989E+03 -0.15701048363E+03  0.12086671618E+03  0.29155066095E+03  0.80369699329E+02 0.  0.
         11    1    3    3    0    0  0.28198276666E+03 -0.15788888081E+03 -0.31772820174E+03  0.45320457804E+03  0.00000000000E+00 0.  1.
        -11    1    3    3    0    0  0.19305578195E+03 -0.59657245269E+02 -0.12389549373E+03  0.23702239393E+03  0.00000000000E+00 0. -1.
          2    1    6    6  502    0  0.85732329205E+02 -0.11479322877E+03  0.48244499796E+02  0.15117886559E+03  0.00000000000E+00 0. -1.
          3    1    5    5  503    0 -0.10073645758E+03  0.78860833502E+02  0.11098403077E+03  0.16936445918E+03  0.00000000000E+00 0. -1.
         -4    1    5    5    0  503 -0.57249756091E+03  0.29569577620E+03  0.39582982578E+03  0.75622133023E+03  0.00000000000E+00 0.  1.
         -1    1    6    6    0  502  0.11246314068E+03 -0.42217254858E+02  0.72622216384E+02  0.14037179536E+03  0.00000000000E+00 0.  1.
<mgrwt>
<rscale>  0 0.18982671E+04</rscale>
<asrwt>0</asrwt>
<pdfrwt beam="1">  1        2 0.13240820E+00 0.18982671E+04</pdfrwt>
<pdfrwt beam="2">  1       -2 0.16103233E+00 0.18982671E+04</pdfrwt>
<totfact> 0.72310982E+00</totfact>
</mgrwt>
</event>
<event>
12    1  0.1960998E-007  0.3011114E+04  0.7818608E-02  0.8240564E-01
          2   -1    0    0  501    0  0.00000000000E+00  0.00000000000E+00  0.29812392263E+04  0.29812392263E+04  0.00000000000E+00 0. -1.
         -2   -1    0    0    0  501 -0.00000000000E+00 -0.00000000000E+00 -0.76032223697E+03  0.76032223697E+03  0.00000000000E+00 0.  1.
         23    2    1    2    0    0  0.10043909657E+04  0.50527897987E+03  0.19836953733E+04  0.22819863906E+04  0.91139966132E+02 0.  0.
        254    2    1    2    0    0 -0.10043909657E+04 -0.50527897987E+03  0.23722161604E+03  0.14595750727E+04  0.89998735449E+03 0.  0.
        -24    2    4    4    0    0  0.27978669015E+02 -0.48057372391E+02  0.30977557878E+03  0.32538816972E+03  0.82608927024E+02 0.  0.
         24    2    4    4    0    0 -0.10323696347E+04 -0.45722160748E+03 -0.72553962739E+02  0.11341869030E+04  0.79228734403E+02 0.  0.
         11    1    3    3    0    0  0.30130886518E+03  0.11495972606E+03  0.61946150224E+03  0.69838050059E+03  0.00000000000E+00 0. -1.
        -11    1    3    3    0    0  0.70308210050E+03  0.39031925381E+03  0.13642338711E+04  0.15836058900E+04  0.00000000000E+00 0.  1.
          4    1    6    6  502    0 -0.64893718558E+03 -0.32815075325E+03 -0.53926601039E+02  0.72918479550E+03  0.00000000000E+00 0. -1.
          3    1    5    5  503    0  0.33549327944E+02 -0.53153535773E+01  0.24648157725E+03  0.24881112980E+03  0.00000000000E+00 0. -1.
         -4    1    5    5    0  503 -0.55706589294E+01 -0.42742018814E+02  0.63294001537E+02  0.76577039926E+02  0.00000000000E+00 0.  1.
         -3    1    6    6    0  502 -0.38343244911E+03 -0.12907085423E+03 -0.18627361700E+02  0.40500210746E+03  0.00000000000E+00 0.  1.
<mgrwt>
<rscale>  0 0.30111144E+04</rscale>
<asrwt>0</asrwt>
<pdfrwt beam="1">  1        2 0.45865218E+00 0.30111144E+04</pdfrwt>
<pdfrwt beam="2">  1       -2 0.11697265E+00 0.30111144E+04</pdfrwt>
<totfact> 0.86482210E-01</totfact>
</mgrwt>
</event>
<event>
12    1  0.1960998E-007  0.2050080E+04  0.7818608E-02  0.8583558E-01
          1   -1    0    0  501    0  0.00000000000E+00  0.00000000000E+00  0.23774168209E+04  0.23774168209E+04  0.00000000000E+00 0. -1.
         -1   -1    0    0    0  501 -0.00000000000E+00 -0.00000000000E+00 -0.44195341607E+03  0.44195341607E+03  0.00000000000E+00 0.  1.
         23    2    1    2    0    0 -0.72124405511E+03 -0.12609536205E+03  0.26253955338E+03  0.78321752999E+03  0.91704170228E+02 0.  0.
        254    2    1    2    0    0  0.72124405511E+03  0.12609536205E+03  0.16729238515E+04  0.20361527070E+04  0.90063899871E+03 0.  0.
        -24    2    4    4    0    0  0.35399396317E+03  0.19724619533E+03  0.15930165375E+04  0.16459807999E+04  0.85634789604E+02 0.  0.
         24    2    4    4    0    0  0.36725009194E+03 -0.71150833282E+02  0.79907313946E+02  0.39017190712E+03  0.76901672126E+02 0.  0.
         13    1    3    3    0    0 -0.24517488480E+03 -0.45682504402E+02  0.43991940330E+02  0.25324475545E+03  0.00000000000E+00 0.  1.
        -13    1    3    3    0    0 -0.47606917031E+03 -0.80412857648E+02  0.21854761305E+03  0.52997277455E+03  0.00000000000E+00 0. -1.
          4    1    6    6  502    0  0.36029839910E+03 -0.80856269020E+02  0.73088164967E+02  0.37642336869E+03  0.00000000000E+00 0. -1.
          1    1    5    5  503    0  0.25957677108E+03  0.18548989574E+03  0.12256537202E+04  0.12664966022E+04  0.00000000000E+00 0. -1.
         -2    1    5    5    0  503  0.94417192096E+02  0.11756299592E+02  0.36736281733E+03  0.37948419770E+03  0.00000000000E+00 0.  1.
         -3    1    6    6    0  502  0.69516928342E+01  0.97054357375E+01  0.68191489787E+01  0.13748538428E+02  0.00000000000E+00 0.  1.
<mgrwt>
<rscale>  0 0.20500805E+04</rscale>
<asrwt>0</asrwt>
<pdfrwt beam="1">  1        1 0.36575643E+00 0.20500805E+04</pdfrwt>
<pdfrwt beam="2">  1       -1 0.67992835E-01 0.20500805E+04</pdfrwt>
<totfact> 0.33314816E+00</totfact>
</mgrwt>
</event>
<event>
12    1  0.1960998E-007  0.1270998E+04  0.7818608E-02  0.9052886E-01
          2   -1    0    0  501    0  0.00000000000E+00  0.00000000000E+00  0.99993844848E+03  0.99993844848E+03  0.00000000000E+00 0. -1.
         -2   -1    0    0    0  501 -0.00000000000E+00 -0.00000000000E+00 -0.40388360090E+03  0.40388360090E+03  0.00000000000E+00 0.  1.
         23    2    1    2    0    0  0.97835203978E+02  0.29071340591E+03  0.15748148215E+03  0.35700745606E+03  0.92562924283E+02 0.  0.
        254    2    1    2    0    0 -0.97835203978E+02 -0.29071340591E+03  0.43857336544E+03  0.10468145933E+04  0.89966003824E+03 0.  0.
        -24    2    4    4    0    0 -0.47879088550E+03 -0.26899274264E+03  0.31423699102E+03  0.63759755643E+03  0.78663522673E+02 0.  0.
         24    2    4    4    0    0  0.38095568152E+03 -0.21720663263E+02  0.12433637441E+03  0.40921703689E+03  0.80000192409E+02 0.  0.
         11    1    3    3    0    0  0.10265180721E+03  0.17965092140E+03  0.12256023224E+03  0.24048463071E+03  0.00000000000E+00 0.  1.
        -11    1    3    3    0    0 -0.48166032289E+01  0.11106248451E+03  0.34921249908E+02  0.11652282535E+03  0.00000000000E+00 0. -1.
          4    1    6    6  502    0  0.36916758357E+03 -0.13726197694E+02  0.13289602420E+03  0.39259962622E+03  0.00000000000E+00 0. -1.
          3    1    5    5  503    0 -0.36199138273E+03 -0.24002321546E+03  0.24082758561E+03  0.49663551134E+03  0.00000000000E+00 0. -1.
         -2    1    5    5    0  503 -0.11679950276E+03 -0.28969527186E+02  0.73409405418E+02  0.14096204509E+03  0.00000000000E+00 0.  1.
         -3    1    6    6    0  502  0.11788097947E+02 -0.79944655696E+01 -0.85596497810E+01  0.16617410669E+02  0.00000000000E+00 0.  1.
<mgrwt>
<rscale>  0 0.12709976E+04</rscale>
<asrwt>0</asrwt>
<pdfrwt beam="1">  1        2 0.15383668E+00 0.12709976E+04</pdfrwt>
<pdfrwt beam="2">  1       -2 0.62135939E-01 0.12709976E+04</pdfrwt>
<totfact> 0.59495225E+01</totfact>
</mgrwt>
</event>
<event>
12    1  0.1960998E-007  0.3260631E+04  0.7818608E-02  0.8172986E-01
          2   -1    0    0  501    0  0.00000000000E+00  0.00000000000E+00  0.21867797529E+04  0.21867797529E+04  0.00000000000E+00 0.  1.
         -2   -1    0    0    0  501 -0.00000000000E+00 -0.00000000000E+00 -0.12154532830E+04  0.12154532830E+04  0.00000000000E+00 0. -1.
         23    2    1    2    0    0 -0.49902059335E+03  0.17130228476E+03  0.19206756909E+04  0.19938572398E+04  0.90030869581E+02 0.  0.
        254    2    1    2    0    0  0.49902059335E+03 -0.17130228476E+03 -0.94934922095E+03  0.14083757961E+04  0.89660047648E+03 0.  0.
        -24    2    4    4    0    0  0.38107860571E+03 -0.32632374384E+02  0.46186685274E+02  0.39318472011E+03  0.78582686664E+02 0.  0.
         24    2    4    4    0    0  0.11794198764E+03 -0.13866991038E+03 -0.99553590622E+03  0.10151910760E+04  0.79884439884E+02 0.  0.
         13    1    3    3    0    0 -0.35962550016E+03  0.14356412970E+03  0.12642597582E+04  0.13222306516E+04  0.00000000000E+00 0. -1.
        -13    1    3    3    0    0 -0.13939509319E+03  0.27738155061E+02  0.65641593268E+03  0.67162658816E+03  0.00000000000E+00 0.  1.
          4    1    6    6  502    0  0.21232698321E+02 -0.79889993403E+02 -0.33622032891E+03  0.34623308348E+03  0.00000000000E+00 0. -1.
          1    1    5    5  503    0  0.14533932732E+03 -0.20023592763E+01 -0.19249353555E+02  0.14662219178E+03  0.00000000000E+00 0. -1.
         -2    1    5    5    0  503  0.23573927839E+03 -0.30630015108E+02  0.65436038829E+02  0.24656252833E+03  0.00000000000E+00 0.  1.
         -3    1    6    6    0  502  0.96709289317E+02 -0.58779916976E+02 -0.65931557731E+03  0.66895799253E+03  0.00000000000E+00 0.  1.
<mgrwt>
<rscale>  0 0.32606310E+04</rscale>
<asrwt>0</asrwt>
<pdfrwt beam="1">  1        2 0.33642765E+00 0.32606310E+04</pdfrwt>
<pdfrwt beam="2">  1       -2 0.18699281E+00 0.32606310E+04</pdfrwt>
<totfact> 0.71485169E-01</totfact>
</mgrwt>
</event>
<event>
12    1  0.1960998E-007  0.1313616E+04  0.7818608E-02  0.9018837E-01
          2   -1    0    0  501    0  0.00000000000E+00  0.00000000000E+00  0.21384107625E+04  0.21384107625E+04  0.00000000000E+00 0. -1.
         -2   -1    0    0    0  501 -0.00000000000E+00 -0.00000000000E+00 -0.20173695605E+03  0.20173695605E+03  0.00000000000E+00 0.  1.
         23    2    1    2    0    0 -0.27589110867E+03 -0.18286579258E+03  0.65457254667E+03  0.73902146630E+03  0.90175977172E+02 0.  0.
        254    2    1    2    0    0  0.27589110867E+03  0.18286579258E+03  0.12821012597E+04  0.16011262522E+04  0.90014767307E+03 0.  0.
        -24    2    4    4    0    0  0.59063600489E+03  0.20031575071E+03  0.91547396981E+03  0.11107280077E+04  0.81528077879E+02 0.  0.
         24    2    4    4    0    0 -0.31474489622E+03 -0.17449958122E+02  0.36662728992E+03  0.49039824447E+03  0.81890278636E+02 0.  0.
         11    1    3    3    0    0 -0.15509785574E+03 -0.72446982210E+02  0.41466218077E+03  0.44860743892E+03  0.00000000000E+00 0. -1.
        -11    1    3    3    0    0 -0.12079325293E+03 -0.11041881037E+03  0.23991036590E+03  0.29041402739E+03  0.00000000000E+00 0.  1.
          2    1    6    6  502    0 -0.30407827761E+03 -0.14618282624E+02  0.31679698607E+03  0.43936047101E+03  0.00000000000E+00 0. -1.
          3    1    5    5  503    0  0.57069037626E+03  0.20507602303E+03  0.89907155450E+03  0.10844691517E+04  0.00000000000E+00 0. -1.
         -4    1    5    5    0  503  0.19945628630E+02 -0.47602723218E+01  0.16402415315E+02  0.26258856072E+02  0.00000000000E+00 0.  1.
         -1    1    6    6    0  502 -0.10666618608E+02 -0.28316754980E+01  0.49830303847E+02  0.51037773464E+02  0.00000000000E+00 0.  1.
<mgrwt>
<rscale>  0 0.13136156E+04</rscale>
<asrwt>0</asrwt>
<pdfrwt beam="1">  1        2 0.32898626E+00 0.13136156E+04</pdfrwt>
<pdfrwt beam="2">  1       -2 0.31036456E-01 0.13136156E+04</pdfrwt>
<totfact> 0.52777337E+01</totfact>
</mgrwt>
</event>
<event>
12    1  0.1960998E-007  0.2530037E+04  0.7818608E-02  0.8392362E-01
          2   -1    0    0  501    0  0.00000000000E+00  0.00000000000E+00  0.16112221789E+04  0.16112221789E+04  0.00000000000E+00 0.  1.
         -2   -1    0    0    0  501 -0.00000000000E+00 -0.00000000000E+00 -0.99320371368E+03  0.99320371368E+03  0.00000000000E+00 0. -1.
         23    2    1    2    0    0 -0.35044583538E+03 -0.35762084653E+03 -0.73889342314E+03  0.89888080855E+03  0.10638732921E+03 0.  0.
        254    2    1    2    0    0  0.35044583538E+03  0.35762084653E+03  0.13569118884E+04  0.17055450840E+04  0.90386348941E+03 0.  0.
        -24    2    4    4    0    0 -0.13035039794E+03 -0.70470258523E+02  0.89061177231E+03  0.90640301080E+03  0.80123688319E+02 0.  0.
         24    2    4    4    0    0  0.48079623332E+03  0.42809110505E+03  0.46630011605E+03  0.79914207324E+03  0.82251095939E+02 0.  0.
         11    1    3    3    0    0 -0.24316401939E+02  0.43050659787E+01 -0.36006685101E+02  0.43661222707E+02  0.00000000000E+00 0.  1.
        -11    1    3    3    0    0 -0.32612943344E+03 -0.36192591251E+03 -0.70288673804E+03  0.85521958585E+03  0.00000000000E+00 0. -1.
          4    1    6    6  502    0  0.42392558555E+03  0.33976017911E+03  0.40371828339E+03  0.67685916832E+03  0.00000000000E+00 0. -1.
          1    1    5    5  503    0 -0.11591003019E+03 -0.46186035826E+02  0.52179488656E+03  0.53650553459E+03  0.00000000000E+00 0. -1.
         -2    1    5    5    0  503 -0.14440367750E+02 -0.24284222697E+02  0.36881688575E+03  0.36989747621E+03  0.00000000000E+00 0.  1.
         -3    1    6    6    0  502  0.56870647775E+02  0.88330925940E+02  0.62581832659E+02  0.12228290492E+03  0.00000000000E+00 0.  1.
<mgrwt>
<rscale>  0 0.25300370E+04</rscale>
<asrwt>0</asrwt>
<pdfrwt beam="1">  1        2 0.24788034E+00 0.25300370E+04</pdfrwt>
<pdfrwt beam="2">  1       -2 0.15280057E+00 0.25300370E+04</pdfrwt>
<totfact> 0.27897156E+00</totfact>
</mgrwt>
</event>
<event>
12    1  0.1960998E-007  0.1815455E+04  0.7818608E-02  0.8698124E-01
          2   -1    0    0  501    0  0.00000000000E+00  0.00000000000E+00  0.33921979331E+04  0.33921979331E+04  0.00000000000E+00 0. -1.
         -2   -1    0    0    0  501 -0.00000000000E+00 -0.00000000000E+00 -0.24290128765E+03  0.24290128765E+03  0.00000000000E+00 0.  1.
         23    2    1    2    0    0 -0.47948170414E+03 -0.36338745228E+03  0.18445263692E+04  0.19421330652E+04  0.87465258086E+02 0.  0.
        254    2    1    2    0    0  0.47948170414E+03  0.36338745228E+03  0.13047702762E+04  0.16929661555E+04  0.89540816658E+03 0.  0.
        -24    2    4    4    0    0  0.45235932674E+02 -0.12130479555E+03  0.92057596879E+03  0.93290918457E+03  0.78091544470E+02 0.  0.
         24    2    4    4    0    0  0.43424577147E+03  0.48469224783E+03  0.38419430744E+03  0.76005697090E+03  0.81150280346E+02 0.  0.
         11    1    3    3    0    0 -0.10118865600E+03 -0.45837657114E+02  0.27003453046E+03  0.29199123712E+03  0.00000000000E+00 0.  1.
        -11    1    3    3    0    0 -0.37829304814E+03 -0.31754979517E+03  0.15744918387E+04  0.16501418281E+04  0.00000000000E+00 0. -1.
          2    1    6    6  502    0  0.13681388476E+03  0.10799095107E+03  0.12578978991E+03  0.21494919358E+03  0.00000000000E+00 0. -1.
          1    1    5    5  503    0 -0.20206140209E+02 -0.40553610517E+02  0.35283590014E+03  0.35573312449E+03  0.00000000000E+00 0. -1.
         -2    1    5    5    0  503  0.65442072884E+02 -0.80751185037E+02  0.56774006865E+03  0.57717606009E+03  0.00000000000E+00 0.  1.
         -1    1    6    6    0  502  0.29743188671E+03  0.37670129677E+03  0.25840451753E+03  0.54510777732E+03  0.00000000000E+00 0.  1.
<mgrwt>
<rscale>  0 0.18154550E+04</rscale>
<asrwt>0</asrwt>
<pdfrwt beam="1">  1        2 0.52187657E+00 0.18154550E+04</pdfrwt>
<pdfrwt beam="2">  1       -2 0.37369431E-01 0.18154550E+04</pdfrwt>
<totfact> 0.61880370E+00</totfact>
</mgrwt>
</event>
<event>
12    1  0.1960998E-007  0.1484955E+04  0.7818608E-02  0.8894520E-01
          2   -1    0    0  501    0  0.00000000000E+00  0.00000000000E+00  0.25259850047E+04  0.25259850047E+04  0.00000000000E+00 0. -1.
         -2   -1    0    0    0  501 -0.00000000000E+00 -0.00000000000E+00 -0.21824067405E+03  0.21824067405E+03  0.00000000000E+00 0.  1.
         23    2    1    2    0    0 -0.32931777113E+03  0.24184811124E+03  0.33045408045E+03  0.53334218703E+03  0.91177222410E+02 0.  0.
        254    2    1    2    0    0  0.32931777113E+03 -0.24184811124E+03  0.19772902502E+04  0.22108834917E+04  0.90077099038E+03 0.  0.
        -24    2    4    4    0    0 -0.15466434915E+03 -0.41687944342E+03  0.11205737856E+04  0.12082334165E+04  0.80205040224E+02 0.  0.
         24    2    4    4    0    0  0.48398212028E+03  0.17503133218E+03  0.85671646459E+03  0.10026500752E+04  0.80432659175E+02 0.  0.
         13    1    3    3    0    0 -0.39373525704E+02  0.68921639793E+02  0.45033055262E+02  0.91260303661E+02  0.00000000000E+00 0. -1.
        -13    1    3    3    0    0 -0.28994424543E+03  0.17292647145E+03  0.28542102519E+03  0.44208188337E+03  0.00000000000E+00 0.  1.
          4    1    6    6  502    0  0.37106302450E+03  0.12406380490E+03  0.70961862503E+03  0.81033214723E+03  0.00000000000E+00 0. -1.
          1    1    5    5  503    0 -0.12285609414E+03 -0.36209368258E+03  0.88047079208E+03  0.95991367869E+03  0.00000000000E+00 0. -1.
         -2    1    5    5    0  503 -0.31808255008E+02 -0.54785760841E+02  0.24010299353E+03  0.24831973779E+03  0.00000000000E+00 0.  1.
         -3    1    6    6    0  502  0.11291909577E+03  0.50967527276E+02  0.14709783956E+03  0.19231792800E+03  0.00000000000E+00 0.  1.
<mgrwt>
<rscale>  0 0.14849548E+04</rscale>
<asrwt>0</asrwt>
<pdfrwt beam="1">  1        2 0.38861306E+00 0.14849548E+04</pdfrwt>
<pdfrwt beam="2">  1       -2 0.33575490E-01 0.14849548E+04</pdfrwt>
<totfact> 0.27054865E+01</totfact>
</mgrwt>
</event>
<event>
12    1  0.1960998E-007  0.3023681E+04  0.7818608E-02  0.8237001E-01
          2   -1    0    0  501    0  0.00000000000E+00  0.00000000000E+00  0.11146482764E+04  0.11146482764E+04  0.00000000000E+00 0. -1.
         -2   -1    0    0    0  501 -0.00000000000E+00 -0.00000000000E+00 -0.20505683048E+04  0.20505683048E+04  0.00000000000E+00 0.  1.
         23    2    1    2    0    0  0.86886171615E+03  0.85941488453E+03 -0.10902898122E+04  0.16401649420E+04  0.88851206403E+02 0.  0.
        254    2    1    2    0    0 -0.86886171615E+03 -0.85941488453E+03  0.15436978386E+03  0.15250516392E+04  0.89913171810E+03 0.  0.
        -24    2    4    4    0    0 -0.59300866062E+03 -0.92474115865E+03 -0.13782248242E+03  0.11101064990E+04  0.80845039831E+02 0.  0.
         24    2    4    4    0    0 -0.27585305553E+03  0.65326274118E+02  0.29219226628E+03  0.41494514016E+03  0.80254087339E+02 0.  0.
         13    1    3    3    0    0  0.10650533772E+03  0.13530677818E+03 -0.12454284358E+03  0.21251407264E+03  0.00000000000E+00 0.  1.
        -13    1    3    3    0    0  0.76235637844E+03  0.72410810635E+03 -0.96574696860E+03  0.14276508694E+04  0.00000000000E+00 0. -1.
          4    1    6    6  502    0 -0.16425627628E+03  0.35268278862E+02  0.11572876848E+03  0.20400275401E+03  0.00000000000E+00 0. -1.
          3    1    5    5  503    0 -0.40126647306E+03 -0.69229108246E+03 -0.10265595854E+03  0.80673413903E+03  0.00000000000E+00 0. -1.
         -4    1    5    5    0  503 -0.19174218756E+03 -0.23245007619E+03 -0.35166523886E+02  0.30337236000E+03  0.00000000000E+00 0.  1.
         -3    1    6    6    0  502 -0.11159677925E+03  0.30057995256E+02  0.17646349781E+03  0.21094238616E+03  0.00000000000E+00 0.  1.
<mgrwt>
<rscale>  0 0.30236815E+04</rscale>
<asrwt>0</asrwt>
<pdfrwt beam="1">  1        2 0.17148435E+00 0.30236815E+04</pdfrwt>
<pdfrwt beam="2">  1       -2 0.31547205E+00 0.30236815E+04</pdfrwt>
<totfact> 0.46545839E-01</totfact>
</mgrwt>
</event>
<event>
12    1  0.1960998E-007  0.1578505E+04  0.7818608E-02  0.8833863E-01
         -2   -1    0    0    0  501 -0.00000000000E+00  0.00000000000E+00  0.28856499311E+03  0.28856499311E+03  0.00000000000E+00 0.  1.
          2   -1    0    0  501    0  0.00000000000E+00 -0.00000000000E+00 -0.21586793760E+04  0.21586793760E+04  0.00000000000E+00 0. -1.
         23    2    1    2    0    0 -0.30631383286E+03 -0.39280253949E+03 -0.90444898339E+03  0.10365382325E+04  0.90893039087E+02 0.  0.
        254    2    1    2    0    0  0.30631383286E+03  0.39280253949E+03 -0.96566539949E+03  0.14107061366E+04  0.89970002833E+03 0.  0.
        -24    2    4    4    0    0 -0.54556962472E+01  0.27467723403E+03 -0.10240747818E+04  0.10632082602E+04  0.78773714913E+02 0.  0.
         24    2    4    4    0    0  0.31176952911E+03  0.11812530545E+03  0.58409382340E+02  0.34749787649E+03  0.78672048119E+02 0.  0.
         11    1    3    3    0    0 -0.12257320423E+03 -0.21427119226E+03 -0.50299328840E+03  0.56030222416E+03  0.00000000000E+00 0. -1.
        -11    1    3    3    0    0 -0.18374062863E+03 -0.17853134722E+03 -0.40145569500E+03  0.47623600829E+03  0.00000000000E+00 0.  1.
          4    1    6    6  502    0  0.11718145031E+03  0.48760130295E+02 -0.15995274286E+02  0.12792533526E+03  0.00000000000E+00 0. -1.
          3    1    5    5  503    0 -0.17536063043E+02  0.26962433166E+03 -0.93787736885E+03  0.97602190177E+03  0.00000000000E+00 0. -1.
         -4    1    5    5    0  503  0.12080366796E+02  0.50529023790E+01 -0.86197412978E+02  0.87186358386E+02  0.00000000000E+00 0.  1.
         -3    1    6    6    0  502  0.19458807880E+03  0.69365175156E+02  0.74404656626E+02  0.21957254123E+03  0.00000000000E+00 0.  1.
<mgrwt>
<rscale>  0 0.15785047E+04</rscale>
<asrwt>0</asrwt>
<pdfrwt beam="1">  1        2 0.33210453E+00 0.15785047E+04</pdfrwt>
<pdfrwt beam="2">  1       -2 0.44394613E-01 0.15785047E+04</pdfrwt>
<totfact> 0.25194308E+01</totfact>
</mgrwt>
</event>
<event>
12    1  0.1960998E-007  0.1467467E+04  0.7818608E-02  0.8906380E-01
          2   -1    0    0  501    0  0.00000000000E+00  0.00000000000E+00  0.11710936063E+04  0.11710936063E+04  0.00000000000E+00 0. -1.
         -2   -1    0    0    0  501 -0.00000000000E+00 -0.00000000000E+00 -0.45971098402E+03  0.45971098402E+03  0.00000000000E+00 0.  1.
         23    2    1    2    0    0 -0.44357006880E+03 -0.85517528715E+02  0.23498970523E+03  0.51705352803E+03  0.89758206474E+02 0.  0.
        254    2    1    2    0    0  0.44357006880E+03  0.85517528715E+02  0.47639291708E+03  0.11137510623E+04  0.89967970062E+03 0.  0.
        -24    2    4    4    0    0  0.40025926778E+02 -0.33609344740E+03 -0.12463144516E+02  0.34815401878E+03  0.80591628745E+02 0.  0.
         24    2    4    4    0    0  0.40354414202E+03  0.42161097612E+03  0.48885606160E+03  0.76559704353E+03  0.80962302096E+02 0.  0.
         11    1    3    3    0    0 -0.15524114577E+03 -0.73663422858E+02  0.94423193950E+02  0.19606593983E+03  0.00000000000E+00 0.  1.
        -11    1    3    3    0    0 -0.28832892303E+03 -0.11854105857E+02  0.14056651128E+03  0.32098758820E+03  0.00000000000E+00 0. -1.
          2    1    6    6  502    0  0.33093565324E+03  0.37120012066E+03  0.44308339710E+03  0.66605617853E+03  0.00000000000E+00 0. -1.
          1    1    5    5  503    0 -0.44826643264E+01 -0.23669063328E+03 -0.27031914966E+02  0.23827143049E+03  0.00000000000E+00 0. -1.
         -2    1    5    5    0  503  0.44508591104E+02 -0.99402814118E+02  0.14568770449E+02  0.10988258829E+03  0.00000000000E+00 0.  1.
         -1    1    6    6    0  502  0.72608488785E+02  0.50410855451E+02  0.45772664497E+02  0.99540865006E+02  0.00000000000E+00 0.  1.
<mgrwt>
<rscale>  0 0.14674667E+04</rscale>
<asrwt>0</asrwt>
<pdfrwt beam="1">  1        2 0.18016825E+00 0.14674667E+04</pdfrwt>
<pdfrwt beam="2">  1       -2 0.70724767E-01 0.14674667E+04</pdfrwt>
<totfact> 0.34705915E+01</totfact>
</mgrwt>
</event>
<event>
12    1  0.1960998E-007  0.3362266E+04  0.7818608E-02  0.8147230E-01
          1   -1    0    0  501    0  0.00000000000E+00  0.00000000000E+00  0.11915743246E+04  0.11915743246E+04  0.00000000000E+00 0. -1.
         -1   -1    0    0    0  501 -0.00000000000E+00 -0.00000000000E+00 -0.23718267119E+04  0.23718267119E+04  0.00000000000E+00 0.  1.
         23    2    1    2    0    0  0.13267156098E+04  0.36280437857E+03  0.23013679640E+03  0.13975112326E+04  0.90958087939E+02 0.  0.
        254    2    1    2    0    0 -0.13267156098E+04 -0.36280437857E+03 -0.14103891837E+04  0.21658898039E+04  0.90004425820E+03 0.  0.
        -24    2    4    4    0    0 -0.10274544309E+03  0.98674115388E+02  0.79538444107E+02  0.18160988212E+03  0.79765770046E+02 0.  0.
         24    2    4    4    0    0 -0.12239701667E+04 -0.46147849396E+03 -0.14899276278E+04  0.19842799218E+04  0.80106818963E+02 0.  0.
         13    1    3    3    0    0  0.10024230227E+04  0.24388225413E+03  0.19919115959E+03  0.10507176540E+04  0.00000000000E+00 0.  1.
        -13    1    3    3    0    0  0.32429258707E+03  0.11892212444E+03  0.30945636802E+02  0.34679357858E+03  0.00000000000E+00 0. -1.
          2    1    6    6  502    0 -0.82973861390E+02 -0.39318303495E+02 -0.77681492123E+02  0.12027054869E+03  0.00000000000E+00 0. -1.
          1    1    5    5  503    0 -0.19883629972E+02 -0.65580201263E+01  0.34396117820E+02  0.40267347689E+02  0.00000000000E+00 0. -1.
         -2    1    5    5    0  503 -0.82861813116E+02  0.10523213551E+03  0.45142326288E+02  0.14134253443E+03  0.00000000000E+00 0.  1.
         -1    1    6    6    0  502 -0.11409963053E+04 -0.42216019047E+03 -0.14122461357E+04  0.18640093731E+04  0.00000000000E+00 0.  1.
<mgrwt>
<rscale>  0 0.33622658E+04</rscale>
<asrwt>0</asrwt>
<pdfrwt beam="1">  1        1 0.18331913E+00 0.33622658E+04</pdfrwt>
<pdfrwt beam="2">  1       -1 0.36489642E+00 0.33622658E+04</pdfrwt>
<totfact> 0.11052655E-01</totfact>
</mgrwt>
</event>
<event>
12    1  0.1960998E-007  0.1719127E+04  0.7818608E-02  0.8750530E-01
          2   -1    0    0  501    0  0.00000000000E+00  0.00000000000E+00  0.12878543797E+04  0.12878543797E+04  0.00000000000E+00 0. -1.
         -2   -1    0    0    0  501 -0.00000000000E+00 -0.00000000000E+00 -0.57370599428E+03  0.57370599428E+03  0.00000000000E+00 0.  1.
         23    2    1    2    0    0 -0.49625880345E+03  0.11107096231E+03  0.64529222584E+03  0.82663657996E+03  0.91194407255E+02 0.  0.
        254    2    1    2    0    0  0.49625880345E+03 -0.11107096231E+03  0.68856159532E+02  0.10349237940E+04  0.89873051019E+03 0.  0.
        -24    2    4    4    0    0  0.10581419445E+03  0.11844125365E+03  0.42045690163E+03  0.45627315143E+03  0.78588855870E+02 0.  0.
         24    2    4    4    0    0  0.39044460900E+03 -0.22951221596E+03 -0.35160074210E+03  0.57865064254E+03  0.78042515940E+02 0.  0.
         13    1    3    3    0    0 -0.17880492873E+03  0.32223676426E+02  0.30215459341E+03  0.35257193050E+03  0.00000000000E+00 0. -1.
        -13    1    3    3    0    0 -0.31745387473E+03  0.78847285882E+02  0.34313763243E+03  0.47406464945E+03  0.00000000000E+00 0.  1.
          2    1    6    6  502    0  0.30695611287E+03 -0.14201682454E+03 -0.26980628691E+03  0.43265028156E+03  0.00000000000E+00 0. -1.
          1    1    5    5  503    0  0.53807499464E+02  0.60218648231E+02  0.31425255229E+03  0.32446293967E+03  0.00000000000E+00 0. -1.
         -4    1    5    5    0  503  0.52006694987E+02  0.58222605422E+02  0.10620434934E+03  0.13181021176E+03  0.00000000000E+00 0.  1.
         -1    1    6    6    0  502  0.83488496138E+02 -0.87495391418E+02 -0.81794455186E+02  0.14600036098E+03  0.00000000000E+00 0.  1.
<mgrwt>
<rscale>  0 0.17191274E+04</rscale>
<asrwt>0</asrwt>
<pdfrwt beam="1">  1        2 0.19813144E+00 0.17191274E+04</pdfrwt>
<pdfrwt beam="2">  1       -2 0.88262461E-01 0.17191274E+04</pdfrwt>
<totfact> 0.17650304E+01</totfact>
</mgrwt>
</event>
<event>
12    1  0.1960998E-007  0.2736485E+04  0.7818608E-02  0.8323263E-01
         -2   -1    0    0    0  501 -0.00000000000E+00  0.00000000000E+00  0.12227651880E+04  0.12227651880E+04  0.00000000000E+00 0.  1.
          2   -1    0    0  501    0  0.00000000000E+00 -0.00000000000E+00 -0.15310276778E+04  0.15310276778E+04  0.00000000000E+00 0. -1.
         23    2    1    2    0    0 -0.53951502466E+03  0.54948248073E+03 -0.10886582951E+04  0.13362158945E+04  0.85373150724E+02 0.  0.
        254    2    1    2    0    0  0.53951502466E+03 -0.54948248073E+03  0.78039580529E+03  0.14175769713E+04  0.89860970295E+03 0.  0.
        -24    2    4    4    0    0  0.37925571444E+03 -0.73825904350E+03  0.32697934593E+03  0.89592112960E+03  0.83053389846E+02 0.  0.
         24    2    4    4    0    0  0.16025931022E+03  0.18877656276E+03  0.45341645935E+03  0.52165584171E+03  0.72240531670E+02 0.  0.
         11    1    3    3    0    0 -0.33329920446E+03  0.33266119005E+03 -0.73553456528E+03  0.87336299657E+03  0.00000000000E+00 0. -1.
        -11    1    3    3    0    0 -0.20621582020E+03  0.21682129069E+03 -0.35312372980E+03  0.46285289795E+03  0.00000000000E+00 0.  1.
          4    1    6    6  502    0  0.15390843247E+03  0.19347621808E+03  0.44910338005E+03  0.51265456062E+03  0.00000000000E+00 0. -1.
          3    1    5    5  503    0  0.25463240004E+03 -0.56899317735E+03  0.25862875008E+03  0.67489238060E+03  0.00000000000E+00 0. -1.
         -4    1    5    5    0  503  0.12462331439E+03 -0.16926586615E+03  0.68350595847E+02  0.22102874901E+03  0.00000000000E+00 0.  1.
         -3    1    6    6    0  502  0.63508777465E+01 -0.46996553139E+01  0.43130793000E+01  0.90012810904E+01  0.00000000000E+00 0.  1.
<mgrwt>
<rscale>  0 0.27364849E+04</rscale>
<asrwt>0</asrwt>
<pdfrwt beam="1">  1        2 0.23554272E+00 0.27364849E+04</pdfrwt>
<pdfrwt beam="2">  1       -2 0.18811772E+00 0.27364849E+04</pdfrwt>
<totfact> 0.17021664E+00</totfact>
</mgrwt>
</event>
<event>
12    1  0.2050974E-007  0.2575355E+04  0.7818608E-02  0.8376621E-01
         -2   -1    0    0    0  501 -0.00000000000E+00  0.00000000000E+00  0.58020314818E+03  0.58020314818E+03  0.00000000000E+00 0.  1.
          2   -1    0    0  501    0  0.00000000000E+00 -0.00000000000E+00 -0.28578144906E+04  0.28578144906E+04  0.00000000000E+00 0. -1.
         23    2    1    2    0    0 -0.99335866244E+03  0.48736648394E+03 -0.70880197583E+03  0.13174937238E+04  0.95404136947E+02 0.  0.
        254    2    1    2    0    0  0.99335866244E+03 -0.48736648394E+03 -0.15688093666E+04  0.21205239150E+04  0.90065050019E+03 0.  0.
        -24    2    4    4    0    0  0.41348968744E+03  0.23821109906E+03 -0.65903211554E+03  0.81795271071E+03  0.83696226356E+02 0.  0.
         24    2    4    4    0    0  0.57986897500E+03 -0.72557758300E+03 -0.90977725107E+03  0.13025712043E+04  0.79285803369E+02 0.  0.
         13    1    3    3    0    0 -0.22540126827E+03  0.87374349666E+02 -0.11604062049E+03  0.26815188666E+03  0.00000000000E+00 0.  1.
        -13    1    3    3    0    0 -0.76795739417E+03  0.39999213427E+03 -0.59276135534E+03  0.10493418371E+04  0.00000000000E+00 0. -1.
          2    1    6    6  502    0  0.40067524765E+02 -0.23007736696E+02 -0.45013353792E+02  0.64505538586E+02  0.00000000000E+00 0. -1.
          3    1    5    5  503    0  0.32325145301E+01  0.95403213468E+01 -0.19408760134E+01  0.10258356656E+02  0.00000000000E+00 0. -1.
         -4    1    5    5    0  503  0.41025717291E+03  0.22867077771E+03 -0.65709123953E+03  0.80769435405E+03  0.00000000000E+00 0.  1.
         -1    1    6    6    0  502  0.53980145024E+03 -0.70256984630E+03 -0.86476389728E+03  0.12380656657E+04  0.00000000000E+00 0.  1.
<mgrwt>
<rscale>  0 0.25753547E+04</rscale>
<asrwt>0</asrwt>
<pdfrwt beam="1">  1        2 0.43966377E+00 0.25753547E+04</pdfrwt>
<pdfrwt beam="2">  1       -2 0.89262022E-01 0.25753547E+04</pdfrwt>
<totfact> 0.20355586E+00</totfact>
</mgrwt>
</event>
<event>
12    1  0.1960998E-007  0.1436012E+04  0.7818608E-02  0.8928156E-01
          2   -1    0    0  501    0  0.00000000000E+00  0.00000000000E+00  0.29131201514E+03  0.29131201514E+03  0.00000000000E+00 0. -1.
         -2   -1    0    0    0  501 -0.00000000000E+00 -0.00000000000E+00 -0.17696933260E+04  0.17696933260E+04  0.00000000000E+00 0.  1.
         23    2    1    2    0    0  0.32469478799E+03 -0.28073832037E+03 -0.44948243475E+03  0.62826020332E+03  0.91846143341E+02 0.  0.
        254    2    1    2    0    0 -0.32469478799E+03  0.28073832037E+03 -0.10288988761E+04  0.14327451378E+04  0.89993612150E+03 0.  0.
        -24    2    4    4    0    0 -0.36294816770E+03  0.16242340334E+03 -0.11636302668E+04  0.12324377198E+04  0.82186379865E+02 0.  0.
         24    2    4    4    0    0  0.38253379709E+02  0.11831491704E+03  0.13473139074E+03  0.20030741795E+03  0.80676969333E+02 0.  0.
         11    1    3    3    0    0  0.49411165901E+02 -0.66329249182E+02 -0.45319799279E+02  0.94312866669E+02  0.00000000000E+00 0. -1.
        -11    1    3    3    0    0  0.27528362209E+03 -0.21440907119E+03 -0.40416263547E+03  0.53394733665E+03  0.00000000000E+00 0.  1.
          2    1    6    6  502    0  0.41986883542E+02  0.84936390050E+02  0.45783024464E+02  0.10522915030E+03  0.00000000000E+00 0. -1.
          1    1    5    5  503    0 -0.32929466982E+03  0.12510707846E+03 -0.95661864404E+03  0.10194145333E+04  0.00000000000E+00 0. -1.
         -2    1    5    5    0  503 -0.33653497876E+02  0.37316324873E+02 -0.20701162277E+03  0.21302318649E+03  0.00000000000E+00 0.  1.
         -1    1    6    6    0  502 -0.37335038331E+01  0.33378526987E+02  0.88948366280E+02  0.95078267646E+02  0.00000000000E+00 0.  1.
<mgrwt>
<rscale>  0 0.14360124E+04</rscale>
<asrwt>0</asrwt>
<pdfrwt beam="1">  1        2 0.44817233E-01 0.14360124E+04</pdfrwt>
<pdfrwt beam="2">  1       -2 0.27226051E+00 0.14360124E+04</pdfrwt>
<totfact> 0.51830500E+00</totfact>
</mgrwt>
</event>
<event>
12    1  0.1960998E-007  0.4826210E+04  0.7818608E-02  0.7855890E-01
         -2   -1    0    0    0  501 -0.00000000000E+00  0.00000000000E+00  0.11461438955E+04  0.11461438955E+04  0.00000000000E+00 0.  1.
          2   -1    0    0  501    0  0.00000000000E+00 -0.00000000000E+00 -0.50805797383E+04  0.50805797383E+04  0.00000000000E+00 0. -1.
         23    2    1    2    0    0 -0.12027487588E+04 -0.15420197277E+04 -0.35305706967E+04  0.40370162308E+04  0.90228516442E+02 0.  0.
        254    2    1    2    0    0  0.12027487588E+04  0.15420197277E+04 -0.40386514608E+03  0.21897074030E+04  0.89848875187E+03 0.  0.
        -24    2    4    4    0    0  0.12852224754E+04  0.15060523745E+04 -0.25480101120E+03  0.19977614703E+04  0.78337543080E+02 0.  0.
         24    2    4    4    0    0 -0.82473716654E+02  0.35967353233E+02 -0.14906413488E+03  0.19194593278E+03  0.80793318815E+02 0.  0.
         11    1    3    3    0    0 -0.78619026306E+02 -0.13530029112E+03 -0.25805292490E+03  0.30179203457E+03  0.00000000000E+00 0.  1.
        -11    1    3    3    0    0 -0.11241297325E+04 -0.14067194366E+04 -0.32725177718E+04  0.37352241962E+04  0.00000000000E+00 0. -1.
          2    1    6    6  502    0 -0.55194519105E+02  0.60772809035E+02 -0.11791159051E+03  0.14367641572E+03  0.00000000000E+00 0. -1.
          3    1    5    5  503    0  0.11912779603E+04  0.13643899388E+04 -0.24072688963E+03  0.18271979967E+04  0.00000000000E+00 0. -1.
         -4    1    5    5    0  503  0.93944515158E+02  0.14166243571E+03 -0.14074121574E+02  0.17056347357E+03  0.00000000000E+00 0.  1.
         -1    1    6    6    0  502 -0.27279197549E+02 -0.24805455802E+02 -0.31152544375E+02  0.48269517063E+02  0.00000000000E+00 0.  1.
<mgrwt>
<rscale>  0 0.48262099E+04</rscale>
<asrwt>0</asrwt>
<pdfrwt beam="1">  1        2 0.78162765E+00 0.48262099E+04</pdfrwt>
<pdfrwt beam="2">  1       -2 0.17632983E+00 0.48262099E+04</pdfrwt>
<totfact> 0.37622155E-03</totfact>
</mgrwt>
</event>
<event>
12    1  0.1960998E-007  0.3059124E+04  0.7818608E-02  0.8227046E-01
         -2   -1    0    0    0  501 -0.00000000000E+00  0.00000000000E+00  0.86770949846E+03  0.86770949846E+03  0.00000000000E+00 0.  1.
          2   -1    0    0  501    0  0.00000000000E+00 -0.00000000000E+00 -0.26962479793E+04  0.26962479793E+04  0.00000000000E+00 0. -1.
         23    2    1    2    0    0  0.11060996719E+04  0.15793661239E+03  0.13813668176E+03  0.11294427505E+04  0.90325666590E+02 0.  0.
        254    2    1    2    0    0 -0.11060996719E+04 -0.15793661239E+03 -0.19666751626E+04  0.24345147273E+04  0.90036120783E+03 0.  0.
        -24    2    4    4    0    0 -0.13391229619E+03 -0.21072654381E+03 -0.26546567354E+02  0.26230813493E+03  0.75912173446E+02 0.  0.
         24    2    4    4    0    0 -0.97218737570E+03  0.52789931423E+02 -0.19401285953E+04  0.21722065924E+04  0.80295974323E+02 0.  0.
         13    1    3    3    0    0  0.48613222055E+03  0.98189620634E+02  0.96196504563E+02  0.50519254245E+03  0.00000000000E+00 0. -1.
        -13    1    3    3    0    0  0.61996745133E+03  0.59746991755E+02  0.41940177193E+02  0.62425020800E+03  0.00000000000E+00 0.  1.
          2    1    6    6  502    0 -0.23154120680E+03  0.15291108069E+02 -0.54171932277E+03  0.58932586325E+03  0.00000000000E+00 0. -1.
          3    1    5    5  503    0 -0.33549703710E+02 -0.21403094273E+02  0.17622992191E+02  0.43522924044E+02  0.00000000000E+00 0. -1.
         -4    1    5    5    0  503 -0.10036259247E+03 -0.18932344954E+03 -0.44169559545E+02  0.21878521089E+03  0.00000000000E+00 0.  1.
         -3    1    6    6    0  502 -0.74064616890E+03  0.37498823354E+02 -0.13984092725E+04  0.15828807291E+04  0.00000000000E+00 0.  1.
<mgrwt>
<rscale>  0 0.30591240E+04</rscale>
<asrwt>0</asrwt>
<pdfrwt beam="1">  1        2 0.41480737E+00 0.30591240E+04</pdfrwt>
<pdfrwt beam="2">  1       -2 0.13349377E+00 0.30591240E+04</pdfrwt>
<totfact> 0.92279662E-01</totfact>
</mgrwt>
</event>
<event>
12    1  0.1960998E-007  0.1318760E+04  0.7818608E-02  0.9014819E-01
          1   -1    0    0  501    0  0.00000000000E+00  0.00000000000E+00  0.93969599652E+03  0.93969599652E+03  0.00000000000E+00 0. -1.
         -1   -1    0    0    0  501 -0.00000000000E+00 -0.00000000000E+00 -0.46268362577E+03  0.46268362577E+03  0.00000000000E+00 0.  1.
         23    2    1    2    0    0  0.23831969384E+03 -0.20548754077E+03  0.26816028721E+03  0.42476180100E+03  0.97423005849E+02 0.  0.
        254    2    1    2    0    0 -0.23831969384E+03  0.20548754077E+03  0.20885208354E+03  0.97761782128E+03  0.90171836280E+03 0.  0.
        -24    2    4    4    0    0 -0.53316848321E+02 -0.34826030072E+03  0.12897518697E+03  0.38341247147E+03  0.79010132632E+02 0.  0.
         24    2    4    4    0    0 -0.18500284552E+03  0.55374784149E+03  0.79876896576E+02  0.59420534981E+03  0.76399962918E+02 0.  0.
         11    1    3    3    0    0  0.44675857669E+01  0.94632802600E+00 -0.73012608642E+01  0.86118098867E+01  0.00000000000E+00 0.  1.
        -11    1    3    3    0    0  0.23385210808E+03 -0.20643386880E+03  0.27546154808E+03  0.41614999112E+03  0.00000000000E+00 0. -1.
          4    1    6    6  502    0 -0.14525263681E+03  0.47471572624E+03  0.92061544979E+02  0.50490462199E+03  0.00000000000E+00 0. -1.
          1    1    5    5  503    0 -0.56405887252E+02 -0.20436439213E+03  0.44838429397E+02  0.21669543982E+03  0.00000000000E+00 0. -1.
         -2    1    5    5    0  503  0.30890389311E+01 -0.14389590858E+03  0.84136757570E+02  0.16671703165E+03  0.00000000000E+00 0.  1.
         -3    1    6    6    0  502 -0.39750208711E+02  0.79032115243E+02 -0.12184648403E+02  0.89300727819E+02  0.00000000000E+00 0.  1.
<mgrwt>
<rscale>  0 0.13187599E+04</rscale>
<asrwt>0</asrwt>
<pdfrwt beam="1">  1        1 0.14456861E+00 0.13187599E+04</pdfrwt>
<pdfrwt beam="2">  1       -1 0.71182097E-01 0.13187599E+04</pdfrwt>
<totfact> 0.33044784E+01</totfact>
</mgrwt>
</event>
<event>
12    1  0.1960998E-007  0.2571964E+04  0.7818608E-02  0.8377787E-01
          2   -1    0    0  501    0  0.00000000000E+00  0.00000000000E+00  0.25393855240E+04  0.25393855240E+04  0.00000000000E+00 0. -1.
         -2   -1    0    0    0  501 -0.00000000000E+00 -0.00000000000E+00 -0.65124000590E+03  0.65124000590E+03  0.00000000000E+00 0.  1.
         23    2    1    2    0    0  0.10962994979E+04  0.23211299266E+03  0.68768726750E+03  0.13178201757E+04  0.89371176384E+02 0.  0.
        254    2    1    2    0    0 -0.10962994979E+04 -0.23211299266E+03  0.12004582506E+04  0.18728053542E+04  0.90030597731E+03 0.  0.
        -24    2    4    4    0    0 -0.22586957689E+02  0.12828123555E+03  0.53601265913E+03  0.55726414772E+03  0.79167629336E+02 0.  0.
         24    2    4    4    0    0 -0.10737125402E+04 -0.36039422821E+03  0.66444559151E+03  0.13155412065E+04  0.80113064823E+02 0.  0.
         13    1    3    3    0    0  0.62066750384E+03  0.15127062080E+03  0.34494793413E+03  0.72601654823E+03  0.00000000000E+00 0.  1.
        -13    1    3    3    0    0  0.47563199407E+03  0.80842371859E+02  0.34273933338E+03  0.59180362749E+03  0.00000000000E+00 0. -1.
          4    1    6    6  502    0 -0.10318810611E+04 -0.35228547642E+03  0.65475092111E+03  0.12718421089E+04  0.00000000000E+00 0. -1.
          3    1    5    5  503    0  0.98977340150E+01  0.83631377330E+02  0.42516515814E+03  0.43342540778E+03  0.00000000000E+00 0. -1.
         -4    1    5    5    0  503 -0.32484691704E+02  0.44649858225E+02  0.11084750099E+03  0.12383873994E+03  0.00000000000E+00 0.  1.
         -3    1    6    6    0  502 -0.41831479098E+02 -0.81087517942E+01  0.96946703994E+01  0.43699097626E+02  0.00000000000E+00 0.  1.
<mgrwt>
<rscale>  0 0.25719638E+04</rscale>
<asrwt>0</asrwt>
<pdfrwt beam="1">  1        2 0.39067469E+00 0.25719638E+04</pdfrwt>
<pdfrwt beam="2">  1       -2 0.10019077E+00 0.25719638E+04</pdfrwt>
<totfact> 0.24070080E+00</totfact>
</mgrwt>
</event>
<event>
12    1  0.1960998E-007  0.1909038E+04  0.7818608E-02  0.8650371E-01
         -2   -1    0    0    0  501 -0.00000000000E+00  0.00000000000E+00  0.79679002028E+03  0.79679002028E+03  0.00000000000E+00 0.  1.
          2   -1    0    0  501    0  0.00000000000E+00 -0.00000000000E+00 -0.11434711437E+04  0.11434711437E+04  0.00000000000E+00 0. -1.
         23    2    1    2    0    0  0.35118841407E+03  0.58187918313E+03 -0.42835025540E+03  0.80927739495E+03  0.97618004213E+02 0.  0.
        254    2    1    2    0    0 -0.35118841407E+03 -0.58187918313E+03  0.81669131934E+02  0.11309837691E+04  0.90029870203E+03 0.  0.
        -24    2    4    4    0    0 -0.40706239338E+03 -0.35167187794E+03 -0.33951124435E+03  0.64116291563E+03  0.80306273144E+02 0.  0.
         24    2    4    4    0    0  0.55873979316E+02 -0.23020730519E+03  0.42118037628E+03  0.48982085344E+03  0.80089039050E+02 0.  0.
         11    1    3    3    0    0  0.17344527762E+03  0.30593131289E+03 -0.27778893937E+03  0.44815614174E+03  0.00000000000E+00 0. -1.
        -11    1    3    3    0    0  0.17774313645E+03  0.27594787023E+03 -0.15056131603E+03  0.36112125322E+03  0.00000000000E+00 0.  1.
          2    1    6    6  502    0  0.19786572634E+02 -0.11300937604E+03  0.12723752415E+03  0.17132429799E+03  0.00000000000E+00 0. -1.
          3    1    5    5  503    0 -0.18970036175E+01 -0.16965128995E+02 -0.36038098836E+01  0.17447110655E+02  0.00000000000E+00 0. -1.
         -4    1    5    5    0  503 -0.40516538976E+03 -0.33470674894E+03 -0.33590743446E+03  0.62371580498E+03  0.00000000000E+00 0.  1.
         -1    1    6    6    0  502  0.36087406682E+02 -0.11719792915E+03  0.29394285213E+03  0.31849655546E+03  0.00000000000E+00 0.  1.
<mgrwt>
<rscale>  0 0.19090379E+04</rscale>
<asrwt>0</asrwt>
<pdfrwt beam="1">  1        2 0.17591864E+00 0.19090379E+04</pdfrwt>
<pdfrwt beam="2">  1       -2 0.12258308E+00 0.19090379E+04</pdfrwt>
<totfact> 0.96566031E+00</totfact>
</mgrwt>
</event>
<event>
12    1  0.1960998E-007  0.1869398E+04  0.7818608E-02  0.8670241E-01
         -1   -1    0    0    0  501 -0.00000000000E+00  0.00000000000E+00  0.68956140489E+03  0.68956140489E+03  0.00000000000E+00 0.  1.
          1   -1    0    0  501    0  0.00000000000E+00 -0.00000000000E+00 -0.12669821558E+04  0.12669821558E+04  0.00000000000E+00 0. -1.
         23    2    1    2    0    0  0.16174793845E+03  0.53230480551E+03  0.24552822776E+03  0.61520145166E+03  0.93155321541E+02 0.  0.
        254    2    1    2    0    0 -0.16174793845E+03 -0.53230480551E+03 -0.82294897870E+03  0.13413421091E+04  0.90135610636E+03 0.  0.
        -24    2    4    4    0    0 -0.24712064668E+03 -0.51070216663E+03 -0.98580840174E+03  0.11401689307E+04  0.79256977385E+02 0.  0.
         24    2    4    4    0    0  0.85372708223E+02 -0.21602638874E+02  0.16285942304E+03  0.20117317843E+03  0.78691058767E+02 0.  0.
         11    1    3    3    0    0  0.83447763634E+02  0.17886659090E+03  0.49333122568E+02  0.20344666027E+03  0.00000000000E+00 0. -1.
        -11    1    3    3    0    0  0.78300174820E+02  0.35343821461E+03  0.19619510519E+03  0.41175479138E+03  0.00000000000E+00 0.  1.
          4    1    6    6  502    0  0.31557698969E+02 -0.23607354735E+02  0.12320010398E+02  0.41291381886E+02  0.00000000000E+00 0. -1.
          3    1    5    5  503    0 -0.82573492114E+02 -0.96903317782E+02 -0.20594074108E+03  0.24211613625E+03  0.00000000000E+00 0. -1.
         -4    1    5    5    0  503 -0.16454715456E+03 -0.41379884885E+03 -0.77986766066E+03  0.89805279440E+03  0.00000000000E+00 0.  1.
         -3    1    6    6    0  502  0.53815009254E+02  0.20047158610E+01  0.15053941264E+03  0.15988179654E+03  0.00000000000E+00 0.  1.
<mgrwt>
<rscale>  0 0.18693978E+04</rscale>
<asrwt>0</asrwt>
<pdfrwt beam="1">  1        1 0.19492033E+00 0.18693978E+04</pdfrwt>
<pdfrwt beam="2">  1       -1 0.10608637E+00 0.18693978E+04</pdfrwt>
<totfact> 0.74486346E+00</totfact>
</mgrwt>
</event>
<event>
12    1  0.1960998E-007  0.3325445E+04  0.7818608E-02  0.8156451E-01
         -1   -1    0    0    0  501 -0.00000000000E+00  0.00000000000E+00  0.20692330180E+04  0.20692330180E+04  0.00000000000E+00 0.  1.
          1   -1    0    0  501    0  0.00000000000E+00 -0.00000000000E+00 -0.13360729635E+04  0.13360729635E+04  0.00000000000E+00 0. -1.
         23    2    1    2    0    0  0.77746478313E+03  0.12492623922E+04  0.80142603775E+03  0.16789950061E+04  0.10785417423E+03 0.  0.
        254    2    1    2    0    0 -0.77746478313E+03 -0.12492623922E+04 -0.68265983174E+02  0.17263109754E+04  0.90021182276E+03 0.  0.
        -24    2    4    4    0    0  0.11977817582E+03 -0.56028035880E+03 -0.12087307215E+03  0.59092740816E+03  0.79523646089E+02 0.  0.
         24    2    4    4    0    0 -0.89724295895E+03 -0.68898203340E+03  0.52607088977E+02  0.11353835673E+04  0.81161377873E+02 0.  0.
         13    1    3    3    0    0  0.11375873781E+03  0.12862603065E+03  0.11589156022E+03  0.20716312393E+03  0.00000000000E+00 0. -1.
        -13    1    3    3    0    0  0.66370604532E+03  0.11206363616E+04  0.68553447753E+03  0.14718318821E+04  0.00000000000E+00 0.  1.
          2    1    6    6  502    0 -0.85639084537E+03 -0.66827102626E+03  0.64092542014E+02  0.10881632683E+04  0.00000000000E+00 0. -1.
          1    1    5    5  503    0  0.12925435930E+03 -0.47243970598E+03 -0.95733074658E+02  0.49906992172E+03  0.00000000000E+00 0. -1.
         -2    1    5    5    0  503 -0.94761834809E+01 -0.87840652821E+02 -0.25139997493E+02  0.91857486441E+02  0.00000000000E+00 0.  1.
         -1    1    6    6    0  502 -0.40852113573E+02 -0.20711007135E+02 -0.11485453037E+02  0.47220298934E+02  0.00000000000E+00 0.  1.
<mgrwt>
<rscale>  0 0.33254451E+04</rscale>
<asrwt>0</asrwt>
<pdfrwt beam="1">  1        1 0.20554969E+00 0.33254451E+04</pdfrwt>
<pdfrwt beam="2">  1       -1 0.31834354E+00 0.33254451E+04</pdfrwt>
<totfact> 0.17705030E-01</totfact>
</mgrwt>
</event>
<event>
12    1  0.1960998E-007  0.3125924E+04  0.7818608E-02  0.8208659E-01
          1   -1    0    0  501    0  0.00000000000E+00  0.00000000000E+00  0.20807898973E+04  0.20807898973E+04  0.00000000000E+00 0. -1.
         -1   -1    0    0    0  501 -0.00000000000E+00 -0.00000000000E+00 -0.11740012529E+04  0.11740012529E+04  0.00000000000E+00 0.  1.
         23    2    1    2    0    0 -0.47832544140E+03 -0.37215746712E+03 -0.93508091790E+03  0.11177909908E+04  0.88226798438E+02 0.  0.
        254    2    1    2    0    0  0.47832544140E+03  0.37215746712E+03  0.18418695623E+04  0.21370001593E+04  0.89832610343E+03 0.  0.
        -24    2    4    4    0    0  0.16448657090E+03 -0.28079722510E+03  0.77849935237E+03  0.84783304037E+03  0.82805247921E+02 0.  0.
         24    2    4    4    0    0  0.31383887050E+03  0.65295469222E+03  0.10633702100E+04  0.12891671190E+04  0.79693101469E+02 0.  0.
         13    1    3    3    0    0 -0.21889354319E+03 -0.21992780679E+03 -0.51181447910E+03  0.59852876662E+03  0.00000000000E+00 0.  1.
        -13    1    3    3    0    0 -0.25943189822E+03 -0.15222966033E+03 -0.42326643879E+03  0.51926222422E+03  0.00000000000E+00 0. -1.
          2    1    6    6  502    0  0.47938949731E+02  0.16461491950E+03  0.21845486432E+03  0.27770261498E+03  0.00000000000E+00 0. -1.
          3    1    5    5  503    0  0.97165085928E+02 -0.10812825067E+03  0.41669227468E+03  0.44132213212E+03  0.00000000000E+00 0. -1.
         -4    1    5    5    0  503  0.67321484972E+02 -0.17266897443E+03  0.36180707769E+03  0.40651090826E+03  0.00000000000E+00 0.  1.
         -1    1    6    6    0  502  0.26589992077E+03  0.48833977272E+03  0.84491534566E+03  0.10114645040E+04  0.00000000000E+00 0.  1.
<mgrwt>
<rscale>  0 0.31259238E+04</rscale>
<asrwt>0</asrwt>
<pdfrwt beam="1">  1        1 0.32012152E+00 0.31259238E+04</pdfrwt>
<pdfrwt beam="2">  1       -1 0.18061558E+00 0.31259238E+04</pdfrwt>
<totfact> 0.45550181E-01</totfact>
</mgrwt>
</event>
<event>
12    1  0.1960998E-007  0.2250818E+04  0.7818608E-02  0.8497569E-01
          2   -1    0    0  501    0  0.00000000000E+00  0.00000000000E+00  0.12278025385E+04  0.12278025385E+04  0.00000000000E+00 0. -1.
         -2   -1    0    0    0  501 -0.00000000000E+00 -0.00000000000E+00 -0.10315544401E+04  0.10315544401E+04  0.00000000000E+00 0.  1.
         23    2    1    2    0    0 -0.77911221593E+01  0.75234955368E+03 -0.48955127198E+03  0.90218967619E+03  0.90527407008E+02 0.  0.
        254    2    1    2    0    0  0.77911221593E+01 -0.75234955368E+03  0.68579937041E+03  0.13571673025E+04  0.89749192638E+03 0.  0.
        -24    2    4    4    0    0 -0.81467546280E+02 -0.87581750453E+03  0.29556479504E+03  0.93090684875E+03  0.74402625296E+02 0.  0.
         24    2    4    4    0    0  0.89258668439E+02  0.12346795085E+03  0.39023457537E+03  0.42626045371E+03  0.78762337491E+02 0.  0.
         13    1    3    3    0    0  0.16465433768E+02  0.67074453073E+03 -0.41420154532E+03  0.78850000391E+03  0.00000000000E+00 0. -1.
        -13    1    3    3    0    0 -0.24256555928E+02  0.81605022945E+02 -0.75349726665E+02  0.11368967228E+03  0.00000000000E+00 0.  1.
          2    1    6    6  502    0 -0.65321421601E+01  0.45756528029E+02  0.79822633991E+02  0.92238720913E+02  0.00000000000E+00 0. -1.
          3    1    5    5  503    0 -0.68486347148E+02 -0.56857602430E+03  0.22568947524E+03  0.61555244650E+03  0.00000000000E+00 0. -1.
         -4    1    5    5    0  503 -0.12981199132E+02 -0.30724148023E+03  0.69875319796E+02  0.31535440226E+03  0.00000000000E+00 0.  1.
         -1    1    6    6    0  502  0.95790810599E+02  0.77711422822E+02  0.31041194138E+03  0.33402173280E+03  0.00000000000E+00 0.  1.
<mgrwt>
<rscale>  0 0.22508178E+04</rscale>
<asrwt>0</asrwt>
<pdfrwt beam="1">  1        2 0.18889270E+00 0.22508178E+04</pdfrwt>
<pdfrwt beam="2">  1       -2 0.15870068E+00 0.22508178E+04</pdfrwt>
<totfact> 0.42743404E+00</totfact>
</mgrwt>
</event>
<event>
12    1  0.1960998E-007  0.1727084E+04  0.7818608E-02  0.8746067E-01
         -2   -1    0    0    0  501 -0.00000000000E+00  0.00000000000E+00  0.48313934532E+03  0.48313934532E+03  0.00000000000E+00 0.  1.
          2   -1    0    0  501    0  0.00000000000E+00 -0.00000000000E+00 -0.15434562682E+04  0.15434562682E+04  0.00000000000E+00 0. -1.
         23    2    1    2    0    0 -0.32604757562E+03  0.47202929908E+03 -0.95864984421E+02  0.58891484412E+03  0.92260054317E+02 0.  0.
        254    2    1    2    0    0  0.32604757562E+03 -0.47202929908E+03 -0.96445193843E+03  0.14376807694E+04  0.89868780583E+03 0.  0.
        -24    2    4    4    0    0 -0.21199915795E+03  0.12198885439E+03 -0.18636582580E+03  0.31769671969E+03  0.79837717321E+02 0.  0.
         24    2    4    4    0    0  0.53804673358E+03 -0.59401815348E+03 -0.77808611262E+03  0.11199840497E+04  0.81206026363E+02 0.  0.
         11    1    3    3    0    0 -0.10904419323E+01  0.41594785547E+02 -0.10051258460E+02  0.42805876290E+02  0.00000000000E+00 0.  1.
        -11    1    3    3    0    0 -0.32495713369E+03  0.43043451354E+03 -0.85813725961E+02  0.54610896783E+03  0.00000000000E+00 0. -1.
          4    1    6    6  502    0  0.26267253453E+03 -0.33024714240E+03 -0.36658068366E+03  0.55896460809E+03  0.00000000000E+00 0. -1.
          3    1    5    5  503    0 -0.77339213471E+02  0.77558356261E+02 -0.11549523864E+03  0.15917224228E+03  0.00000000000E+00 0. -1.
         -4    1    5    5    0  503 -0.13465994448E+03  0.44430498133E+02 -0.70870587168E+02  0.15852447741E+03  0.00000000000E+00 0.  1.
         -3    1    6    6    0  502  0.27537419905E+03 -0.26377101107E+03 -0.41150542896E+03  0.56101944160E+03  0.00000000000E+00 0.  1.
<mgrwt>
<rscale>  0 0.17270836E+04</rscale>
<asrwt>0</asrwt>
<pdfrwt beam="1">  1        2 0.23745481E+00 0.17270836E+04</pdfrwt>
<pdfrwt beam="2">  1       -2 0.74329131E-01 0.17270836E+04</pdfrwt>
<totfact> 0.18555652E+01</totfact>
</mgrwt>
</event>
<event>
12    1  0.1960998E-007  0.1546633E+04  0.7818608E-02  0.8854021E-01
          1   -1    0    0  501    0  0.00000000000E+00  0.00000000000E+00  0.12186945653E+04  0.12186945653E+04  0.00000000000E+00 0. -1.
         -1   -1    0    0    0  501 -0.00000000000E+00 -0.00000000000E+00 -0.49070432763E+03  0.49070432763E+03  0.00000000000E+00 0.  1.
         23    2    1    2    0    0 -0.18026919625E+03 -0.31079289687E+02  0.77031181256E+03  0.79707349586E+03  0.92103006804E+02 0.  0.
        254    2    1    2    0    0  0.18026919625E+03  0.31079289687E+02 -0.42321574947E+02  0.91232539702E+03  0.89279539032E+03 0.  0.
        -24    2    4    4    0    0 -0.21961462393E+03  0.84992818543E+02  0.29080969595E+03  0.38297957140E+03  0.81539625964E+02 0.  0.
         24    2    4    4    0    0  0.39988382018E+03 -0.53913528857E+02 -0.33313127090E+03  0.52934582563E+03  0.80105063636E+02 0.  0.
         13    1    3    3    0    0  0.91606684063E+01 -0.35695498321E+01  0.15392662634E+02  0.18264544742E+02  0.00000000000E+00 0.  1.
        -13    1    3    3    0    0 -0.18942986466E+03 -0.27509739854E+02  0.75491914993E+03  0.77880895112E+03  0.00000000000E+00 0. -1.
          4    1    6    6  502    0  0.21043541246E+03  0.11985409985E+02 -0.17312604290E+03  0.27276242337E+03  0.00000000000E+00 0. -1.
          3    1    5    5  503    0 -0.56520960862E+01 -0.24706642858E+01  0.45528317880E+02  0.45944293456E+02  0.00000000000E+00 0. -1.
         -4    1    5    5    0  503 -0.21396252784E+03  0.87463482829E+02  0.24528137807E+03  0.33703527794E+03  0.00000000000E+00 0.  1.
         -3    1    6    6    0  502  0.18944840772E+03 -0.65898938842E+02 -0.16000522799E+03  0.25658340226E+03  0.00000000000E+00 0.  1.
<mgrwt>
<rscale>  0 0.15466334E+04</rscale>
<asrwt>0</asrwt>
<pdfrwt beam="1">  1        1 0.18749147E+00 0.15466334E+04</pdfrwt>
<pdfrwt beam="2">  1       -1 0.75492974E-01 0.15466334E+04</pdfrwt>
<totfact> 0.17599340E+01</totfact>
</mgrwt>
</event>
<event>
12    1  0.1960998E-007  0.2089795E+04  0.7818608E-02  0.8565752E-01
          2   -1    0    0  501    0  0.00000000000E+00  0.00000000000E+00  0.20561867293E+04  0.20561867293E+04  0.00000000000E+00 0. -1.
         -2   -1    0    0    0  501 -0.00000000000E+00 -0.00000000000E+00 -0.53098796154E+03  0.53098796154E+03  0.00000000000E+00 0.  1.
         23    2    1    2    0    0  0.61171115401E+03  0.50488226074E+03  0.10232064516E+04  0.12980388389E+04  0.94110315287E+02 0.  0.
        254    2    1    2    0    0 -0.61171115401E+03 -0.50488226074E+03  0.50199231608E+03  0.12891358519E+04  0.88361661717E+03 0.  0.
        -24    2    4    4    0    0 -0.44075246155E+03 -0.42657682419E+03  0.74710000560E+03  0.96989117002E+03  0.79372186769E+02 0.  0.
         24    2    4    4    0    0 -0.17095869246E+03 -0.78305436554E+02 -0.24510768952E+03  0.31924468189E+03  0.80503239265E+02 0.  0.
         11    1    3    3    0    0  0.61101934517E+03  0.48882089007E+03  0.99883528710E+03  0.12688429507E+04  0.00000000000E+00 0. -1.
        -11    1    3    3    0    0  0.69180884130E+00  0.16061370674E+02  0.24371164545E+02  0.29195888215E+02  0.00000000000E+00 0.  1.
          2    1    6    6  502    0 -0.36194676796E+02 -0.53407187045E+02 -0.10514002657E+03  0.12335642442E+03  0.00000000000E+00 0. -1.
          1    1    5    5  503    0 -0.21492956493E+03 -0.15459625746E+03  0.30698293474E+03  0.40538036820E+03  0.00000000000E+00 0. -1.
         -2    1    5    5    0  503 -0.22582289662E+03 -0.27198056673E+03  0.44011707086E+03  0.56451080182E+03  0.00000000000E+00 0.  1.
         -1    1    6    6    0  502 -0.13476401566E+03 -0.24898249509E+02 -0.13996766295E+03  0.19588825747E+03  0.00000000000E+00 0.  1.
<mgrwt>
<rscale>  0 0.20897946E+04</rscale>
<asrwt>0</asrwt>
<pdfrwt beam="1">  1        2 0.31633642E+00 0.20897946E+04</pdfrwt>
<pdfrwt beam="2">  1       -2 0.81690456E-01 0.20897946E+04</pdfrwt>
<totfact> 0.75595437E+00</totfact>
</mgrwt>
</event>
<event>
12    1  0.1960998E-007  0.1890059E+04  0.7818608E-02  0.8659820E-01
         -2   -1    0    0    0  501 -0.00000000000E+00  0.00000000000E+00  0.51801039736E+03  0.51801039736E+03  0.00000000000E+00 0. -1.
          2   -1    0    0  501    0  0.00000000000E+00 -0.00000000000E+00 -0.17240598927E+04  0.17240598927E+04  0.00000000000E+00 0.  1.
         23    2    1    2    0    0  0.71753719713E+03 -0.10580987418E+02 -0.34530413718E+03  0.80126066375E+03  0.88386184185E+02 0.  0.
        254    2    1    2    0    0 -0.71753719713E+03  0.10580987418E+02 -0.86074535813E+03  0.14408096263E+04  0.90558170317E+03 0.  0.
        -24    2    4    4    0    0 -0.84389887779E+03  0.21082726672E+03 -0.79861543875E+03  0.11835295536E+04  0.79637509082E+02 0.  0.
         24    2    4    4    0    0  0.12636168066E+03 -0.20024627930E+03 -0.62129919389E+02  0.25728007273E+03  0.79164778953E+02 0.  0.
         13    1    3    3    0    0  0.15616751579E+03 -0.27490685652E+01 -0.11716990478E+03  0.19525531222E+03  0.00000000000E+00 0.  1.
        -13    1    3    3    0    0  0.56136968134E+03 -0.78319188528E+01 -0.22813423241E+03  0.60600535153E+03  0.00000000000E+00 0. -1.
          4    1    6    6  502    0 -0.18844777045E+01 -0.57573533052E+02 -0.18942266884E+02  0.60638869044E+02  0.00000000000E+00 0. -1.
          1    1    5    5  503    0 -0.13015933780E+03  0.54661322565E+02 -0.10330348320E+03  0.17493119517E+03  0.00000000000E+00 0. -1.
         -2    1    5    5    0  503 -0.71373953999E+03  0.15616594415E+03 -0.69531195554E+03  0.10085983584E+04  0.00000000000E+00 0.  1.
         -3    1    6    6    0  502  0.12824615836E+03 -0.14267274625E+03 -0.43187652505E+02  0.19664120368E+03  0.00000000000E+00 0.  1.
<mgrwt>
<rscale>  0 0.18900592E+04</rscale>
<asrwt>0</asrwt>
<pdfrwt beam="1">  1        2 0.26523998E+00 0.18900592E+04</pdfrwt>
<pdfrwt beam="2">  1       -2 0.79693907E-01 0.18900592E+04</pdfrwt>
<totfact> 0.12426330E+01</totfact>
</mgrwt>
</event>
<event>
12    1  0.1960998E-007  0.1718211E+04  0.7818608E-02  0.8751046E-01
         -2   -1    0    0    0  501 -0.00000000000E+00  0.00000000000E+00  0.51820999356E+03  0.51820999356E+03  0.00000000000E+00 0.  1.
          2   -1    0    0  501    0  0.00000000000E+00 -0.00000000000E+00 -0.14242530323E+04  0.14242530323E+04  0.00000000000E+00 0. -1.
         23    2    1    2    0    0  0.35508024636E+03  0.29437567332E+03  0.13938156190E+03  0.48750351379E+03  0.74117729070E+02 0.  0.
        254    2    1    2    0    0 -0.35508024636E+03 -0.29437567332E+03 -0.10454246007E+04  0.14549595121E+04  0.90069726753E+03 0.  0.
        -24    2    4    4    0    0 -0.42833822048E+03  0.11863620955E+03 -0.89419594214E+03  0.10016662063E+04  0.78744045117E+02 0.  0.
         24    2    4    4    0    0  0.73257974119E+02 -0.41301188287E+03 -0.15122865851E+03  0.45329330574E+03  0.81603723585E+02 0.  0.
         11    1    3    3    0    0  0.81742984091E+02  0.31541834791E+02  0.19030657906E+02  0.89660296288E+02  0.00000000000E+00 0. -1.
        -11    1    3    3    0    0  0.27333726227E+03  0.26283383853E+03  0.12035090399E+03  0.39784321750E+03  0.00000000000E+00 0.  1.
          4    1    6    6  502    0  0.52086191266E+02 -0.39586782300E+03 -0.13450179149E+03  0.42132533335E+03  0.00000000000E+00 0. -1.
          3    1    5    5  503    0 -0.20481059957E+03  0.81455591934E+02 -0.51056678822E+03  0.55611225521E+03  0.00000000000E+00 0. -1.
         -2    1    5    5    0  503 -0.22352762090E+03  0.37180617616E+02 -0.38362915392E+03  0.44555395113E+03  0.00000000000E+00 0.  1.
         -3    1    6    6    0  502  0.21171782852E+02 -0.17144059870E+02 -0.16726867022E+02  0.31967972384E+02  0.00000000000E+00 0.  1.
<mgrwt>
<rscale>  0 0.17182109E+04</rscale>
<asrwt>0</asrwt>
<pdfrwt beam="1">  1        2 0.21911585E+00 0.17182109E+04</pdfrwt>
<pdfrwt beam="2">  1       -2 0.79724616E-01 0.17182109E+04</pdfrwt>
<totfact> 0.18552698E+01</totfact>
</mgrwt>
</event>
<event>
12    1  0.1960998E-007  0.1809612E+04  0.7818608E-02  0.8701204E-01
         -2   -1    0    0    0  501 -0.00000000000E+00  0.00000000000E+00  0.74152966199E+03  0.74152966199E+03  0.00000000000E+00 0.  1.
          2   -1    0    0  501    0  0.00000000000E+00 -0.00000000000E+00 -0.11040344493E+04  0.11040344493E+04  0.00000000000E+00 0. -1.
         23    2    1    2    0    0 -0.53228982716E+03 -0.38421136608E+02  0.28798922264E+03  0.61286774425E+03  0.88659098526E+02 0.  0.
        254    2    1    2    0    0  0.53228982716E+03  0.38421136608E+02 -0.65049400995E+03  0.12326963670E+04  0.90088247429E+03 0.  0.
        -24    2    4    4    0    0  0.18371348458E+03  0.43296370736E+03 -0.47156143463E+03  0.67090929573E+03  0.80875708112E+02 0.  0.
         24    2    4    4    0    0  0.34857634258E+03 -0.39454257075E+03 -0.17893257532E+03  0.56178707131E+03  0.80115792691E+02 0.  0.
         11    1    3    3    0    0 -0.38465236966E+03 -0.46878157155E+02  0.16764556389E+03  0.42220852928E+03  0.00000000000E+00 0.  1.
        -11    1    3    3    0    0 -0.14763745750E+03  0.84570205477E+01  0.12034365874E+03  0.19065921497E+03  0.00000000000E+00 0. -1.
          2    1    6    6  502    0  0.13394715286E+03 -0.20875440588E+03 -0.69871808116E+02  0.25768645929E+03  0.00000000000E+00 0. -1.
          3    1    5    5  503    0  0.10126100495E+01  0.17277021942E+02 -0.43764268974E+02  0.47062002775E+02  0.00000000000E+00 0. -1.
         -4    1    5    5    0  503  0.18270087453E+03  0.41568668541E+03 -0.42779716565E+03  0.62384729295E+03  0.00000000000E+00 0.  1.
         -1    1    6    6    0  502  0.21462918972E+03 -0.18578816487E+03 -0.10906076721E+03  0.30410061202E+03  0.00000000000E+00 0.  1.
<mgrwt>
<rscale>  0 0.18096124E+04</rscale>
<asrwt>0</asrwt>
<pdfrwt beam="1">  1        2 0.16985145E+00 0.18096124E+04</pdfrwt>
<pdfrwt beam="2">  1       -2 0.11408149E+00 0.18096124E+04</pdfrwt>
<totfact> 0.12289147E+01</totfact>
</mgrwt>
</event>
<event>
12    1  0.1960998E-007  0.2345973E+04  0.7818608E-02  0.8460012E-01
          2   -1    0    0  501    0  0.00000000000E+00  0.00000000000E+00  0.19265980865E+04  0.19265980865E+04  0.00000000000E+00 0.  1.
         -2   -1    0    0    0  501 -0.00000000000E+00 -0.00000000000E+00 -0.71415878080E+03  0.71415878080E+03  0.00000000000E+00 0. -1.
         23    2    1    2    0    0 -0.71709335674E+03 -0.13581693659E+02  0.12979642332E+04  0.14858711753E+04  0.93245129839E+02 0.  0.
        254    2    1    2    0    0  0.71709335674E+03  0.13581693659E+02 -0.85524927503E+02  0.11548856920E+04  0.90113212332E+03 0.  0.
        -24    2    4    4    0    0  0.11096334376E+02 -0.34561796973E+03 -0.48903671191E+02  0.35822787269E+03  0.79754185371E+02 0.  0.
         24    2    4    4    0    0  0.70599702237E+03  0.35919966339E+03 -0.36621256313E+02  0.79665781930E+03  0.76592237726E+02 0.  0.
         11    1    3    3    0    0 -0.64533782458E+03  0.85825033354E+01  0.11188581269E+04  0.12916571044E+04  0.00000000000E+00 0.  1.
        -11    1    3    3    0    0 -0.71755532157E+02 -0.22164196995E+02  0.17910610633E+03  0.19421407093E+03  0.00000000000E+00 0. -1.
          4    1    6    6  502    0  0.68013555552E+03  0.34217001527E+03 -0.20238387698E+02  0.76162607989E+03  0.00000000000E+00 0. -1.
          3    1    5    5  503    0 -0.34315776976E+02 -0.15412137955E+03 -0.16243501368E+02  0.15872877345E+03  0.00000000000E+00 0. -1.
         -2    1    5    5    0  503  0.45412111352E+02 -0.19149659017E+03 -0.32660169822E+02  0.19949909924E+03  0.00000000000E+00 0.  1.
         -3    1    6    6    0  502  0.25861466846E+02  0.17029648120E+02 -0.16382868614E+02  0.35031739417E+02  0.00000000000E+00 0.  1.
<mgrwt>
<rscale>  0 0.23459727E+04</rscale>
<asrwt>0</asrwt>
<pdfrwt beam="1">  1        2 0.29639970E+00 0.23459727E+04</pdfrwt>
<pdfrwt beam="2">  1       -2 0.10987058E+00 0.23459727E+04</pdfrwt>
<totfact> 0.43679029E+00</totfact>
</mgrwt>
</event>
<event>
12    1  0.2744978E-007  0.2719325E+04  0.7818608E-02  0.8328762E-01
          2   -1    0    0  501    0  0.00000000000E+00  0.00000000000E+00  0.34461712517E+04  0.34461712517E+04  0.00000000000E+00 0. -1.
         -2   -1    0    0    0  501 -0.00000000000E+00 -0.00000000000E+00 -0.53644525843E+03  0.53644525843E+03  0.00000000000E+00 0.  1.
         23    2    1    2    0    0 -0.21656465824E+03 -0.11448968352E+04  0.83056928444E+03  0.14338186069E+04  0.91112276060E+02 0.  0.
        254    2    1    2    0    0  0.21656465824E+03  0.11448968352E+04  0.20791567088E+04  0.25487979032E+04  0.90321045018E+03 0.  0.
        -24    2    4    4    0    0  0.74993046079E+02  0.44633029626E+03  0.16505769450E+04  0.17132759454E+04  0.77945642407E+02 0.  0.
         24    2    4    4    0    0  0.14157161216E+03  0.69856653890E+03  0.42857976377E+03  0.83552195785E+03  0.79866122304E+02 0.  0.
         11    1    3    3    0    0 -0.13814869654E+03 -0.83758923392E+03  0.56045638884E+03  0.10172276790E+04  0.00000000000E+00 0.  1.
        -11    1    3    3    0    0 -0.78415961703E+02 -0.30730760124E+03  0.27011289560E+03  0.41659092789E+03  0.00000000000E+00 0. -1.
          4    1    6    6  502    0  0.10437419880E+03  0.62687733984E+03  0.36614320450E+03  0.73343712668E+03  0.00000000000E+00 0. -1.
          1    1    5    5  503    0  0.70129122644E+02  0.41038705764E+03  0.15798935923E+04  0.16338296710E+04  0.00000000000E+00 0. -1.
         -2    1    5    5    0  503  0.48639234348E+01  0.35943238622E+02  0.70683352766E+02  0.79446274375E+02  0.00000000000E+00 0.  1.
         -3    1    6    6    0  502  0.37197413362E+02  0.71689199059E+02  0.62436559267E+02  0.10208483117E+03  0.00000000000E+00 0.  1.
<mgrwt>
<rscale>  0 0.27193251E+04</rscale>
<asrwt>0</asrwt>
<pdfrwt beam="1">  1        2 0.53018018E+00 0.27193251E+04</pdfrwt>
<pdfrwt beam="2">  1       -2 0.82530042E-01 0.27193251E+04</pdfrwt>
<totfact> 0.10001874E+00</totfact>
</mgrwt>
</event>
<event>
12    1  0.1960998E-007  0.3323024E+04  0.7818608E-02  0.8157061E-01
          1   -1    0    0  501    0  0.00000000000E+00  0.00000000000E+00  0.40974118877E+04  0.40974118877E+04  0.00000000000E+00 0. -1.
         -1   -1    0    0    0  501 -0.00000000000E+00 -0.00000000000E+00 -0.67374789425E+03  0.67374789425E+03  0.00000000000E+00 0.  1.
         23    2    1    2    0    0  0.14996618820E+04 -0.15215481159E+03  0.20279370464E+04  0.25284150408E+04  0.90648263402E+02 0.  0.
        254    2    1    2    0    0 -0.14996618820E+04  0.15215481159E+03  0.13957269471E+04  0.22427447412E+04  0.89984077277E+03 0.  0.
        -24    2    4    4    0    0 -0.11650895070E+04  0.28263151896E+03  0.14362214485E+04  0.18725315452E+04  0.79550008096E+02 0.  0.
         24    2    4    4    0    0 -0.33457237499E+03 -0.13047670737E+03 -0.40494501439E+02  0.37021319597E+03  0.80344013806E+02 0.  0.
         11    1    3    3    0    0  0.36632074511E+03 -0.72148471392E+02  0.47213735789E+03  0.60192190103E+03  0.00000000000E+00 0.  1.
        -11    1    3    3    0    0  0.11333411368E+04 -0.80006340196E+02  0.15557996885E+04  0.19264931398E+04  0.00000000000E+00 0. -1.
          2    1    6    6  502    0 -0.26829680420E+03 -0.67840660542E+02 -0.33349571864E+02  0.27874311527E+03  0.00000000000E+00 0. -1.
          1    1    5    5  503    0 -0.92802992713E+03  0.25399063153E+03  0.11271441322E+04  0.14819597435E+04  0.00000000000E+00 0. -1.
         -2    1    5    5    0  503 -0.23705957983E+03  0.28640887430E+02  0.30907731628E+03  0.39057180168E+03  0.00000000000E+00 0.  1.
         -1    1    6    6    0  502 -0.66275570793E+02 -0.62636046827E+02 -0.71449295746E+01  0.91470080707E+02  0.00000000000E+00 0.  1.
<mgrwt>
<rscale>  0 0.33230243E+04</rscale>
<asrwt>0</asrwt>
<pdfrwt beam="1">  1        1 0.63037104E+00 0.33230243E+04</pdfrwt>
<pdfrwt beam="2">  1       -1 0.10365352E+00 0.33230243E+04</pdfrwt>
<totfact> 0.56936556E-02</totfact>
</mgrwt>
</event>
<event>
12    1  0.1960998E-007  0.1034856E+04  0.7818608E-02  0.9271120E-01
         -2   -1    0    0    0  501 -0.00000000000E+00  0.00000000000E+00  0.50864398211E+03  0.50864398211E+03  0.00000000000E+00 0.  1.
          2   -1    0    0  501    0  0.00000000000E+00 -0.00000000000E+00 -0.52636421157E+03  0.52636421157E+03  0.00000000000E+00 0. -1.
         23    2    1    2    0    0 -0.38366021444E+00 -0.32785805699E+02 -0.91936094128E+02  0.13333740062E+03  0.90838101860E+02 0.  0.
        254    2    1    2    0    0  0.38366021444E+00  0.32785805699E+02  0.74215864664E+02  0.90167079306E+03  0.89801289982E+03 0.  0.
        -24    2    4    4    0    0  0.17331986787E+03 -0.36824781266E+03 -0.97929679096E+02  0.42621068350E+03  0.80119264532E+02 0.  0.
         24    2    4    4    0    0 -0.17293620766E+03  0.40103361836E+03  0.17214554376E+03  0.47546010956E+03  0.75454175321E+02 0.  0.
         13    1    3    3    0    0 -0.44670568031E+02 -0.11196839247E+02 -0.33757681859E+02  0.57099999491E+02  0.00000000000E+00 0.  1.
        -13    1    3    3    0    0  0.44286907817E+02 -0.21588966453E+02 -0.58178412268E+02  0.76237401127E+02  0.00000000000E+00 0. -1.
          4    1    6    6  502    0 -0.79180781364E+02  0.12388230765E+03  0.29483934506E+02  0.14995240805E+03  0.00000000000E+00 0. -1.
          1    1    5    5  503    0  0.69786436150E+01 -0.81200451644E+02 -0.34195030065E+02  0.88382774878E+02  0.00000000000E+00 0. -1.
         -2    1    5    5    0  503  0.16634122426E+03 -0.28704736102E+03 -0.63734649031E+02  0.33782790862E+03  0.00000000000E+00 0.  1.
         -3    1    6    6    0  502 -0.93755426294E+02  0.27715131071E+03  0.14266160925E+03  0.32550770151E+03  0.00000000000E+00 0.  1.
<mgrwt>
<rscale>  0 0.10348565E+04</rscale>
<asrwt>0</asrwt>
<pdfrwt beam="1">  1        2 0.80979110E-01 0.10348565E+04</pdfrwt>
<pdfrwt beam="2">  1       -2 0.78252920E-01 0.10348565E+04</pdfrwt>
<totfact> 0.83996003E+01</totfact>
</mgrwt>
</event>
<event>
12    1  0.1960998E-007  0.4119616E+04  0.7818608E-02  0.7980842E-01
         -2   -1    0    0    0  501 -0.00000000000E+00  0.00000000000E+00  0.12329008337E+04  0.12329008337E+04  0.00000000000E+00 0. -1.
          2   -1    0    0  501    0  0.00000000000E+00 -0.00000000000E+00 -0.34413217038E+04  0.34413217038E+04  0.00000000000E+00 0.  1.
         23    2    1    2    0    0  0.51239553188E+03  0.12645096287E+04  0.54520591702E+03  0.14721013098E+04  0.91098804188E+02 0.  0.
        254    2    1    2    0    0 -0.51239553188E+03 -0.12645096287E+04 -0.27536267872E+04  0.32021212277E+04  0.89977002136E+03 0.  0.
        -24    2    4    4    0    0 -0.51095807887E+03 -0.13909498689E+04 -0.25244008557E+04  0.29282846096E+04  0.80195874641E+02 0.  0.
         24    2    4    4    0    0 -0.14374530077E+01  0.12644024019E+03 -0.22922593152E+03  0.27383661810E+03  0.80329105069E+02 0.  0.
         11    1    3    3    0    0  0.32541867920E+03  0.68477873335E+03  0.31170201919E+03  0.81974226388E+03  0.00000000000E+00 0.  1.
        -11    1    3    3    0    0  0.18697685268E+03  0.57973089540E+03  0.23350389782E+03  0.65235904594E+03  0.00000000000E+00 0. -1.
          2    1    6    6  502    0 -0.14545548758E+02  0.13190607544E+03 -0.18712477729E+03  0.22940459455E+03  0.00000000000E+00 0. -1.
          1    1    5    5  503    0 -0.40080565469E+03 -0.11627378892E+04 -0.21265074174E+04  0.24565500948E+04  0.00000000000E+00 0. -1.
         -4    1    5    5    0  503 -0.11015242419E+03 -0.22821197970E+03 -0.39789343824E+03  0.47173451477E+03  0.00000000000E+00 0.  1.
         -1    1    6    6    0  502  0.13108095750E+02 -0.54658352464E+01 -0.42101154227E+02  0.44432023546E+02  0.00000000000E+00 0.  1.
<mgrwt>
<rscale>  0 0.41196157E+04</rscale>
<asrwt>0</asrwt>
<pdfrwt beam="1">  1        2 0.52943411E+00 0.41196157E+04</pdfrwt>
<pdfrwt beam="2">  1       -2 0.18967705E+00 0.41196157E+04</pdfrwt>
<totfact> 0.10851729E-01</totfact>
</mgrwt>
</event>
<event>
12    1  0.1960998E-007  0.4799411E+04  0.7818608E-02  0.7860218E-01
          1   -1    0    0  501    0  0.00000000000E+00  0.00000000000E+00  0.31071351627E+04  0.31071351627E+04  0.00000000000E+00 0. -1.
         -1   -1    0    0    0  501 -0.00000000000E+00 -0.00000000000E+00 -0.18533424208E+04  0.18533424208E+04  0.00000000000E+00 0.  1.
         23    2    1    2    0    0  0.22352868435E+04 -0.59557113278E+03  0.52411402198E+03  0.23736685884E+04  0.91623208339E+02 0.  0.
        254    2    1    2    0    0 -0.22352868435E+04  0.59557113278E+03  0.72967871992E+03  0.25868089952E+04  0.89885343441E+03 0.  0.
        -24    2    4    4    0    0 -0.47840735232E+03  0.53320239370E+03  0.22999121291E+03  0.75753544309E+03  0.88236059088E+02 0.  0.
         24    2    4    4    0    0 -0.17568794912E+04  0.62368739076E+02  0.49968750700E+03  0.18292735521E+04  0.77709186804E+02 0.  0.
         11    1    3    3    0    0  0.12580759907E+04 -0.31402071270E+03  0.25206227930E+03  0.13209464785E+04  0.00000000000E+00 0. -1.
        -11    1    3    3    0    0  0.97721085283E+03 -0.28155042008E+03  0.27205174268E+03  0.10527221099E+04  0.00000000000E+00 0.  1.
          2    1    6    6  502    0 -0.12075678070E+04  0.24031607448E+02  0.31113122827E+03  0.12472370135E+04  0.00000000000E+00 0. -1.
          1    1    5    5  503    0 -0.31139189317E+03  0.32792599520E+03  0.18732964966E+03  0.48948214176E+03  0.00000000000E+00 0. -1.
         -2    1    5    5    0  503 -0.16701545914E+03  0.20527639851E+03  0.42661563254E+02  0.26805330133E+03  0.00000000000E+00 0.  1.
         -1    1    6    6    0  502 -0.54931168418E+03  0.38337131628E+02  0.18855627873E+03  0.58203653861E+03  0.00000000000E+00 0.  1.
<mgrwt>
<rscale>  0 0.47994105E+04</rscale>
<asrwt>0</asrwt>
<pdfrwt beam="1">  1        1 0.47802079E+00 0.47994105E+04</pdfrwt>
<pdfrwt beam="2">  1       -1 0.28512960E+00 0.47994105E+04</pdfrwt>
<totfact> 0.15073382E-02</totfact>
</mgrwt>
</event>
<event>
12    1  0.1960998E-007  0.1614152E+04  0.7818608E-02  0.8811901E-01
          1   -1    0    0  501    0  0.00000000000E+00  0.00000000000E+00  0.17022287106E+04  0.17022287106E+04  0.00000000000E+00 0. -1.
         -1   -1    0    0    0  501 -0.00000000000E+00 -0.00000000000E+00 -0.38265829930E+03  0.38265829930E+03  0.00000000000E+00 0.  1.
         23    2    1    2    0    0  0.24740339908E+03  0.41714987191E+03  0.79416586591E+03  0.93500829766E+03  0.91206560047E+02 0.  0.
        254    2    1    2    0    0 -0.24740339908E+03 -0.41714987191E+03  0.52540454538E+03  0.11498787122E+04  0.90052687856E+03 0.  0.
        -24    2    4    4    0    0 -0.21839103588E+03  0.18941794277E+03  0.43898149110E+03  0.53154917825E+03  0.79157929322E+02 0.  0.
         24    2    4    4    0    0 -0.29012363208E+02 -0.60656781468E+03  0.86423054285E+02  0.61832953398E+03  0.78078404541E+02 0.  0.
         11    1    3    3    0    0  0.17843831013E+03  0.26625319824E+03  0.59459570508E+03  0.67548134585E+03  0.00000000000E+00 0. -1.
        -11    1    3    3    0    0  0.68965088954E+02  0.15089667367E+03  0.19957016084E+03  0.25952695181E+03  0.00000000000E+00 0.  1.
          4    1    6    6  502    0 -0.15536051300E+02 -0.11506104323E+03  0.46325213279E+02  0.12500575165E+03  0.00000000000E+00 0. -1.
          3    1    5    5  503    0 -0.69530340499E+02  0.44015870547E+02  0.70455365725E+02  0.10833200667E+03  0.00000000000E+00 0. -1.
         -4    1    5    5    0  503 -0.14886069538E+03  0.14540207222E+03  0.36852612537E+03  0.42321717157E+03  0.00000000000E+00 0.  1.
         -3    1    6    6    0  502 -0.13476311908E+02 -0.49150677145E+03  0.40097841006E+02  0.49332378233E+03  0.00000000000E+00 0.  1.
<mgrwt>
<rscale>  0 0.16141523E+04</rscale>
<asrwt>0</asrwt>
<pdfrwt beam="1">  1        1 0.26188134E+00 0.16141523E+04</pdfrwt>
<pdfrwt beam="2">  1       -1 0.58870509E-01 0.16141523E+04</pdfrwt>
<totfact> 0.13311753E+01</totfact>
</mgrwt>
</event>
<event>
12    1  0.1960998E-007  0.2267641E+04  0.7818608E-02  0.8490790E-01
          2   -1    0    0  501    0  0.00000000000E+00  0.00000000000E+00  0.15114378310E+04  0.15114378310E+04  0.00000000000E+00 0. -1.
         -2   -1    0    0    0  501 -0.00000000000E+00 -0.00000000000E+00 -0.85054707107E+03  0.85054707107E+03  0.00000000000E+00 0.  1.
         23    2    1    2    0    0 -0.17183623372E+03  0.93578268781E+03  0.22459500651E+03  0.98214345911E+03  0.94582912294E+02 0.  0.
        254    2    1    2    0    0  0.17183623372E+03 -0.93578268781E+03  0.43629575345E+03  0.13798414430E+04  0.89910594108E+03 0.  0.
        -24    2    4    4    0    0 -0.35478761867E+03 -0.26099464135E+03  0.18179551819E+03  0.48308644434E+03  0.79564094245E+02 0.  0.
         24    2    4    4    0    0  0.52662385239E+03 -0.67478804645E+03  0.25450023526E+03  0.89675499865E+03  0.82021755053E+02 0.  0.
         13    1    3    3    0    0 -0.46885410718E+02  0.35866232726E+03  0.42443961942E+02  0.36419554726E+03  0.00000000000E+00 0.  1.
        -13    1    3    3    0    0 -0.12495082300E+03  0.57712036055E+03  0.18215104456E+03  0.61794791185E+03  0.00000000000E+00 0. -1.
          4    1    6    6  502    0  0.11965760895E+03 -0.15030094266E+03  0.93462094696E+02  0.21364334740E+03  0.00000000000E+00 0. -1.
          3    1    5    5  503    0 -0.17820199785E+03 -0.15178036352E+03  0.57292738999E+02  0.24098898052E+03  0.00000000000E+00 0. -1.
         -4    1    5    5    0  503 -0.17658562082E+03 -0.10921427783E+03  0.12450277919E+03  0.24209746383E+03  0.00000000000E+00 0.  1.
         -3    1    6    6    0  502  0.40696624345E+03 -0.52448710379E+03  0.16103814056E+03  0.68311165124E+03  0.00000000000E+00 0.  1.
<mgrwt>
<rscale>  0 0.22676411E+04</rscale>
<asrwt>0</asrwt>
<pdfrwt beam="1">  1        2 0.23252890E+00 0.22676411E+04</pdfrwt>
<pdfrwt beam="2">  1       -2 0.13085340E+00 0.22676411E+04</pdfrwt>
<totfact> 0.48568914E+00</totfact>
</mgrwt>
</event>
<event>
12    1  0.1960998E-007  0.1142941E+04  0.7818608E-02  0.9164320E-01
         -2   -1    0    0    0  501 -0.00000000000E+00  0.00000000000E+00  0.54680413661E+03  0.54680413661E+03  0.00000000000E+00 0.  1.
          2   -1    0    0  501    0  0.00000000000E+00 -0.00000000000E+00 -0.59724977802E+03  0.59724977802E+03  0.00000000000E+00 0. -1.
         23    2    1    2    0    0 -0.15840090659E+03  0.11184430830E+03  0.40912940881E+02  0.21784153707E+03  0.90449267740E+02 0.  0.
        254    2    1    2    0    0  0.15840090659E+03 -0.11184430830E+03 -0.91358582291E+02  0.92621237755E+03  0.90106768961E+03 0.  0.
        -24    2    4    4    0    0  0.52375541262E+02 -0.18246300675E+03  0.37976349055E+03  0.43174515489E+03  0.78406784517E+02 0.  0.
         24    2    4    4    0    0  0.10602536533E+03  0.70618698454E+02 -0.47112207284E+03  0.49446722266E+03  0.79457209284E+02 0.  0.
         13    1    3    3    0    0 -0.32359560412E+02 -0.12201046557E+02 -0.54775685255E+01  0.35014431940E+02  0.00000000000E+00 0. -1.
        -13    1    3    3    0    0 -0.12604134618E+03  0.12404535486E+03  0.46390509407E+02  0.18282710513E+03  0.00000000000E+00 0.  1.
          4    1    6    6  502    0  0.38154383795E+02 -0.14570575912E+02 -0.11341227643E+03  0.12054212180E+03  0.00000000000E+00 0. -1.
          1    1    5    5  503    0  0.12081015359E+02 -0.36713606922E+02  0.16253052698E+03  0.16706289853E+03  0.00000000000E+00 0. -1.
         -2    1    5    5    0  503  0.40294525904E+02 -0.14574939983E+03  0.21723296357E+03  0.26468225636E+03  0.00000000000E+00 0.  1.
         -3    1    6    6    0  502  0.67870981534E+02  0.85189274366E+02 -0.35770979641E+03  0.37392510086E+03  0.00000000000E+00 0.  1.
<mgrwt>
<rscale>  0 0.11429412E+04</rscale>
<asrwt>0</asrwt>
<pdfrwt beam="1">  1        2 0.91884581E-01 0.11429412E+04</pdfrwt>
<pdfrwt beam="2">  1       -2 0.84123714E-01 0.11429412E+04</pdfrwt>
<totfact> 0.60963700E+01</totfact>
</mgrwt>
</event>
<event>
12    1  0.1960998E-007  0.1726911E+04  0.7818608E-02  0.8746163E-01
         -2   -1    0    0    0  501 -0.00000000000E+00  0.00000000000E+00  0.22531055534E+04  0.22531055534E+04  0.00000000000E+00 0.  1.
          2   -1    0    0  501    0  0.00000000000E+00 -0.00000000000E+00 -0.33090121399E+03  0.33090121399E+03  0.00000000000E+00 0. -1.
         23    2    1    2    0    0 -0.49885125303E+03  0.37670336053E+03  0.73965792529E+03  0.97269458030E+03  0.91010469863E+02 0.  0.
        254    2    1    2    0    0  0.49885125303E+03 -0.37670336053E+03  0.11825464141E+04  0.16113121871E+04  0.89841691223E+03 0.  0.
        -24    2    4    4    0    0  0.52992729266E+03 -0.62947931629E+03  0.87157064370E+03  0.12012768885E+04  0.79772368889E+02 0.  0.
         24    2    4    4    0    0 -0.31076039626E+02  0.25277595576E+03  0.31097577040E+03  0.41003529852E+03  0.81003778950E+02 0.  0.
         13    1    3    3    0    0 -0.17833449735E+03  0.10669529488E+03  0.19072170819E+03  0.28206709995E+03  0.00000000000E+00 0. -1.
        -13    1    3    3    0    0 -0.32051675568E+03  0.27000806565E+03  0.54893621709E+03  0.69062748036E+03  0.00000000000E+00 0.  1.
          2    1    6    6  502    0 -0.45615992117E+02  0.14519048279E+03  0.22458864549E+03  0.27129532748E+03  0.00000000000E+00 0. -1.
          3    1    5    5  503    0  0.11537342999E+02 -0.38918194971E+02  0.50109973333E+02  0.64488337013E+02  0.00000000000E+00 0. -1.
         -4    1    5    5    0  503  0.51838994966E+03 -0.59056112132E+03  0.82146067036E+03  0.11367885515E+04  0.00000000000E+00 0.  1.
         -1    1    6    6    0  502  0.14539952491E+02  0.10758547298E+03  0.86387124913E+02  0.13873997104E+03  0.00000000000E+00 0.  1.
<mgrwt>
<rscale>  0 0.17269110E+04</rscale>
<asrwt>0</asrwt>
<pdfrwt beam="1">  1        2 0.50907880E-01 0.17269110E+04</pdfrwt>
<pdfrwt beam="2">  1       -2 0.34663161E+00 0.17269110E+04</pdfrwt>
<totfact> 0.15330011E+00</totfact>
</mgrwt>
</event>
<event>
12    1  0.1960998E-007  0.2158758E+04  0.7818608E-02  0.8535793E-01
          2   -1    0    0  501    0  0.00000000000E+00  0.00000000000E+00  0.22900688753E+04  0.22900688753E+04  0.00000000000E+00 0. -1.
         -2   -1    0    0    0  501 -0.00000000000E+00 -0.00000000000E+00 -0.50874409072E+03  0.50874409072E+03  0.00000000000E+00 0.  1.
         23    2    1    2    0    0  0.82275360397E+03  0.17078370404E+03  0.36269654820E+03  0.91965467025E+03  0.90140778897E+02 0.  0.
        254    2    1    2    0    0 -0.82275360397E+03 -0.17078370404E+03  0.14186282363E+04  0.18791582957E+04  0.90146506370E+03 0.  0.
        -24    2    4    4    0    0 -0.96924258864E+03 -0.19313829125E+03  0.13914914750E+04  0.17084484297E+04  0.76249043348E+02 0.  0.
         24    2    4    4    0    0  0.14648898466E+03  0.22354587216E+02  0.27136761301E+02  0.17070986605E+03  0.80291371611E+02 0.  0.
         11    1    3    3    0    0  0.72682515620E+02  0.14209969892E+02  0.61786874052E+02  0.96448375447E+02  0.00000000000E+00 0. -1.
        -11    1    3    3    0    0  0.75007108835E+03  0.15657373415E+03  0.30090967415E+03  0.82320629480E+03  0.00000000000E+00 0.  1.
          2    1    6    6  502    0  0.14591739331E+03  0.17652608850E+01  0.14742063882E+02  0.14667082282E+03  0.00000000000E+00 0. -1.
          3    1    5    5  503    0 -0.83066867996E+03 -0.15842592876E+03  0.11429180006E+04  0.14217491997E+04  0.00000000000E+00 0. -1.
         -4    1    5    5    0  503 -0.13857390867E+03 -0.34712362493E+02  0.24857347443E+03  0.28669922997E+03  0.00000000000E+00 0.  1.
         -1    1    6    6    0  502  0.57159134742E+00  0.20589326331E+02  0.12394697419E+02  0.24039043233E+02  0.00000000000E+00 0.  1.
<mgrwt>
<rscale>  0 0.21587580E+04</rscale>
<asrwt>0</asrwt>
<pdfrwt beam="1">  1        2 0.35231828E+00 0.21587580E+04</pdfrwt>
<pdfrwt beam="2">  1       -2 0.78268323E-01 0.21587580E+04</pdfrwt>
<totfact> 0.61155695E+00</totfact>
</mgrwt>
</event>
<event>
12    1  0.1960998E-007  0.2783514E+04  0.7818608E-02  0.8308405E-01
         -2   -1    0    0    0  501 -0.00000000000E+00  0.00000000000E+00  0.16340356992E+04  0.16340356992E+04  0.00000000000E+00 0.  1.
          2   -1    0    0  501    0  0.00000000000E+00 -0.00000000000E+00 -0.11854008676E+04  0.11854008676E+04  0.00000000000E+00 0. -1.
         23    2    1    2    0    0 -0.10184015218E+04  0.70875573551E+03  0.29757101497E+03  0.12791113307E+04  0.90005194812E+02 0.  0.
        254    2    1    2    0    0  0.10184015218E+04 -0.70875573551E+03  0.15106381672E+03  0.15403252361E+04  0.90016954189E+03 0.  0.
        -24    2    4    4    0    0  0.17463178770E+03  0.17299240109E+03  0.18279359176E+03  0.31696397200E+03  0.81424997707E+02 0.  0.
         24    2    4    4    0    0  0.84376973409E+03 -0.88174813661E+03 -0.31729775040E+02  0.12233612641E+04  0.78605746491E+02 0.  0.
         11    1    3    3    0    0 -0.89760782153E+03  0.61863223464E+03  0.23095985157E+03  0.11143375144E+04  0.00000000000E+00 0. -1.
        -11    1    3    3    0    0 -0.12079370025E+03  0.90123500872E+02  0.66611163397E+02  0.16477381624E+03  0.00000000000E+00 0.  1.
          2    1    6    6  502    0  0.62386846649E+03 -0.69801510559E+03 -0.14652712612E+02  0.93629677619E+03  0.00000000000E+00 0. -1.
          3    1    5    5  503    0  0.96149483941E+02  0.12572647974E+03  0.15423828900E+03  0.22100072571E+03  0.00000000000E+00 0. -1.
         -4    1    5    5    0  503  0.78482303757E+02  0.47265921348E+02  0.28555302758E+02  0.95963246295E+02  0.00000000000E+00 0.  1.
         -3    1    6    6    0  502  0.21990126759E+03 -0.18373303102E+03 -0.17077062427E+02  0.28706448794E+03  0.00000000000E+00 0.  1.
<mgrwt>
<rscale>  0 0.27835138E+04</rscale>
<asrwt>0</asrwt>
<pdfrwt beam="1">  1        2 0.18236936E+00 0.27835138E+04</pdfrwt>
<pdfrwt beam="2">  1       -2 0.25139011E+00 0.27835138E+04</pdfrwt>
<totfact> 0.10610290E+00</totfact>
</mgrwt>
</event>
<event>
12    1  0.1960998E-007  0.2527340E+04  0.7818608E-02  0.8393310E-01
          2   -1    0    0  501    0  0.00000000000E+00  0.00000000000E+00  0.20100889306E+04  0.20100889306E+04  0.00000000000E+00 0. -1.
         -2   -1    0    0    0  501 -0.00000000000E+00 -0.00000000000E+00 -0.79442353277E+03  0.79442353277E+03  0.00000000000E+00 0.  1.
         23    2    1    2    0    0 -0.10734772894E+04 -0.94731007455E+02  0.28029308213E+03  0.11171820261E+04  0.90576006442E+02 0.  0.
        254    2    1    2    0    0  0.10734772894E+04  0.94731007455E+02  0.93537231574E+03  0.16873304373E+04  0.90046386977E+03 0.  0.
        -24    2    4    4    0    0  0.11102901053E+04 -0.99247798682E+02  0.95964793330E+03  0.14728521546E+04  0.75993880592E+02 0.  0.
         24    2    4    4    0    0 -0.36812815878E+02  0.19397880614E+03 -0.24275617559E+02  0.21447828268E+03  0.80178971616E+02 0.  0.
         13    1    3    3    0    0 -0.33088760347E+03 -0.40998598215E+02  0.12857384716E+03  0.35734958425E+03  0.00000000000E+00 0. -1.
        -13    1    3    3    0    0 -0.74258968596E+03 -0.53732409240E+02  0.15171923497E+03  0.75983244190E+03  0.00000000000E+00 0.  1.
          4    1    6    6  502    0 -0.31384119839E+02  0.42141806731E+02  0.20004113403E+02  0.56223299491E+02  0.00000000000E+00 0. -1.
          3    1    5    5  503    0  0.68689629258E+03 -0.63573458790E+02  0.54476231106E+03  0.87899606198E+03  0.00000000000E+00 0. -1.
         -4    1    5    5    0  503  0.42339381273E+03 -0.35674339892E+02  0.41488562224E+03  0.59385609261E+03  0.00000000000E+00 0.  1.
         -3    1    6    6    0  502 -0.54286960391E+01  0.15183699941E+03 -0.44279730963E+02  0.15825498319E+03  0.00000000000E+00 0.  1.
<mgrwt>
<rscale>  0 0.25273401E+04</rscale>
<asrwt>0</asrwt>
<pdfrwt beam="1">  1        2 0.30924445E+00 0.25273401E+04</pdfrwt>
<pdfrwt beam="2">  1       -2 0.12221901E+00 0.25273401E+04</pdfrwt>
<totfact> 0.29773084E+00</totfact>
</mgrwt>
</event>
<event>
12    1  0.1960998E-007  0.2184145E+04  0.7818608E-02  0.8525056E-01
          1   -1    0    0  501    0  0.00000000000E+00  0.00000000000E+00  0.16868322614E+04  0.16868322614E+04  0.00000000000E+00 0. -1.
         -1   -1    0    0    0  501 -0.00000000000E+00 -0.00000000000E+00 -0.70701905665E+03  0.70701905665E+03  0.00000000000E+00 0.  1.
         23    2    1    2    0    0  0.68279995683E+03 -0.52789616317E+03  0.70556802453E+03  0.11170829690E+04  0.71819093954E+02 0.  0.
        254    2    1    2    0    0 -0.68279995683E+03  0.52789616317E+03  0.27424518024E+03  0.12767683491E+04  0.90002047652E+03 0.  0.
        -24    2    4    4    0    0 -0.45309403855E+03  0.68176231656E+03 -0.72951035877E+02  0.82555453602E+03  0.78258381363E+02 0.  0.
         24    2    4    4    0    0 -0.22970591828E+03 -0.15386615338E+03  0.34719621612E+03  0.45121381305E+03  0.81296313268E+02 0.  0.
         13    1    3    3    0    0  0.14373093592E+03 -0.14730388161E+03  0.15414996439E+03  0.25713659211E+03  0.00000000000E+00 0. -1.
        -13    1    3    3    0    0  0.53906902091E+03 -0.38059228156E+03  0.55141806014E+03  0.85994637690E+03  0.00000000000E+00 0.  1.
          4    1    6    6  502    0 -0.19663419238E+01 -0.27810694600E+02  0.32973332528E+02  0.43180341507E+02  0.00000000000E+00 0. -1.
          3    1    5    5  503    0 -0.34526982115E+02  0.36597975691E+02 -0.21718258615E+02  0.54801524394E+02  0.00000000000E+00 0. -1.
         -4    1    5    5    0  503 -0.41856705644E+03  0.64516434086E+03 -0.51232777262E+02  0.77075301162E+03  0.00000000000E+00 0.  1.
         -3    1    6    6    0  502 -0.22773957635E+03 -0.12605545879E+03  0.31422288359E+03  0.40803347154E+03  0.00000000000E+00 0.  1.
<mgrwt>
<rscale>  0 0.21841452E+04</rscale>
<asrwt>0</asrwt>
<pdfrwt beam="1">  1        1 0.25951265E+00 0.21841452E+04</pdfrwt>
<pdfrwt beam="2">  1       -1 0.10877216E+00 0.21841452E+04</pdfrwt>
<totfact> 0.34811312E+00</totfact>
</mgrwt>
</event>
<event>
12    1  0.1960998E-007  0.1576798E+04  0.7818608E-02  0.8834930E-01
          4   -1    0    0  501    0  0.00000000000E+00  0.00000000000E+00  0.36421475173E+04  0.36421475173E+04  0.00000000000E+00 0. -1.
         -4   -1    0    0    0  501 -0.00000000000E+00 -0.00000000000E+00 -0.17066101530E+03  0.17066101530E+03  0.00000000000E+00 0.  1.
         23    2    1    2    0    0 -0.50309435525E+03  0.89705140879E+02  0.85055871089E+03  0.99621737794E+03  0.88588943256E+02 0.  0.
        254    2    1    2    0    0  0.50309435525E+03 -0.89705140879E+02  0.26209277912E+04  0.28165911547E+04  0.89597561555E+03 0.  0.
        -24    2    4    4    0    0 -0.22658162278E+02 -0.40197116053E+03  0.11781257144E+04  0.12475440536E+04  0.79320618328E+02 0.  0.
         24    2    4    4    0    0  0.52575251753E+03  0.31226601965E+03  0.14428020767E+04  0.15690471011E+04  0.79405264792E+02 0.  0.
         13    1    3    3    0    0 -0.93570401456E+02  0.70951356421E+01  0.99394975866E+02  0.13669353388E+03  0.00000000000E+00 0.  1.
        -13    1    3    3    0    0 -0.40952395379E+03  0.82610005237E+02  0.75116373502E+03  0.85952384406E+03  0.00000000000E+00 0. -1.
          4    1    6    6  502    0  0.50536327661E+01  0.54520564580E+01  0.39464398574E+01  0.84165617270E+01  0.00000000000E+00 0. -1.
          3    1    5    5  503    0 -0.66769644015E+00 -0.13981164535E+03  0.52822082944E+03  0.54641100524E+03  0.00000000000E+00 0. -1.
         -4    1    5    5    0  503 -0.21990465838E+02 -0.26215951518E+03  0.64990488498E+03  0.70113304836E+03  0.00000000000E+00 0.  1.
         -3    1    6    6    0  502  0.52069888476E+03  0.30681396320E+03  0.14388556369E+04  0.15606305394E+04  0.00000000000E+00 0.  1.
<mgrwt>
<rscale>  0 0.15767975E+04</rscale>
<asrwt>0</asrwt>
<pdfrwt beam="1">  1        4 0.56033033E+00 0.15767975E+04</pdfrwt>
<pdfrwt beam="2">  1       -4 0.26255543E-01 0.15767975E+04</pdfrwt>
<totfact> 0.10350482E-02</totfact>
</mgrwt>
</event>
<event>
12    1  0.1960998E-007  0.1323962E+04  0.7818608E-02  0.9010776E-01
          2   -1    0    0  501    0  0.00000000000E+00  0.00000000000E+00  0.27618510509E+04  0.27618510509E+04  0.00000000000E+00 0. -1.
         -2   -1    0    0    0  501 -0.00000000000E+00 -0.00000000000E+00 -0.15866857446E+03  0.15866857446E+03  0.00000000000E+00 0.  1.
         23    2    1    2    0    0 -0.70760933505E+02 -0.22771759003E+00 -0.42240463368E+02  0.12504380433E+03  0.94045386328E+02 0.  0.
        254    2    1    2    0    0  0.70760933505E+02  0.22771759003E+00  0.26454229398E+04  0.27954758211E+04  0.90078597565E+03 0.  0.
        -24    2    4    4    0    0  0.37183768373E+03 -0.28752444698E+03  0.12876661770E+04  0.13730852950E+04  0.79658479346E+02 0.  0.
         24    2    4    4    0    0 -0.30107675023E+03  0.28775216457E+03  0.13577567628E+04  0.14223905260E+04  0.79011795399E+02 0.  0.
         13    1    3    3    0    0  0.20759194287E+02  0.12936613327E+02 -0.31657290914E+01  0.24664183597E+02  0.00000000000E+00 0. -1.
        -13    1    3    3    0    0 -0.91520127791E+02 -0.13164330917E+02 -0.39074734277E+02  0.10037962073E+03  0.00000000000E+00 0.  1.
          4    1    6    6  502    0 -0.19775082953E+03  0.21494065238E+03  0.83638154200E+03  0.88591137165E+03  0.00000000000E+00 0. -1.
          3    1    5    5  503    0  0.30104721315E+03 -0.22563826737E+03  0.11107374261E+04  0.11727231907E+04  0.00000000000E+00 0. -1.
         -4    1    5    5    0  503  0.70790470586E+02 -0.61886179604E+02  0.17692875089E+03  0.20036210431E+03  0.00000000000E+00 0.  1.
         -3    1    6    6    0  502 -0.10332592070E+03  0.72811512190E+02  0.52137522084E+03  0.53647915439E+03  0.00000000000E+00 0.  1.
<mgrwt>
<rscale>  0 0.13239622E+04</rscale>
<asrwt>0</asrwt>
<pdfrwt beam="1">  1        2 0.42490013E+00 0.13239622E+04</pdfrwt>
<pdfrwt beam="2">  1       -2 0.24410552E-01 0.13239622E+04</pdfrwt>
<totfact> 0.36011934E+01</totfact>
</mgrwt>
</event>
<event>
12    1  0.1960998E-007  0.2437436E+04  0.7818608E-02  0.8425620E-01
          2   -1    0    0  501    0  0.00000000000E+00  0.00000000000E+00  0.25969794201E+04  0.25969794201E+04  0.00000000000E+00 0. -1.
         -2   -1    0    0    0  501 -0.00000000000E+00 -0.00000000000E+00 -0.57192350309E+03  0.57192350309E+03  0.00000000000E+00 0.  1.
         23    2    1    2    0    0  0.26470437853E+03  0.98137033510E+03  0.12192690326E+04  0.15900751088E+04  0.92551257335E+02 0.  0.
        254    2    1    2    0    0 -0.26470437853E+03 -0.98137033510E+03  0.80578688445E+03  0.15788278144E+04  0.90013811261E+03 0.  0.
        -24    2    4    4    0    0 -0.28228295762E+02 -0.61854910660E+03 -0.39587614256E+02  0.62558015031E+03  0.79896879132E+02 0.  0.
         24    2    4    4    0    0 -0.23647608277E+03 -0.36282122849E+03  0.84537449871E+03  0.95324766410E+03  0.80392067267E+02 0.  0.
         11    1    3    3    0    0  0.24869149875E+03  0.79528558794E+03  0.10168659383E+04  0.13146645825E+04  0.00000000000E+00 0. -1.
        -11    1    3    3    0    0  0.16012879777E+02  0.18608474716E+03  0.20240309426E+03  0.27541052633E+03  0.00000000000E+00 0.  1.
          2    1    6    6  502    0 -0.22377558197E+03 -0.36178432822E+03  0.79940882254E+03  0.90554838457E+03  0.00000000000E+00 0. -1.
          3    1    5    5  503    0 -0.11235591103E+02 -0.44743964442E+03  0.62498840117E+01  0.44762432346E+03  0.00000000000E+00 0. -1.
         -4    1    5    5    0  503 -0.16992704659E+02 -0.17110946219E+03 -0.45837498268E+02  0.17795582685E+03  0.00000000000E+00 0.  1.
         -1    1    6    6    0  502 -0.12700500799E+02 -0.10369002739E+01  0.45965676166E+02  0.47699279535E+02  0.00000000000E+00 0.  1.
<mgrwt>
<rscale>  0 0.24374360E+04</rscale>
<asrwt>0</asrwt>
<pdfrwt beam="1">  1        2 0.39953529E+00 0.24374360E+04</pdfrwt>
<pdfrwt beam="2">  1       -2 0.87988232E-01 0.24374360E+04</pdfrwt>
<totfact> 0.30494313E+00</totfact>
</mgrwt>
</event>
<event>
12    1  0.1960998E-007  0.1886566E+04  0.7818608E-02  0.8661572E-01
          1   -1    0    0  501    0  0.00000000000E+00  0.00000000000E+00  0.15233868514E+04  0.15233868514E+04  0.00000000000E+00 0. -1.
         -1   -1    0    0    0  501 -0.00000000000E+00 -0.00000000000E+00 -0.58408198098E+03  0.58408198098E+03  0.00000000000E+00 0.  1.
         23    2    1    2    0    0  0.52612086796E+03 -0.32408480585E+03  0.77192576104E+03  0.99147646643E+03  0.72952545204E+02 0.  0.
        254    2    1    2    0    0 -0.52612086796E+03  0.32408480585E+03  0.16737910940E+03  0.11159923660E+04  0.91410560962E+03 0.  0.
        -24    2    4    4    0    0 -0.23058315103E+03  0.56751508027E+03 -0.12259718415E+03  0.62905380547E+03  0.73733742231E+02 0.  0.
         24    2    4    4    0    0 -0.29553771694E+03 -0.24343027442E+03  0.28997629355E+03  0.48693856050E+03  0.80137820328E+02 0.  0.
         13    1    3    3    0    0  0.30642426859E+03 -0.16563216000E+03  0.48216211722E+03  0.59481942814E+03  0.00000000000E+00 0.  1.
        -13    1    3    3    0    0  0.21969659937E+03 -0.15845264585E+03  0.28976364382E+03  0.39665703830E+03  0.00000000000E+00 0. -1.
          4    1    6    6  502    0 -0.21140501916E+03 -0.18564823751E+03  0.25302941639E+03  0.37839296475E+03  0.00000000000E+00 0. -1.
          1    1    5    5  503    0 -0.22610508753E+03  0.50664137466E+03 -0.12176316950E+03  0.56800991415E+03  0.00000000000E+00 0. -1.
         -2    1    5    5    0  503 -0.44780634974E+01  0.60873705606E+02 -0.83401465287E+00  0.61043891319E+02  0.00000000000E+00 0.  1.
         -3    1    6    6    0  502 -0.84132697776E+02 -0.57782036911E+02  0.36946877161E+02  0.10854559575E+03  0.00000000000E+00 0.  1.
<mgrwt>
<rscale>  0 0.18865660E+04</rscale>
<asrwt>0</asrwt>
<pdfrwt beam="1">  1        1 0.23436721E+00 0.18865660E+04</pdfrwt>
<pdfrwt beam="2">  1       -1 0.89858767E-01 0.18865660E+04</pdfrwt>
<totfact> 0.71549185E+00</totfact>
</mgrwt>
</event>
<event>
12    1  0.1960998E-007  0.1526267E+04  0.7818608E-02  0.8867171E-01
          2   -1    0    0  501    0  0.00000000000E+00  0.00000000000E+00  0.98200527627E+03  0.98200527627E+03  0.00000000000E+00 0. -1.
         -2   -1    0    0    0  501 -0.00000000000E+00 -0.00000000000E+00 -0.59304406397E+03  0.59304406397E+03  0.00000000000E+00 0.  1.
         23    2    1    2    0    0  0.42087959740E+03  0.19741448496E+03 -0.36102000549E+02  0.47530445612E+03  0.92189246578E+02 0.  0.
        254    2    1    2    0    0 -0.42087959740E+03 -0.19741448496E+03  0.42506321285E+03  0.10997448841E+04  0.90146988904E+03 0.  0.
        -24    2    4    4    0    0 -0.38980742574E+03 -0.24597341209E+03 -0.16913756776E+03  0.49747443546E+03  0.80128325177E+02 0.  0.
         24    2    4    4    0    0 -0.31072171657E+02  0.48558927126E+02  0.59420078061E+03  0.60227044866E+03  0.79571831659E+02 0.  0.
         13    1    3    3    0    0  0.13774646241E+03  0.21036565712E+02  0.34827193469E+01  0.13938706661E+03  0.00000000000E+00 0.  1.
        -13    1    3    3    0    0  0.28313313499E+03  0.17637791925E+03 -0.39584719896E+02  0.33591738951E+03  0.00000000000E+00 0. -1.
          4    1    6    6  502    0 -0.43510831747E+02  0.54279464605E+02  0.57180606545E+03  0.57602224718E+03  0.00000000000E+00 0. -1.
          3    1    5    5  503    0 -0.18691588706E+03 -0.14501750924E+03 -0.51400986502E+02  0.24209437877E+03  0.00000000000E+00 0. -1.
         -4    1    5    5    0  503 -0.20289153868E+03 -0.10095590285E+03 -0.11773658125E+03  0.25538005669E+03  0.00000000000E+00 0.  1.
         -3    1    6    6    0  502  0.12438660090E+02 -0.57205374791E+01  0.22394715158E+02  0.26248201479E+02  0.00000000000E+00 0.  1.
<mgrwt>
<rscale>  0 0.15262666E+04</rscale>
<asrwt>0</asrwt>
<pdfrwt beam="1">  1        2 0.15107773E+00 0.15262666E+04</pdfrwt>
<pdfrwt beam="2">  1       -2 0.91237549E-01 0.15262666E+04</pdfrwt>
<totfact> 0.25551740E+01</totfact>
</mgrwt>
</event>
<event>
12    1  0.1960998E-007  0.1262867E+04  0.7818608E-02  0.9059541E-01
          1   -1    0    0  501    0  0.00000000000E+00  0.00000000000E+00  0.56558022652E+03  0.56558022652E+03  0.00000000000E+00 0. -1.
         -1   -1    0    0    0  501 -0.00000000000E+00 -0.00000000000E+00 -0.70495475088E+03  0.70495475088E+03  0.00000000000E+00 0.  1.
         23    2    1    2    0    0 -0.15173367542E+03  0.17785386750E+03 -0.22694866563E+03  0.33814804818E+03  0.90461589712E+02 0.  0.
        254    2    1    2    0    0  0.15173367542E+03 -0.17785386750E+03  0.87574141280E+02  0.93238692922E+03  0.89834350285E+03 0.  0.
        -24    2    4    4    0    0  0.36649454063E+03  0.17920807185E+03  0.24266108399E+03  0.48126799625E+03  0.79376956385E+02 0.  0.
         24    2    4    4    0    0 -0.21476086521E+03 -0.35706193935E+03 -0.15508694271E+03  0.45111893297E+03  0.76425611715E+02 0.  0.
         11    1    3    3    0    0 -0.15742835706E+03  0.17519160691E+03 -0.19556092590E+03  0.30613699953E+03  0.00000000000E+00 0. -1.
        -11    1    3    3    0    0  0.56946816422E+01  0.26622605898E+01 -0.31387739730E+02  0.32011048652E+02  0.00000000000E+00 0.  1.
          2    1    6    6  502    0 -0.20584973044E+03 -0.35636457201E+03 -0.15921926011E+03  0.44127156321E+03  0.00000000000E+00 0. -1.
          1    1    5    5  503    0  0.19930306946E+03  0.13670021046E+03  0.12182906642E+03  0.27064918707E+03  0.00000000000E+00 0. -1.
         -2    1    5    5    0  503  0.16719147117E+03  0.42507861390E+02  0.12083201757E+03  0.21061880918E+03  0.00000000000E+00 0.  1.
         -1    1    6    6    0  502 -0.89111347741E+01 -0.69736733752E+00  0.41323173970E+01  0.98473697623E+01  0.00000000000E+00 0.  1.
<mgrwt>
<rscale>  0 0.12628673E+04</rscale>
<asrwt>0</asrwt>
<pdfrwt beam="1">  1        1 0.87012343E-01 0.12628673E+04</pdfrwt>
<pdfrwt beam="2">  1       -1 0.10845458E+00 0.12628673E+04</pdfrwt>
<totfact> 0.29000026E+01</totfact>
</mgrwt>
</event>
<event>
12    1  0.1960998E-007  0.1962162E+04  0.7818608E-02  0.8624518E-01
         -1   -1    0    0    0  501 -0.00000000000E+00  0.00000000000E+00  0.53063152101E+03  0.53063152101E+03  0.00000000000E+00 0.  1.
          1   -1    0    0  501    0  0.00000000000E+00 -0.00000000000E+00 -0.18139147206E+04  0.18139147206E+04  0.00000000000E+00 0. -1.
         23    2    1    2    0    0  0.68567439575E+03 -0.29934011528E+03 -0.28475109765E+03  0.80618150503E+03  0.95349619000E+02 0.  0.
        254    2    1    2    0    0 -0.68567439575E+03  0.29934011528E+03 -0.99853210195E+03  0.15383647366E+04  0.89985877923E+03 0.  0.
        -24    2    4    4    0    0  0.17405355898E+02 -0.19453261091E+03  0.10994849218E+02  0.21020068258E+03  0.76925659741E+02 0.  0.
         24    2    4    4    0    0 -0.70307975165E+03  0.49387272619E+03 -0.10095269512E+04  0.13281640540E+04  0.81508787057E+02 0.  0.
         11    1    3    3    0    0  0.30475419669E+03 -0.10360880954E+03 -0.16379596447E+03  0.36116343086E+03  0.00000000000E+00 0. -1.
        -11    1    3    3    0    0  0.38092019906E+03 -0.19573130574E+03 -0.12095513318E+03  0.44501807418E+03  0.00000000000E+00 0.  1.
          2    1    6    6  502    0 -0.53849338807E+03  0.38812468266E+03 -0.72621443894E+03  0.98387159204E+03  0.00000000000E+00 0. -1.
          3    1    5    5  503    0 -0.12538289900E+02 -0.16066568596E+03  0.24533184046E+02  0.16301088454E+03  0.00000000000E+00 0. -1.
         -4    1    5    5    0  503  0.29943645799E+02 -0.33866924948E+02 -0.13538334828E+02  0.47189798040E+02  0.00000000000E+00 0.  1.
         -1    1    6    6    0  502 -0.16458636358E+03  0.10574804353E+03 -0.28331251223E+03  0.34429246197E+03  0.00000000000E+00 0.  1.
<mgrwt>
<rscale>  0 0.19621624E+04</rscale>
<asrwt>0</asrwt>
<pdfrwt beam="1">  1        1 0.27906381E+00 0.19621624E+04</pdfrwt>
<pdfrwt beam="2">  1       -1 0.81635617E-01 0.19621624E+04</pdfrwt>
<totfact> 0.55412133E+00</totfact>
</mgrwt>
</event>
<event>
12    1  0.1960998E-007  0.1155473E+04  0.7818608E-02  0.9152750E-01
         -2   -1    0    0    0  501 -0.00000000000E+00  0.00000000000E+00  0.24199183619E+03  0.24199183619E+03  0.00000000000E+00 0.  1.
          2   -1    0    0  501    0  0.00000000000E+00 -0.00000000000E+00 -0.13792994317E+04  0.13792994317E+04  0.00000000000E+00 0. -1.
         23    2    1    2    0    0  0.11363322239E+03  0.10959571699E+03 -0.41925591368E+03  0.45829451637E+03  0.96615796634E+02 0.  0.
        254    2    1    2    0    0 -0.11363322239E+03 -0.10959571699E+03 -0.71805168181E+03  0.11629967515E+04  0.90113234091E+03 0.  0.
        -24    2    4    4    0    0  0.36110010124E+03 -0.10268493543E+02 -0.12111708064E+03  0.38945505264E+03  0.80667005201E+02 0.  0.
         24    2    4    4    0    0 -0.47473332363E+03 -0.99327223451E+02 -0.59693460117E+03  0.77354169886E+03  0.82451294220E+02 0.  0.
         11    1    3    3    0    0  0.12845813291E+03  0.81829452390E+02 -0.36610083605E+03  0.39651907060E+03  0.00000000000E+00 0. -1.
        -11    1    3    3    0    0 -0.14824910520E+02  0.27766264604E+02 -0.53155077630E+02  0.61775445768E+02  0.00000000000E+00 0.  1.
          2    1    6    6  502    0 -0.58789550544E+02  0.72591966492E+01 -0.45746380201E+02  0.74844094561E+02  0.00000000000E+00 0. -1.
          3    1    5    5  503    0  0.84715359023E+02 -0.33539866489E+02 -0.14270186043E+02  0.92223928068E+02  0.00000000000E+00 0. -1.
         -2    1    5    5    0  503  0.27638474222E+03  0.23271372946E+02 -0.10684689459E+03  0.29723112457E+03  0.00000000000E+00 0.  1.
         -1    1    6    6    0  502 -0.41594377309E+03 -0.10658642010E+03 -0.55118822097E+03  0.69869760430E+03  0.00000000000E+00 0.  1.
<mgrwt>
<rscale>  0 0.11554725E+04</rscale>
<asrwt>0</asrwt>
<pdfrwt beam="1">  1        2 0.21219991E+00 0.11554725E+04</pdfrwt>
<pdfrwt beam="2">  1       -2 0.37229514E-01 0.11554725E+04</pdfrwt>
<totfact> 0.10002394E+02</totfact>
</mgrwt>
</event>
<event>
12    1  0.1960998E-007  0.1708527E+04  0.7818608E-02  0.8756516E-01
         -1   -1    0    0    0  501 -0.00000000000E+00  0.00000000000E+00  0.76486955588E+03  0.76486955588E+03  0.00000000000E+00 0.  1.
          1   -1    0    0  501    0  0.00000000000E+00 -0.00000000000E+00 -0.95410545554E+03  0.95410545554E+03  0.00000000000E+00 0. -1.
         23    2    1    2    0    0  0.57016428321E+03  0.21176290333E+03 -0.15332904302E+03  0.63381909252E+03  0.91027520713E+02 0.  0.
        254    2    1    2    0    0 -0.57016428321E+03 -0.21176290333E+03 -0.35906856643E+02  0.10851559189E+04  0.89796616245E+03 0.  0.
        -24    2    4    4    0    0 -0.19858084766E+03 -0.13395480805E+03  0.41740761181E+03  0.48853341820E+03  0.84009181919E+02 0.  0.
         24    2    4    4    0    0 -0.37158343555E+03 -0.77808095278E+02 -0.45331446845E+03  0.59662250070E+03  0.79599320152E+02 0.  0.
         13    1    3    3    0    0  0.29770602523E+03  0.10066562469E+03 -0.12502985501E+03  0.33822316611E+03  0.00000000000E+00 0. -1.
        -13    1    3    3    0    0  0.27245825798E+03  0.11109727864E+03 -0.28299188010E+02  0.29559592640E+03  0.00000000000E+00 0.  1.
          2    1    6    6  502    0 -0.17551951286E+03 -0.44930603024E+02 -0.27647058689E+03  0.33054779367E+03  0.00000000000E+00 0. -1.
          1    1    5    5  503    0 -0.19703409836E+03 -0.11245788100E+03  0.34437783906E+03  0.41238975127E+03  0.00000000000E+00 0. -1.
         -2    1    5    5    0  503 -0.15467492963E+01 -0.21496927053E+02  0.73029772750E+02  0.76143666933E+02  0.00000000000E+00 0.  1.
         -1    1    6    6    0  502 -0.19606392269E+03 -0.32877492254E+02 -0.17684388157E+03  0.26607470704E+03  0.00000000000E+00 0.  1.
<mgrwt>
<rscale>  0 0.17085271E+04</rscale>
<asrwt>0</asrwt>
<pdfrwt beam="1">  1        1 0.14678545E+00 0.17085271E+04</pdfrwt>
<pdfrwt beam="2">  1       -1 0.11767224E+00 0.17085271E+04</pdfrwt>
<totfact> 0.10160517E+01</totfact>
</mgrwt>
</event>
<event>
12    1  0.1960998E-007  0.1653359E+04  0.7818608E-02  0.8788422E-01
          1   -1    0    0  501    0  0.00000000000E+00  0.00000000000E+00  0.68238334680E+03  0.68238334680E+03  0.00000000000E+00 0. -1.
         -1   -1    0    0    0  501 -0.00000000000E+00 -0.00000000000E+00 -0.10014889625E+04  0.10014889625E+04  0.00000000000E+00 0.  1.
         23    2    1    2    0    0 -0.46363567549E+03  0.34459222312E+03 -0.13084375736E+03  0.59927433066E+03  0.91147104816E+02 0.  0.
        254    2    1    2    0    0  0.46363567549E+03 -0.34459222312E+03 -0.18826185835E+03  0.10845979787E+04  0.89844777710E+03 0.  0.
        -24    2    4    4    0    0  0.46840508434E+03  0.72625519372E+02 -0.38464428158E+03  0.61586938864E+03  0.81646135306E+02 0.  0.
         24    2    4    4    0    0 -0.47694088480E+01 -0.41721774250E+03  0.19638242323E+03  0.46872859002E+03  0.83946667820E+02 0.  0.
         11    1    3    3    0    0 -0.12644602265E+03  0.14725779849E+03 -0.46316979427E+02  0.19954628146E+03  0.00000000000E+00 0.  1.
        -11    1    3    3    0    0 -0.33718965284E+03  0.19733442464E+03 -0.84526777937E+02  0.39972804920E+03  0.00000000000E+00 0. -1.
          2    1    6    6  502    0  0.34290136852E+02 -0.17351432762E+03  0.60181200045E+02  0.18682829608E+03  0.00000000000E+00 0. -1.
          3    1    5    5  503    0  0.24745987153E+02 -0.60894034433E+01 -0.35468558478E+01  0.25729844556E+02  0.00000000000E+00 0. -1.
         -4    1    5    5    0  503  0.44365909719E+03  0.78714922815E+02 -0.38109742573E+03  0.59013954408E+03  0.00000000000E+00 0.  1.
         -3    1    6    6    0  502 -0.39059545700E+02 -0.24370341487E+03  0.13620122318E+03  0.28190029395E+03  0.00000000000E+00 0.  1.
<mgrwt>
<rscale>  0 0.16533595E+04</rscale>
<asrwt>0</asrwt>
<pdfrwt beam="1">  1        1 0.10498205E+00 0.16533595E+04</pdfrwt>
<pdfrwt beam="2">  1       -1 0.15407522E+00 0.16533595E+04</pdfrwt>
<totfact> 0.87761654E+00</totfact>
</mgrwt>
</event>
<event>
12    1  0.1960998E-007  0.2756936E+04  0.7818608E-02  0.8316764E-01
          1   -1    0    0  501    0  0.00000000000E+00  0.00000000000E+00  0.24063497409E+04  0.24063497409E+04  0.00000000000E+00 0. -1.
         -1   -1    0    0    0  501 -0.00000000000E+00 -0.00000000000E+00 -0.78965009944E+03  0.78965009944E+03  0.00000000000E+00 0.  1.
         23    2    1    2    0    0 -0.21011402317E+03 -0.11886819827E+04  0.99348468774E+03  0.15669693140E+04  0.10615200281E+03 0.  0.
        254    2    1    2    0    0  0.21011402317E+03  0.11886819827E+04  0.62321495372E+03  0.16290305263E+04  0.89901658410E+03 0.  0.
        -24    2    4    4    0    0 -0.14484643984E+03 -0.27732481581E+01 -0.93603654117E+02  0.19168733603E+03  0.83631385798E+02 0.  0.
         24    2    4    4    0    0  0.35496046301E+03  0.11914552308E+04  0.71681860784E+03  0.14373431903E+04  0.81018718684E+02 0.  0.
         13    1    3    3    0    0 -0.51603775596E+02 -0.58056416627E+03  0.45607762300E+03  0.74008411618E+03  0.00000000000E+00 0. -1.
        -13    1    3    3    0    0 -0.15851024758E+03 -0.60811781638E+03  0.53740706473E+03  0.82688519784E+03  0.00000000000E+00 0.  1.
          2    1    6    6  502    0  0.24248894435E+03  0.86433562275E+03  0.55533671004E+03  0.10555926385E+04  0.00000000000E+00 0. -1.
          1    1    5    5  503    0 -0.15196585105E+03  0.69140217594E+01 -0.75175199398E+02  0.16968421902E+03  0.00000000000E+00 0. -1.
         -2    1    5    5    0  503  0.71194112116E+01 -0.96872699175E+01 -0.18428454720E+02  0.22003117002E+02  0.00000000000E+00 0.  1.
         -1    1    6    6    0  502  0.11247151865E+03  0.32711960806E+03  0.16148189780E+03  0.38175055181E+03  0.00000000000E+00 0.  1.
<mgrwt>
<rscale>  0 0.27569362E+04</rscale>
<asrwt>0</asrwt>
<pdfrwt beam="1">  1        1 0.37020765E+00 0.27569362E+04</pdfrwt>
<pdfrwt beam="2">  1       -1 0.12148463E+00 0.27569362E+04</pdfrwt>
<totfact> 0.82051664E-01</totfact>
</mgrwt>
</event>
<event>
12    1  0.1960998E-007  0.1351634E+04  0.7818608E-02  0.8989592E-01
         -2   -1    0    0    0  501 -0.00000000000E+00  0.00000000000E+00  0.37824278186E+03  0.37824278186E+03  0.00000000000E+00 0.  1.
          2   -1    0    0  501    0  0.00000000000E+00 -0.00000000000E+00 -0.12075005607E+04  0.12075005607E+04  0.00000000000E+00 0. -1.
         23    2    1    2    0    0  0.26397913344E+03  0.47224266554E+02  0.62008865610E+02  0.28846346353E+03  0.86318921066E+02 0.  0.
        254    2    1    2    0    0 -0.26397913344E+03 -0.47224266554E+02 -0.89126664443E+03  0.12972798790E+04  0.90369449415E+03 0.  0.
        -24    2    4    4    0    0 -0.52158592201E+03 -0.16416260093E+03 -0.82960761372E+03  0.99694657833E+03  0.81562575488E+02 0.  0.
         24    2    4    4    0    0  0.25760678857E+03  0.11693833437E+03 -0.61659030710E+02  0.30033330068E+03  0.79764803421E+02 0.  0.
         11    1    3    3    0    0  0.42360962710E+02  0.41509896952E+02  0.21596145103E+02  0.63118271443E+02  0.00000000000E+00 0. -1.
        -11    1    3    3    0    0  0.22161817073E+03  0.57143696021E+01  0.40412720507E+02  0.22534519209E+03  0.00000000000E+00 0.  1.
          2    1    6    6  502    0  0.76112993808E+02  0.72763206966E+02 -0.61941572294E+01  0.10548004407E+03  0.00000000000E+00 0. -1.
          3    1    5    5  503    0 -0.17236077660E+03 -0.94557818001E+02 -0.30703562932E+03  0.36458235823E+03  0.00000000000E+00 0. -1.
         -4    1    5    5    0  503 -0.34922514541E+03 -0.69604782927E+02 -0.52257198439E+03  0.63236422010E+03  0.00000000000E+00 0.  1.
         -1    1    6    6    0  502  0.18149379476E+03  0.44175127409E+02 -0.55464873481E+02  0.19485325660E+03  0.00000000000E+00 0.  1.
<mgrwt>
<rscale>  0 0.13516336E+04</rscale>
<asrwt>0</asrwt>
<pdfrwt beam="1">  1        2 0.18576932E+00 0.13516336E+04</pdfrwt>
<pdfrwt beam="2">  1       -2 0.58191198E-01 0.13516336E+04</pdfrwt>
<totfact> 0.50580931E+01</totfact>
</mgrwt>
</event>
<event>
12    1  0.1960998E-007  0.1397970E+04  0.7818608E-02  0.8955289E-01
         -1   -1    0    0    0  501 -0.00000000000E+00  0.00000000000E+00  0.32010352736E+03  0.32010352736E+03  0.00000000000E+00 0.  1.
          1   -1    0    0  501    0  0.00000000000E+00 -0.00000000000E+00 -0.15263186993E+04  0.15263186993E+04  0.00000000000E+00 0. -1.
         23    2    1    2    0    0 -0.13417392544E+03  0.12809513597E+03 -0.83882705357E+03  0.86382913703E+03  0.90326884467E+02 0.  0.
        254    2    1    2    0    0  0.13417392544E+03 -0.12809513597E+03 -0.36738811841E+03  0.98259308967E+03  0.89224668348E+03 0.  0.
        -24    2    4    4    0    0  0.45684654704E+02 -0.44683050071E+03  0.31945910307E+02  0.45776929092E+03  0.82386882986E+02 0.  0.
         24    2    4    4    0    0  0.88489270735E+02  0.31873536474E+03 -0.39933402872E+03  0.52482379874E+03  0.80930646009E+02 0.  0.
         13    1    3    3    0    0 -0.12553744433E+03  0.90046823443E+02 -0.76375382345E+03  0.77922267881E+03  0.00000000000E+00 0. -1.
        -13    1    3    3    0    0 -0.86364811064E+01  0.38048312522E+02 -0.75073230126E+02  0.84606458224E+02  0.00000000000E+00 0.  1.
          4    1    6    6  502    0  0.54097719699E+02  0.29194486346E+03 -0.35077976755E+03  0.45957024697E+03  0.00000000000E+00 0. -1.
          3    1    5    5  503    0 -0.21397438690E+02 -0.16799265282E+03  0.14210883743E+01  0.16935584217E+03  0.00000000000E+00 0. -1.
         -4    1    5    5    0  503  0.67082093394E+02 -0.27883784788E+03  0.30524821932E+02  0.28841344875E+03  0.00000000000E+00 0.  1.
         -3    1    6    6    0  502  0.34391551036E+02  0.26790501283E+02 -0.48554261163E+02  0.65253551771E+02  0.00000000000E+00 0.  1.
<mgrwt>
<rscale>  0 0.13979700E+04</rscale>
<asrwt>0</asrwt>
<pdfrwt beam="1">  1        1 0.23481826E+00 0.13979700E+04</pdfrwt>
<pdfrwt beam="2">  1       -1 0.49246697E-01 0.13979700E+04</pdfrwt>
<totfact> 0.25272064E+01</totfact>
</mgrwt>
</event>
<event>
12    1  0.1960998E-007  0.1467513E+04  0.7818608E-02  0.8906349E-01
          2   -1    0    0  501    0  0.00000000000E+00  0.00000000000E+00  0.14924813408E+04  0.14924813408E+04  0.00000000000E+00 0. -1.
         -2   -1    0    0    0  501 -0.00000000000E+00 -0.00000000000E+00 -0.36074046091E+03  0.36074046091E+03  0.00000000000E+00 0.  1.
         23    2    1    2    0    0 -0.22139599624E+03  0.39427110785E+03  0.37887472556E+03  0.59699874092E+03  0.91627208568E+02 0.  0.
        254    2    1    2    0    0  0.22139599624E+03 -0.39427110785E+03  0.75286615432E+03  0.12562230608E+04  0.89823328734E+03 0.  0.
        -24    2    4    4    0    0  0.93501798770E+02  0.14195887623E+03 -0.11847144057E+03  0.22195127595E+03  0.79573725253E+02 0.  0.
         24    2    4    4    0    0  0.12789419747E+03 -0.53622998408E+03  0.87133759489E+03  0.10342717848E+04  0.81175113585E+02 0.  0.
         13    1    3    3    0    0 -0.16901661457E+03  0.36094799812E+03  0.31590655531E+03  0.50857351979E+03  0.00000000000E+00 0. -1.
        -13    1    3    3    0    0 -0.52379381664E+02  0.33323109735E+02  0.62968170255E+02  0.88425221126E+02  0.00000000000E+00 0.  1.
          4    1    6    6  502    0  0.55325238741E+01 -0.18284171057E+03  0.30276755088E+03  0.35373703483E+03  0.00000000000E+00 0. -1.
          1    1    5    5  503    0  0.89532011206E+02  0.69025675587E+02 -0.85865927588E+02  0.14196296151E+03  0.00000000000E+00 0. -1.
         -2    1    5    5    0  503  0.39697875641E+01  0.72933200645E+02 -0.32605512980E+02  0.79988314436E+02  0.00000000000E+00 0.  1.
         -3    1    6    6    0  502  0.12236167359E+03 -0.35338827352E+03  0.56857004401E+03  0.68053475001E+03  0.00000000000E+00 0.  1.
<mgrwt>
<rscale>  0 0.14675127E+04</rscale>
<asrwt>0</asrwt>
<pdfrwt beam="1">  1        2 0.22961251E+00 0.14675127E+04</pdfrwt>
<pdfrwt beam="2">  1       -2 0.55498533E-01 0.14675127E+04</pdfrwt>
<totfact> 0.37873609E+01</totfact>
</mgrwt>
</event>
<event>
12    1  0.1960998E-007  0.1078459E+04  0.7818608E-02  0.9226445E-01
         -2   -1    0    0    0  501 -0.00000000000E+00  0.00000000000E+00  0.21782192719E+03  0.21782192719E+03  0.00000000000E+00 0.  1.
          2   -1    0    0  501    0  0.00000000000E+00 -0.00000000000E+00 -0.13348908672E+04  0.13348908672E+04  0.00000000000E+00 0. -1.
         23    2    1    2    0    0 -0.96702715328E+01  0.64104138120E+02  0.13508583205E+02  0.11250368496E+03  0.90949121121E+02 0.  0.
        254    2    1    2    0    0  0.96702715328E+01 -0.64104138120E+02 -0.11305775232E+04  0.14402091094E+04  0.88982801045E+03 0.  0.
        -24    2    4    4    0    0 -0.32700269619E+03 -0.82910962621E+02 -0.11327182881E+03  0.36535594169E+03  0.82761500047E+02 0.  0.
         24    2    4    4    0    0  0.33667296772E+03  0.18806824501E+02 -0.10173056944E+04  0.10748531677E+04  0.81829533080E+02 0.  0.
         11    1    3    3    0    0 -0.14817620419E+02 -0.12060497742E+02 -0.21292039771E+02  0.28607139638E+02  0.00000000000E+00 0. -1.
        -11    1    3    3    0    0  0.51473488866E+01  0.76164635862E+02  0.34800622976E+02  0.83896545317E+02  0.00000000000E+00 0.  1.
          2    1    6    6  502    0  0.25060745335E+03  0.20379323040E+01 -0.63602207856E+03  0.68361709550E+03  0.00000000000E+00 0. -1.
          3    1    5    5  503    0 -0.25347962738E+03 -0.84934809908E+02 -0.11677221943E+03  0.29172177612E+03  0.00000000000E+00 0. -1.
         -4    1    5    5    0  503 -0.73523068807E+02  0.20238472867E+01  0.35003906264E+01  0.73634165569E+02  0.00000000000E+00 0.  1.
         -1    1    6    6    0  502  0.86065514371E+02  0.16768892197E+02 -0.38128361581E+03  0.39123607220E+03  0.00000000000E+00 0.  1.
<mgrwt>
<rscale>  0 0.10784591E+04</rscale>
<asrwt>0</asrwt>
<pdfrwt beam="1">  1        2 0.20536782E+00 0.10784591E+04</pdfrwt>
<pdfrwt beam="2">  1       -2 0.33511066E-01 0.10784591E+04</pdfrwt>
<totfact> 0.13040797E+02</totfact>
</mgrwt>
</event>
<event>
12    1  0.2239885E-007  0.3752149E+04  0.7818608E-02  0.8056502E-01
          1   -1    0    0  501    0  0.00000000000E+00  0.00000000000E+00  0.19816900466E+04  0.19816900466E+04  0.00000000000E+00 0. -1.
         -1   -1    0    0    0  501 -0.00000000000E+00 -0.00000000000E+00 -0.17760879789E+04  0.17760879789E+04  0.00000000000E+00 0.  1.
         23    2    1    2    0    0 -0.61200428678E+03 -0.15052184673E+04  0.79416960065E+03  0.18108656503E+04  0.91088789219E+02 0.  0.
        254    2    1    2    0    0  0.61200428678E+03  0.15052184673E+04 -0.58856753300E+03  0.19469123752E+04  0.89656242079E+03 0.  0.
        -24    2    4    4    0    0  0.33037837485E+03  0.15214278295E+04 -0.46853608170E+03  0.16278303043E+04  0.80080764365E+02 0.  0.
         24    2    4    4    0    0  0.28162591193E+03 -0.16209362148E+02 -0.12003145130E+03  0.31908207092E+03  0.88486840756E+02 0.  0.
         11    1    3    3    0    0 -0.25789475710E+03 -0.61793755606E+03  0.37689094751E+03  0.76837706579E+03  0.00000000000E+00 0.  1.
        -11    1    3    3    0    0 -0.35410952969E+03 -0.88728091126E+03  0.41727865314E+03  0.10424885845E+04  0.00000000000E+00 0. -1.
          2    1    6    6  502    0  0.28252076620E+03 -0.32176754157E+01 -0.11626761694E+03  0.30552658725E+03  0.00000000000E+00 0. -1.
          3    1    5    5  503    0  0.29419794834E+03  0.12754834688E+04 -0.41856630509E+03  0.13742664457E+04  0.00000000000E+00 0. -1.
         -4    1    5    5    0  503  0.36180426507E+02  0.24594436070E+03 -0.49969776605E+02  0.25356385862E+03  0.00000000000E+00 0.  1.
         -3    1    6    6    0  502 -0.89485426695E+00 -0.12991686733E+02 -0.37638343589E+01  0.13555483665E+02  0.00000000000E+00 0.  1.
<mgrwt>
<rscale>  0 0.37521492E+04</rscale>
<asrwt>0</asrwt>
<pdfrwt beam="1">  1        1 0.30487539E+00 0.37521492E+04</pdfrwt>
<pdfrwt beam="2">  1       -1 0.27324430E+00 0.37521492E+04</pdfrwt>
<totfact> 0.12059172E-01</totfact>
</mgrwt>
</event>
<event>
12    1  0.1960998E-007  0.1373316E+04  0.7818608E-02  0.8973363E-01
         -2   -1    0    0    0  501 -0.00000000000E+00  0.00000000000E+00  0.96410481317E+03  0.96410481317E+03  0.00000000000E+00 0.  1.
          2   -1    0    0  501    0  0.00000000000E+00 -0.00000000000E+00 -0.48905393735E+03  0.48905393735E+03  0.00000000000E+00 0. -1.
         23    2    1    2    0    0  0.25217446042E+03 -0.28894403590E+03  0.10606936605E+03  0.40809615025E+03  0.90615357802E+02 0.  0.
        254    2    1    2    0    0 -0.25217446042E+03  0.28894403590E+03  0.36898150977E+03  0.10450626003E+04  0.89940417475E+03 0.  0.
        -24    2    4    4    0    0 -0.32051336878E+03  0.31379347448E+03  0.62129106447E+03  0.77082373677E+03  0.83495402224E+02 0.  0.
         24    2    4    4    0    0  0.68338908357E+02 -0.24849438586E+02 -0.25230955470E+03  0.27423886349E+03  0.79114738602E+02 0.  0.
         13    1    3    3    0    0  0.17759014959E+03 -0.18922984880E+03  0.27747705373E+02  0.26099067428E+03  0.00000000000E+00 0. -1.
        -13    1    3    3    0    0  0.74584310830E+02 -0.99714187098E+02  0.78321660672E+02  0.14710547597E+03  0.00000000000E+00 0.  1.
          2    1    6    6  502    0  0.16437433035E+02 -0.60804971928E+01 -0.16821451824E+01  0.17606568755E+02  0.00000000000E+00 0. -1.
          1    1    5    5  503    0 -0.44238151388E+02  0.47665513890E+02  0.47155389975E+02  0.80328363959E+02  0.00000000000E+00 0. -1.
         -2    1    5    5    0  503 -0.27627521739E+03  0.26612796059E+03  0.57413567449E+03  0.69049537281E+03  0.00000000000E+00 0.  1.
         -1    1    6    6    0  502  0.51901475322E+02 -0.18768941393E+02 -0.25062740952E+03  0.25663229474E+03  0.00000000000E+00 0.  1.
<mgrwt>
<rscale>  0 0.13733161E+04</rscale>
<asrwt>0</asrwt>
<pdfrwt beam="1">  1        2 0.75239068E-01 0.13733161E+04</pdfrwt>
<pdfrwt beam="2">  1       -2 0.14832382E+00 0.13733161E+04</pdfrwt>
<totfact> 0.19002391E+01</totfact>
</mgrwt>
</event>
<event>
12    1  0.1960998E-007  0.2675713E+04  0.7818608E-02  0.8342928E-01
          1   -1    0    0  501    0  0.00000000000E+00  0.00000000000E+00  0.19092228316E+04  0.19092228316E+04  0.00000000000E+00 0. -1.
         -1   -1    0    0    0  501 -0.00000000000E+00 -0.00000000000E+00 -0.93748117171E+03  0.93748117171E+03  0.00000000000E+00 0.  1.
         23    2    1    2    0    0 -0.99622483312E+03 -0.49480060488E+03  0.86431654086E+03  0.14116063022E+04  0.91091782572E+02 0.  0.
        254    2    1    2    0    0  0.99622483312E+03  0.49480060488E+03  0.10742511906E+03  0.14350977012E+04  0.90037419940E+03 0.  0.
        -24    2    4    4    0    0 -0.60455661207E+02  0.11360706081E+03  0.25788549568E+03  0.29906023210E+03  0.79816303477E+02 0.  0.
         24    2    4    4    0    0  0.10566804943E+04  0.38119354407E+03 -0.15046037662E+03  0.11360374691E+04  0.77849990628E+02 0.  0.
         13    1    3    3    0    0 -0.43121935288E+03 -0.26258598505E+03  0.37435946585E+03  0.62852727826E+03  0.00000000000E+00 0.  1.
        -13    1    3    3    0    0 -0.56500548024E+03 -0.23221461983E+03  0.48995707501E+03  0.78307902393E+03  0.00000000000E+00 0. -1.
          4    1    6    6  502    0  0.59760057562E+03  0.25641257963E+03 -0.85025340781E+02  0.65582251223E+03  0.00000000000E+00 0. -1.
          3    1    5    5  503    0 -0.62321447157E+01 -0.12599974437E+02  0.22773480816E+02  0.26762481425E+02  0.00000000000E+00 0. -1.
         -4    1    5    5    0  503 -0.54223516491E+02  0.12620703525E+03  0.23511201487E+03  0.27229775067E+03  0.00000000000E+00 0.  1.
         -3    1    6    6    0  502  0.45907991871E+03  0.12478096445E+03 -0.65435035839E+02  0.48021495683E+03  0.00000000000E+00 0.  1.
<mgrwt>
<rscale>  0 0.26757133E+04</rscale>
<asrwt>0</asrwt>
<pdfrwt beam="1">  1        1 0.29372659E+00 0.26757133E+04</pdfrwt>
<pdfrwt beam="2">  1       -1 0.14422787E+00 0.26757133E+04</pdfrwt>
<totfact> 0.11644068E+00</totfact>
</mgrwt>
</event>
<event>
12    1  0.1960998E-007  0.1950373E+04  0.7818608E-02  0.8630181E-01
          2   -1    0    0  501    0  0.00000000000E+00  0.00000000000E+00  0.14060879297E+04  0.14060879297E+04  0.00000000000E+00 0.  1.
         -2   -1    0    0    0  501 -0.00000000000E+00 -0.00000000000E+00 -0.67633673569E+03  0.67633673569E+03  0.00000000000E+00 0. -1.
         23    2    1    2    0    0 -0.41372827163E+03  0.13658332056E+03 -0.38294314107E+03  0.58714435743E+03  0.90922829787E+02 0.  0.
        254    2    1    2    0    0  0.41372827163E+03 -0.13658332056E+03  0.11126943351E+04  0.14952803080E+04  0.89885951621E+03 0.  0.
        -24    2    4    4    0    0 -0.67334101959E+02 -0.42216579221E+03  0.47426773382E+03  0.64268966490E+03  0.73227622115E+02 0.  0.
         24    2    4    4    0    0  0.48106237358E+03  0.28558247165E+03  0.63842660129E+03  0.85259064308E+03  0.79648754196E+02 0.  0.
         11    1    3    3    0    0 -0.34615441002E+03  0.14299512620E+03 -0.34588032793E+03  0.50980749596E+03  0.00000000000E+00 0. -1.
        -11    1    3    3    0    0 -0.67573861608E+02 -0.64118056397E+01 -0.37062813136E+02  0.77336861468E+02  0.00000000000E+00 0.  1.
          2    1    6    6  502    0  0.28457441673E+03  0.18055181244E+03  0.32625175318E+03  0.46906477387E+03  0.00000000000E+00 0. -1.
          1    1    5    5  503    0 -0.26314313375E+02 -0.26156924178E+03  0.33744058343E+03  0.42775817781E+03  0.00000000000E+00 0. -1.
         -2    1    5    5    0  503 -0.41019788584E+02 -0.16059655042E+03  0.13682715039E+03  0.21493148710E+03  0.00000000000E+00 0.  1.
         -1    1    6    6    0  502  0.19648795685E+03  0.10503065921E+03  0.31217484811E+03  0.38352586921E+03  0.00000000000E+00 0.  1.
<mgrwt>
<rscale>  0 0.19503732E+04</rscale>
<asrwt>0</asrwt>
<pdfrwt beam="1">  1        2 0.21632122E+00 0.19503732E+04</pdfrwt>
<pdfrwt beam="2">  1       -2 0.10405181E+00 0.19503732E+04</pdfrwt>
<totfact> 0.10060994E+01</totfact>
</mgrwt>
</event>
<event>
12    1  0.1960998E-007  0.2974275E+04  0.7818608E-02  0.8251115E-01
         -2   -1    0    0    0  501 -0.00000000000E+00  0.00000000000E+00  0.22534417887E+04  0.22534417887E+04  0.00000000000E+00 0.  1.
          2   -1    0    0  501    0  0.00000000000E+00 -0.00000000000E+00 -0.98142251999E+03  0.98142251999E+03  0.00000000000E+00 0. -1.
         23    2    1    2    0    0 -0.84053794278E+03 -0.91162531569E+03 -0.66314848103E+00  0.12433159859E+04  0.90936525378E+02 0.  0.
        254    2    1    2    0    0  0.84053794278E+03  0.91162531569E+03  0.12726824172E+04  0.19915483228E+04  0.89943284210E+03 0.  0.
        -24    2    4    4    0    0  0.31343537157E+03  0.93880092210E+03  0.90356796646E+03  0.13425295018E+04  0.79758947693E+02 0.  0.
         24    2    4    4    0    0  0.52710257122E+03 -0.27175606411E+02  0.36911445076E+03  0.64901882098E+03  0.80026983327E+02 0.  0.
         13    1    3    3    0    0 -0.57572686988E+03 -0.67482841080E+03 -0.23278050955E+02  0.88735375154E+03  0.00000000000E+00 0. -1.
        -13    1    3    3    0    0 -0.26481107290E+03 -0.23679690489E+03  0.22614902474E+02  0.35596223439E+03  0.00000000000E+00 0.  1.
          2    1    6    6  502    0  0.48266174877E+03 -0.42243876472E+02  0.35277139922E+03  0.59932843161E+03  0.00000000000E+00 0. -1.
          1    1    5    5  503    0  0.25107292548E+03  0.80773936300E+03  0.74020667628E+03  0.11240046335E+04  0.00000000000E+00 0. -1.
         -2    1    5    5    0  503  0.62362446084E+02  0.13106155910E+03  0.16336129017E+03  0.21852486834E+03  0.00000000000E+00 0.  1.
         -1    1    6    6    0  502  0.44440822447E+02  0.15068270062E+02  0.16343051537E+02  0.49690389372E+02  0.00000000000E+00 0.  1.
<mgrwt>
<rscale>  0 0.29742754E+04</rscale>
<asrwt>0</asrwt>
<pdfrwt beam="1">  1        2 0.15098808E+00 0.29742754E+04</pdfrwt>
<pdfrwt beam="2">  1       -2 0.34668335E+00 0.29742754E+04</pdfrwt>
<totfact> 0.36254958E-01</totfact>
</mgrwt>
</event>
<event>
12    1  0.1960998E-007  0.2204100E+04  0.7818608E-02  0.8516723E-01
         -1   -1    0    0    0  501 -0.00000000000E+00  0.00000000000E+00  0.61757451430E+03  0.61757451430E+03  0.00000000000E+00 0.  1.
          1   -1    0    0  501    0  0.00000000000E+00 -0.00000000000E+00 -0.19665879336E+04  0.19665879336E+04  0.00000000000E+00 0. -1.
         23    2    1    2    0    0  0.89420020837E+03 -0.19487593694E+03 -0.62022730215E+03  0.11094615471E+04  0.93018142376E+02 0.  0.
        254    2    1    2    0    0 -0.89420020837E+03  0.19487593694E+03 -0.72878611716E+03  0.14747009008E+04  0.89779891886E+03 0.  0.
        -24    2    4    4    0    0 -0.66757986805E+03  0.46888070681E+03 -0.74752074036E+03  0.11093723688E+04  0.80048723007E+02 0.  0.
         24    2    4    4    0    0 -0.22662034032E+03 -0.27400476987E+03  0.18734623192E+02  0.36532853192E+03  0.81722442297E+02 0.  0.
         13    1    3    3    0    0  0.67469143453E+03 -0.18568701037E+03 -0.48627132917E+03  0.85214318235E+03  0.00000000000E+00 0. -1.
        -13    1    3    3    0    0  0.21950877384E+03 -0.91889265650E+01 -0.13395597298E+03  0.25731836480E+03  0.00000000000E+00 0.  1.
          2    1    6    6  502    0 -0.21286056217E+03 -0.27660693137E+03  0.10719326892E+02  0.34919323787E+03  0.00000000000E+00 0. -1.
          3    1    5    5  503    0 -0.45791657075E+03  0.35736140154E+03 -0.50092466353E+03  0.76702038800E+03  0.00000000000E+00 0. -1.
         -4    1    5    5    0  503 -0.20966329730E+03  0.11151930527E+03 -0.24659607683E+03  0.34235198085E+03  0.00000000000E+00 0.  1.
         -1    1    6    6    0  502 -0.13759778152E+02  0.26021615026E+01  0.80152963006E+01  0.16135294050E+02  0.00000000000E+00 0.  1.
<mgrwt>
<rscale>  0 0.22041003E+04</rscale>
<asrwt>0</asrwt>
<pdfrwt beam="1">  1        1 0.30255198E+00 0.22041003E+04</pdfrwt>
<pdfrwt beam="2">  1       -1 0.95011465E-01 0.22041003E+04</pdfrwt>
<totfact> 0.30626899E+00</totfact>
</mgrwt>
</event>
<event>
12    1  0.1960998E-007  0.3873825E+04  0.7818608E-02  0.8030495E-01
          1   -1    0    0  501    0  0.00000000000E+00  0.00000000000E+00  0.26564769491E+04  0.26564769491E+04  0.00000000000E+00 0. -1.
         -1   -1    0    0    0  501 -0.00000000000E+00 -0.00000000000E+00 -0.14122576538E+04  0.14122576538E+04  0.00000000000E+00 0.  1.
         23    2    1    2    0    0 -0.25421165522E+03  0.13765865025E+04  0.18421223944E+04  0.23154551268E+04  0.91123892665E+02 0.  0.
        254    2    1    2    0    0  0.25421165522E+03 -0.13765865025E+04 -0.59790309914E+03  0.17532794761E+04  0.86999243733E+03 0.  0.
        -24    2    4    4    0    0  0.49141881432E+03 -0.11475545340E+04 -0.65020029555E+03  0.14097305687E+04  0.78778121484E+02 0.  0.
         24    2    4    4    0    0 -0.23720715910E+03 -0.22903196847E+03  0.52297196417E+02  0.34354890742E+03  0.81043051077E+02 0.  0.
         11    1    3    3    0    0 -0.39229307078E+02  0.43104806294E+03  0.59169267727E+03  0.73310408227E+03  0.00000000000E+00 0. -1.
        -11    1    3    3    0    0 -0.21498234814E+03  0.94553843952E+03  0.12504297171E+04  0.15823510445E+04  0.00000000000E+00 0.  1.
          4    1    6    6  502    0 -0.60962581789E+02 -0.10179707457E+03 -0.49696025645E+01  0.11875932688E+03  0.00000000000E+00 0. -1.
          3    1    5    5  503    0  0.34455590248E+03 -0.71741869345E+03 -0.43188066873E+03  0.90549945537E+03  0.00000000000E+00 0. -1.
         -4    1    5    5    0  503  0.14686291184E+03 -0.43013584054E+03 -0.21831962682E+03  0.50423111333E+03  0.00000000000E+00 0.  1.
         -3    1    6    6    0  502 -0.17624457731E+03 -0.12723489389E+03  0.57266798981E+02  0.22478958055E+03  0.00000000000E+00 0.  1.
<mgrwt>
<rscale>  0 0.38738249E+04</rscale>
<asrwt>0</asrwt>
<pdfrwt beam="1">  1        1 0.40868876E+00 0.38738249E+04</pdfrwt>
<pdfrwt beam="2">  1       -1 0.21727041E+00 0.38738249E+04</pdfrwt>
<totfact> 0.95597844E-02</totfact>
</mgrwt>
</event>
<event>
12    1  0.1960998E-007  0.1172592E+04  0.7818608E-02  0.9137191E-01
         -1   -1    0    0    0  501 -0.00000000000E+00  0.00000000000E+00  0.11047913593E+04  0.11047913593E+04  0.00000000000E+00 0. -1.
          1   -1    0    0  501    0  0.00000000000E+00 -0.00000000000E+00 -0.31113840652E+03  0.31113840652E+03  0.00000000000E+00 0.  1.
         23    2    1    2    0    0 -0.30430176503E+02 -0.18166886447E+03  0.31291790281E+03  0.37440277526E+03  0.91270215646E+02 0.  0.
        254    2    1    2    0    0  0.30430176503E+02  0.18166886447E+03  0.48073505000E+03  0.10415269906E+04  0.90539643905E+03 0.  0.
        -24    2    4    4    0    0 -0.35686187343E+03 -0.13176173287E+03  0.80620110856E+02  0.39696422330E+03  0.79808779885E+02 0.  0.
         24    2    4    4    0    0  0.38729204993E+03  0.31343059735E+03  0.40011493914E+03  0.64456276728E+03  0.84470853829E+02 0.  0.
         11    1    3    3    0    0 -0.36440228852E+01 -0.18809382618E+02  0.11551207308E+03  0.11709018236E+03  0.00000000000E+00 0. -1.
        -11    1    3    3    0    0 -0.26786153618E+02 -0.16285948185E+03  0.19740582972E+03  0.25731259290E+03  0.00000000000E+00 0.  1.
          4    1    6    6  502    0  0.22458400931E+03  0.13372238129E+03  0.23264120639E+03  0.34991653777E+03  0.00000000000E+00 0. -1.
          1    1    5    5  503    0 -0.35388479277E+03 -0.11566921765E+03  0.76475459901E+02  0.38008197857E+03  0.00000000000E+00 0. -1.
         -4    1    5    5    0  503 -0.29770806573E+01 -0.16092515225E+02  0.41446509550E+01  0.16882244728E+02  0.00000000000E+00 0.  1.
         -3    1    6    6    0  502  0.16270804062E+03  0.17970821606E+03  0.16747373275E+03  0.29464622951E+03  0.00000000000E+00 0.  1.
<mgrwt>
<rscale>  0 0.11725920E+04</rscale>
<asrwt>0</asrwt>
<pdfrwt beam="1">  1        1 0.47867448E-01 0.11725920E+04</pdfrwt>
<pdfrwt beam="2">  1       -1 0.16996790E+00 0.11725920E+04</pdfrwt>
<totfact> 0.20408395E+01</totfact>
</mgrwt>
</event>
<event>
12    1  0.1960998E-007  0.1434417E+04  0.7818608E-02  0.8929275E-01
         -2   -1    0    0    0  501 -0.00000000000E+00  0.00000000000E+00  0.34212114535E+03  0.34212114535E+03  0.00000000000E+00 0.  1.
          2   -1    0    0  501    0  0.00000000000E+00 -0.00000000000E+00 -0.15035269324E+04  0.15035269324E+04  0.00000000000E+00 0. -1.
         23    2    1    2    0    0 -0.42368096667E+02  0.40953822601E+03 -0.50801968702E+03  0.65998182938E+03  0.89305086821E+02 0.  0.
        254    2    1    2    0    0  0.42368096667E+02 -0.40953822601E+03 -0.65338610001E+03  0.11856662483E+04  0.89965240098E+03 0.  0.
        -24    2    4    4    0    0 -0.26115814125E+03 -0.34869940233E+03 -0.73239619194E+03  0.85585326089E+03  0.79282875044E+02 0.  0.
         24    2    4    4    0    0  0.30352623792E+03 -0.60838823684E+02  0.79010091935E+02  0.32981298746E+03  0.81880843282E+02 0.  0.
         13    1    3    3    0    0 -0.19945117281E+02  0.17886909781E+03 -0.29288352382E+03  0.34376259305E+03  0.00000000000E+00 0. -1.
        -13    1    3    3    0    0 -0.22422979386E+02  0.23066912820E+03 -0.21513616320E+03  0.31621923633E+03  0.00000000000E+00 0.  1.
          2    1    6    6  502    0  0.25265713901E+03 -0.78292405430E+02  0.51772000196E+02  0.26952860821E+03  0.00000000000E+00 0. -1.
          1    1    5    5  503    0 -0.19353144494E+03 -0.19759821993E+03 -0.43493499211E+03  0.51542984398E+03  0.00000000000E+00 0. -1.
         -2    1    5    5    0  503 -0.67626696312E+02 -0.15110118240E+03 -0.29746119983E+03  0.34042341691E+03  0.00000000000E+00 0.  1.
         -1    1    6    6    0  502  0.50869098909E+02  0.17453581746E+02  0.27238091739E+02  0.60284379247E+02  0.00000000000E+00 0.  1.
<mgrwt>
<rscale>  0 0.14344175E+04</rscale>
<asrwt>0</asrwt>
<pdfrwt beam="1">  1        2 0.23131183E+00 0.14344175E+04</pdfrwt>
<pdfrwt beam="2">  1       -2 0.52634023E-01 0.14344175E+04</pdfrwt>
<totfact> 0.41771341E+01</totfact>
</mgrwt>
</event>
<event>
12    1  0.1960998E-007  0.1634395E+04  0.7818608E-02  0.8799692E-01
         -2   -1    0    0    0  501 -0.00000000000E+00  0.00000000000E+00  0.26418525557E+03  0.26418525557E+03  0.00000000000E+00 0. -1.
          2   -1    0    0  501    0  0.00000000000E+00 -0.00000000000E+00 -0.25278152518E+04  0.25278152518E+04  0.00000000000E+00 0.  1.
         23    2    1    2    0    0  0.10095120109E+03  0.18532921147E+03 -0.16851383677E+04  0.17007460081E+04  0.91146058762E+02 0.  0.
        254    2    1    2    0    0 -0.10095120109E+03 -0.18532921147E+03 -0.57849162855E+03  0.10912544993E+04  0.90091384515E+03 0.  0.
        -24    2    4    4    0    0 -0.19753682641E+03  0.30748231292E+02  0.18803456220E+03  0.28565033161E+03  0.79201413192E+02 0.  0.
         24    2    4    4    0    0  0.96585625321E+02 -0.21607744276E+03 -0.76652619075E+03  0.80560416772E+03  0.73603190498E+02 0.  0.
         11    1    3    3    0    0  0.66272242351E+02  0.56097864267E+02 -0.44354818502E+03  0.45196678298E+03  0.00000000000E+00 0.  1.
        -11    1    3    3    0    0  0.34678958740E+02  0.12923134720E+03 -0.12415901827E+04  0.12487792251E+04  0.00000000000E+00 0. -1.
          4    1    6    6  502    0  0.83649017194E+02 -0.21880776234E+03 -0.71429748320E+03  0.75172793579E+03  0.00000000000E+00 0. -1.
          3    1    5    5  503    0 -0.16484273676E+03 -0.25786021006E+00  0.17089728574E+03  0.23744278601E+03  0.00000000000E+00 0. -1.
         -4    1    5    5    0  503 -0.32694089650E+02  0.31006091502E+02  0.17137276456E+02  0.48207545598E+02  0.00000000000E+00 0.  1.
         -3    1    6    6    0  502  0.12936608127E+02  0.27303195769E+01 -0.52228707550E+02  0.53876231932E+02  0.00000000000E+00 0.  1.
<mgrwt>
<rscale>  0 0.16343947E+04</rscale>
<asrwt>0</asrwt>
<pdfrwt beam="1">  1        2 0.38889465E+00 0.16343947E+04</pdfrwt>
<pdfrwt beam="2">  1       -2 0.40643886E-01 0.16343947E+04</pdfrwt>
<totfact> 0.18424723E+01</totfact>
</mgrwt>
</event>
<event>
12    1  0.1960998E-007  0.1314302E+04  0.7818608E-02  0.9018300E-01
         -2   -1    0    0    0  501 -0.00000000000E+00  0.00000000000E+00  0.68991160484E+03  0.68991160484E+03  0.00000000000E+00 0.  1.
          2   -1    0    0  501    0  0.00000000000E+00 -0.00000000000E+00 -0.62594599338E+03  0.62594599338E+03  0.00000000000E+00 0. -1.
         23    2    1    2    0    0 -0.14160283783E+03 -0.16641725915E+01  0.32647837827E+03  0.36702926178E+03  0.89823239623E+02 0.  0.
        254    2    1    2    0    0  0.14160283783E+03  0.16641725915E+01 -0.26251276681E+03  0.94882833643E+03  0.90072644356E+03 0.  0.
        -24    2    4    4    0    0  0.39739981676E+03 -0.24943606312E+03  0.35559035180E+02  0.47739149964E+03  0.80580611815E+02 0.  0.
         24    2    4    4    0    0 -0.25579697893E+03  0.25110023571E+03 -0.29807180199E+03  0.47143683679E+03  0.70160310292E+02 0.  0.
         13    1    3    3    0    0 -0.56526200129E+02 -0.11562366193E+02  0.46074867669E+02  0.73836258327E+02  0.00000000000E+00 0. -1.
        -13    1    3    3    0    0 -0.85076637697E+02  0.98981936011E+01  0.28040351060E+03  0.29319300346E+03  0.00000000000E+00 0.  1.
          4    1    6    6  502    0 -0.71647663015E+02  0.10830256252E+03 -0.81533155999E+02  0.15333130206E+03  0.00000000000E+00 0. -1.
          1    1    5    5  503    0  0.23263630026E+03 -0.15995331260E+03 -0.16505981355E+02  0.28280232996E+03  0.00000000000E+00 0. -1.
         -2    1    5    5    0  503  0.16476351650E+03 -0.89482750517E+02  0.52065016535E+02  0.19458916968E+03  0.00000000000E+00 0.  1.
         -3    1    6    6    0  502 -0.18414931592E+03  0.14279767319E+03 -0.21653864599E+03  0.31810553473E+03  0.00000000000E+00 0.  1.
<mgrwt>
<rscale>  0 0.13143020E+04</rscale>
<asrwt>0</asrwt>
<pdfrwt beam="1">  1        2 0.96299383E-01 0.13143020E+04</pdfrwt>
<pdfrwt beam="2">  1       -2 0.10614025E+00 0.13143020E+04</pdfrwt>
<totfact> 0.33038469E+01</totfact>
</mgrwt>
</event>
<event>
12    1  0.1960998E-007  0.2969775E+04  0.7818608E-02  0.8252415E-01
         -2   -1    0    0    0  501 -0.00000000000E+00  0.00000000000E+00  0.17221993230E+04  0.17221993230E+04  0.00000000000E+00 0.  1.
          2   -1    0    0  501    0  0.00000000000E+00 -0.00000000000E+00 -0.12802765069E+04  0.12802765069E+04  0.00000000000E+00 0. -1.
         23    2    1    2    0    0 -0.47004873931E+03  0.12327246975E+04  0.47403952695E+03  0.14049440898E+04  0.92727693211E+02 0.  0.
        254    2    1    2    0    0  0.47004873931E+03 -0.12327246975E+04 -0.32116710834E+02  0.15975317401E+04  0.90028894273E+03 0.  0.
        -24    2    4    4    0    0  0.15921213673E+03 -0.31766316410E+03 -0.41732036617E+03  0.55392457168E+03  0.80110878045E+02 0.  0.
         24    2    4    4    0    0  0.31083660257E+03 -0.91506153344E+03  0.38520365533E+03  0.10436071685E+04  0.82322916094E+02 0.  0.
         13    1    3    3    0    0 -0.20491972769E+03  0.66605187571E+03  0.24284377028E+03  0.73796361204E+03  0.00000000000E+00 0.  1.
        -13    1    3    3    0    0 -0.26512901162E+03  0.56667282184E+03  0.23119575667E+03  0.66698047776E+03  0.00000000000E+00 0. -1.
          4    1    6    6  502    0  0.13261482441E+03 -0.32265204588E+03  0.10366961037E+03  0.36392090141E+03  0.00000000000E+00 0. -1.
          3    1    5    5  503    0  0.17063325443E+02 -0.43855025460E+02 -0.10430911345E+03  0.11443256303E+03  0.00000000000E+00 0. -1.
         -4    1    5    5    0  503  0.14214881129E+03 -0.27380813864E+03 -0.31301125272E+03  0.43949200865E+03  0.00000000000E+00 0.  1.
         -3    1    6    6    0  502  0.17822177816E+03 -0.59240948756E+03  0.28153404496E+03  0.67968626706E+03  0.00000000000E+00 0.  1.
<mgrwt>
<rscale>  0 0.29697753E+04</rscale>
<asrwt>0</asrwt>
<pdfrwt beam="1">  1        2 0.19696562E+00 0.29697753E+04</pdfrwt>
<pdfrwt beam="2">  1       -2 0.26495374E+00 0.29697753E+04</pdfrwt>
<totfact> 0.75804142E-01</totfact>
</mgrwt>
</event>
<event>
12    1  0.1960998E-007  0.1868030E+04  0.7818608E-02  0.8670936E-01
         -2   -1    0    0    0  501 -0.00000000000E+00  0.00000000000E+00  0.20310704909E+04  0.20310704909E+04  0.00000000000E+00 0.  1.
          2   -1    0    0  501    0  0.00000000000E+00 -0.00000000000E+00 -0.42951922321E+03  0.42951922321E+03  0.00000000000E+00 0. -1.
         23    2    1    2    0    0 -0.43315888015E+03  0.36410113966E+03  0.49830244572E+02  0.57502112559E+03  0.89274779477E+02 0.  0.
        254    2    1    2    0    0  0.43315888015E+03 -0.36410113966E+03  0.15517210232E+04  0.18855685885E+04  0.90957930553E+03 0.  0.
        -24    2    4    4    0    0  0.83289918821E+01 -0.51449366585E+03  0.43505363452E+03  0.67867229183E+03  0.80940166025E+02 0.  0.
         24    2    4    4    0    0  0.42482988827E+03  0.15039252619E+03  0.11166673886E+04  0.12068962967E+04  0.80958435570E+02 0.  0.
         11    1    3    3    0    0 -0.29269617524E+02  0.53330324338E+02  0.21855327400E+02  0.64641235599E+02  0.00000000000E+00 0.  1.
        -11    1    3    3    0    0 -0.40388926263E+03  0.31077081532E+03  0.27974917172E+02  0.51037989000E+03  0.00000000000E+00 0. -1.
          2    1    6    6  502    0  0.13207874991E+03  0.44366055260E+02  0.25315557412E+03  0.28896520161E+03  0.00000000000E+00 0. -1.
          3    1    5    5  503    0  0.91697947202E+01 -0.57836593991E+01  0.17286626665E+02  0.20404982546E+02  0.00000000000E+00 0. -1.
         -4    1    5    5    0  503 -0.84080283816E+00 -0.50871000645E+03  0.41776700785E+03  0.65826730928E+03  0.00000000000E+00 0.  1.
         -1    1    6    6    0  502  0.29275113836E+03  0.10602647093E+03  0.86351181452E+03  0.91793109510E+03  0.00000000000E+00 0.  1.
<mgrwt>
<rscale>  0 0.18680298E+04</rscale>
<asrwt>0</asrwt>
<pdfrwt beam="1">  1        2 0.66079882E-01 0.18680298E+04</pdfrwt>
<pdfrwt beam="2">  1       -2 0.31247238E+00 0.18680298E+04</pdfrwt>
<totfact> 0.18385861E+00</totfact>
</mgrwt>
</event>
<event>
12    1  0.1960998E-007  0.1945710E+04  0.7818608E-02  0.8632432E-01
         -2   -1    0    0    0  501 -0.00000000000E+00  0.00000000000E+00  0.16718384440E+04  0.16718384440E+04  0.00000000000E+00 0.  1.
          2   -1    0    0  501    0  0.00000000000E+00 -0.00000000000E+00 -0.56611167299E+03  0.56611167299E+03  0.00000000000E+00 0. -1.
         23    2    1    2    0    0 -0.52670031798E+03 -0.53265506202E+03  0.59869143992E+03  0.96321683711E+03  0.90667496873E+02 0.  0.
        254    2    1    2    0    0  0.52670031798E+03  0.53265506202E+03  0.50703533112E+03  0.12747332799E+04  0.89817897320E+03 0.  0.
        -24    2    4    4    0    0 -0.23460302847E+03  0.11193663232E+03  0.23629065508E+03  0.36045130749E+03  0.80768067722E+02 0.  0.
         24    2    4    4    0    0  0.76130334645E+03  0.42071842970E+03  0.27074467604E+03  0.91428197244E+03  0.77601953038E+02 0.  0.
         13    1    3    3    0    0 -0.36529859164E+03 -0.31945110664E+03  0.41804172930E+03  0.64050835906E+03  0.00000000000E+00 0. -1.
        -13    1    3    3    0    0 -0.16140172634E+03 -0.21320395538E+03  0.18064971062E+03  0.32270847804E+03  0.00000000000E+00 0.  1.
          2    1    6    6  502    0  0.14310191417E+03  0.11314678307E+03  0.67292320774E+02  0.19444435912E+03  0.00000000000E+00 0. -1.
          1    1    5    5  503    0  0.33080323954E+01 -0.21631557206E+01  0.16732740601E+02  0.17193223346E+02  0.00000000000E+00 0. -1.
         -2    1    5    5    0  503 -0.23791106087E+03  0.11409978804E+03  0.21955791448E+03  0.34325808414E+03  0.00000000000E+00 0.  1.
         -1    1    6    6    0  502  0.61820143228E+03  0.30757164662E+03  0.20345235526E+03  0.71983761332E+03  0.00000000000E+00 0.  1.
<mgrwt>
<rscale>  0 0.19457104E+04</rscale>
<asrwt>0</asrwt>
<pdfrwt beam="1">  1        2 0.87094104E-01 0.19457104E+04</pdfrwt>
<pdfrwt beam="2">  1       -2 0.25720591E+00 0.19457104E+04</pdfrwt>
<totfact> 0.28804921E+00</totfact>
</mgrwt>
</event>
<event>
12    1  0.1960998E-007  0.2497749E+04  0.7818608E-02  0.8403788E-01
          2   -1    0    0  501    0  0.00000000000E+00  0.00000000000E+00  0.33126054724E+04  0.33126054724E+04  0.00000000000E+00 0. -1.
         -2   -1    0    0    0  501 -0.00000000000E+00 -0.00000000000E+00 -0.47083417140E+03  0.47083417140E+03  0.00000000000E+00 0.  1.
         23    2    1    2    0    0 -0.55893736120E+03  0.40805351003E+03 -0.26166570189E+02  0.69908572542E+03  0.95485712506E+02 0.  0.
        254    2    1    2    0    0  0.55893736120E+03 -0.40805351003E+03  0.28679378711E+04  0.30843539183E+04  0.89958480423E+03 0.  0.
        -24    2    4    4    0    0 -0.23001887475E+03 -0.64986124987E+01  0.68929320043E+03  0.73117134173E+03  0.80842439983E+02 0.  0.
         24    2    4    4    0    0  0.78895623595E+03 -0.40155489753E+03  0.21786446707E+04  0.23531825766E+04  0.85307441809E+02 0.  0.
         13    1    3    3    0    0 -0.44939643851E+03  0.35075606304E+03 -0.53167138812E+02  0.57255018937E+03  0.00000000000E+00 0.  1.
        -13    1    3    3    0    0 -0.10954092269E+03  0.57297446997E+02  0.27000568623E+02  0.12653553605E+03  0.00000000000E+00 0. -1.
          4    1    6    6  502    0  0.44506421321E+03 -0.27015619680E+03  0.12338687063E+04  0.13392156319E+04  0.00000000000E+00 0. -1.
          1    1    5    5  503    0 -0.29204220245E+02  0.19491538377E+02  0.17427108603E+03  0.17777293938E+03  0.00000000000E+00 0. -1.
         -2    1    5    5    0  503 -0.20081465450E+03 -0.25990150876E+02  0.51502211440E+03  0.55339840235E+03  0.00000000000E+00 0.  1.
         -3    1    6    6    0  502  0.34389202275E+03 -0.13139870073E+03  0.94477596446E+03  0.10139669447E+04  0.00000000000E+00 0.  1.
<mgrwt>
<rscale>  0 0.24977493E+04</rscale>
<asrwt>0</asrwt>
<pdfrwt beam="1">  1        2 0.50963160E+00 0.24977493E+04</pdfrwt>
<pdfrwt beam="2">  1       -2 0.72436028E-01 0.24977493E+04</pdfrwt>
<totfact> 0.16818220E+00</totfact>
</mgrwt>
</event>
<event>
12    1  0.1960998E-007  0.1353159E+04  0.7818608E-02  0.8988440E-01
         -2   -1    0    0    0  501 -0.00000000000E+00  0.00000000000E+00  0.25692207786E+03  0.25692207786E+03  0.00000000000E+00 0.  1.
          2   -1    0    0  501    0  0.00000000000E+00 -0.00000000000E+00 -0.17817074111E+04  0.17817074111E+04  0.00000000000E+00 0. -1.
         23    2    1    2    0    0 -0.11855170177E+03  0.34720225330E+03 -0.45468611066E+03  0.59138009290E+03  0.91580807856E+02 0.  0.
        254    2    1    2    0    0  0.11855170177E+03 -0.34720225330E+03 -0.10700992226E+04  0.14472493961E+04  0.90267079135E+03 0.  0.
        -24    2    4    4    0    0  0.47591744160E+03 -0.56309344611E+02 -0.39565147613E+03  0.62641002435E+03  0.78621081958E+02 0.  0.
         24    2    4    4    0    0 -0.35736573983E+03 -0.29089290869E+03 -0.67444774646E+03  0.82083937173E+03  0.81046623221E+02 0.  0.
         11    1    3    3    0    0 -0.22621581853E+02  0.20460782431E+03 -0.23376385782E+03  0.31148296736E+03  0.00000000000E+00 0.  1.
        -11    1    3    3    0    0 -0.95930119920E+02  0.14259442899E+03 -0.22092225284E+03  0.27989712554E+03  0.00000000000E+00 0. -1.
          4    1    6    6  502    0 -0.12819573436E+02 -0.35164457346E+02 -0.38663147834E+02  0.53811890173E+02  0.00000000000E+00 0. -1.
          3    1    5    5  503    0  0.49570332761E+02 -0.25481060563E+02 -0.26959545591E+02  0.61913806505E+02  0.00000000000E+00 0. -1.
         -4    1    5    5    0  503  0.42634710884E+03 -0.30828284048E+02 -0.36869193054E+03  0.56449621785E+03  0.00000000000E+00 0.  1.
         -3    1    6    6    0  502 -0.34454616639E+03 -0.25572845134E+03 -0.63578459863E+03  0.76702748155E+03  0.00000000000E+00 0.  1.
<mgrwt>
<rscale>  0 0.13531592E+04</rscale>
<asrwt>0</asrwt>
<pdfrwt beam="1">  1        2 0.27410882E+00 0.13531592E+04</pdfrwt>
<pdfrwt beam="2">  1       -2 0.39526475E-01 0.13531592E+04</pdfrwt>
<totfact> 0.52220877E+01</totfact>
</mgrwt>
</event>
<event>
12    1  0.1960998E-007  0.1550419E+04  0.7818608E-02  0.8851600E-01
         -1   -1    0    0    0  501 -0.00000000000E+00  0.00000000000E+00  0.95299600098E+03  0.95299600098E+03  0.00000000000E+00 0.  1.
          1   -1    0    0  501    0  0.00000000000E+00 -0.00000000000E+00 -0.63058992943E+03  0.63058992943E+03  0.00000000000E+00 0. -1.
         23    2    1    2    0    0 -0.22189287618E+03 -0.20536762103E+03  0.52466133486E+03  0.61203426439E+03  0.88905096724E+02 0.  0.
        254    2    1    2    0    0  0.22189287618E+03  0.20536762103E+03 -0.20225526330E+03  0.97155166602E+03  0.90088464298E+03 0.  0.
        -24    2    4    4    0    0 -0.19333795548E+03 -0.47934185654E+02 -0.38971125247E+03  0.44508112498E+03  0.80901769595E+02 0.  0.
         24    2    4    4    0    0  0.41523083166E+03  0.25330180668E+03  0.18745598917E+03  0.52647054105E+03  0.73844660499E+02 0.  0.
         11    1    3    3    0    0 -0.27875694019E+02 -0.53326034826E+02  0.16827066979E+03  0.17870573191E+03  0.00000000000E+00 0.  1.
        -11    1    3    3    0    0 -0.19401718216E+03 -0.15204158620E+03  0.35639066507E+03  0.43332853247E+03  0.00000000000E+00 0. -1.
          4    1    6    6  502    0  0.24217092667E+03  0.18950035994E+03  0.11943585835E+03  0.32988190069E+03  0.00000000000E+00 0. -1.
          1    1    5    5  503    0 -0.18114497039E+03 -0.65728710878E+02 -0.36046235603E+03  0.40873814826E+03  0.00000000000E+00 0. -1.
         -2    1    5    5    0  503 -0.12192985097E+02  0.17794525224E+02 -0.29248896444E+02  0.36342976718E+02  0.00000000000E+00 0.  1.
         -3    1    6    6    0  502  0.17305990499E+03  0.63801446748E+02  0.68020130815E+02  0.19658864036E+03  0.00000000000E+00 0.  1.
<mgrwt>
<rscale>  0 0.15504189E+04</rscale>
<asrwt>0</asrwt>
<pdfrwt beam="1">  1        1 0.97013836E-01 0.15504189E+04</pdfrwt>
<pdfrwt beam="2">  1       -1 0.14661477E+00 0.15504189E+04</pdfrwt>
<totfact> 0.11384653E+01</totfact>
</mgrwt>
</event>
<event>
12    1  0.1962223E-007  0.2076438E+04  0.7818608E-02  0.8571694E-01
          2   -1    0    0  501    0  0.00000000000E+00  0.00000000000E+00  0.10800800838E+04  0.10800800838E+04  0.00000000000E+00 0. -1.
         -2   -1    0    0    0  501 -0.00000000000E+00 -0.00000000000E+00 -0.99797998796E+03  0.99797998796E+03  0.00000000000E+00 0.  1.
         23    2    1    2    0    0  0.61074211819E+03  0.49965259327E+03  0.32096300401E+03  0.85684419630E+03  0.92228400722E+02 0.  0.
        254    2    1    2    0    0 -0.61074211819E+03 -0.49965259327E+03 -0.23886290815E+03  0.12212158755E+04  0.90091846286E+03 0.  0.
        -24    2    4    4    0    0 -0.78448810983E+03 -0.32053997155E+03 -0.37018904810E+03  0.92809583627E+03  0.78450507601E+02 0.  0.
         24    2    4    4    0    0  0.17374599164E+03 -0.17911262171E+03  0.13132613995E+03  0.29312003920E+03  0.80023755730E+02 0.  0.
         13    1    3    3    0    0  0.23745553531E+03  0.24976009080E+03  0.15622751451E+03  0.37838111805E+03  0.00000000000E+00 0.  1.
        -13    1    3    3    0    0  0.37328658288E+03  0.24989250246E+03  0.16473548950E+03  0.47846307825E+03  0.00000000000E+00 0. -1.
          2    1    6    6  502    0  0.54122991386E+02 -0.11290519430E+03  0.58258119255E+02  0.13809739156E+03  0.00000000000E+00 0. -1.
          3    1    5    5  503    0 -0.13047960537E+03 -0.22845881506E+02 -0.60560367556E+02  0.14565170729E+03  0.00000000000E+00 0. -1.
         -4    1    5    5    0  503 -0.65400850446E+03 -0.29769409005E+03 -0.30962868054E+03  0.78244412898E+03  0.00000000000E+00 0.  1.
         -1    1    6    6    0  502  0.11962300025E+03 -0.66207427412E+02  0.73068020690E+02  0.15502264764E+03  0.00000000000E+00 0.  1.
<mgrwt>
<rscale>  0 0.20764376E+04</rscale>
<asrwt>0</asrwt>
<pdfrwt beam="1">  1        2 0.16616617E+00 0.20764376E+04</pdfrwt>
<pdfrwt beam="2">  1       -2 0.15353538E+00 0.20764376E+04</pdfrwt>
<totfact> 0.58276605E+00</totfact>
</mgrwt>
</event>
<event>
12    1  0.1960998E-007  0.1787541E+04  0.7818608E-02  0.8712953E-01
         -2   -1    0    0    0  501 -0.00000000000E+00  0.00000000000E+00  0.34995475911E+03  0.34995475911E+03  0.00000000000E+00 0.  1.
          2   -1    0    0  501    0  0.00000000000E+00 -0.00000000000E+00 -0.22826540820E+04  0.22826540820E+04  0.00000000000E+00 0. -1.
         23    2    1    2    0    0  0.65065552155E+03 -0.43648135688E+02 -0.55496829110E+03  0.86130615120E+03  0.92740037225E+02 0.  0.
        254    2    1    2    0    0 -0.65065552155E+03  0.43648135688E+02 -0.13777310318E+04  0.17713026899E+04  0.90228191595E+03 0.  0.
        -24    2    4    4    0    0  0.97057189261E+02  0.23921060700E+03 -0.66149920112E+03  0.71455931194E+03  0.79824837651E+02 0.  0.
         24    2    4    4    0    0 -0.74771271081E+03 -0.19556247131E+03 -0.71623183065E+03  0.10567433780E+04  0.79997209497E+02 0.  0.
         13    1    3    3    0    0  0.11678422460E+03  0.26741128735E+02 -0.11251217364E+03  0.16435520162E+03  0.00000000000E+00 0. -1.
        -13    1    3    3    0    0  0.53387129695E+03 -0.70389264423E+02 -0.44245611746E+03  0.69695094959E+03  0.00000000000E+00 0.  1.
          4    1    6    6  502    0 -0.25609575158E+03 -0.63152637975E+02 -0.29699017782E+03  0.39721084499E+03  0.00000000000E+00 0. -1.
          3    1    5    5  503    0  0.74390706539E+02  0.79875293540E+02 -0.27782629763E+03  0.29849872930E+03  0.00000000000E+00 0. -1.
         -4    1    5    5    0  503  0.22666482722E+02  0.15933531346E+03 -0.38367290349E+03  0.41606058264E+03  0.00000000000E+00 0.  1.
         -3    1    6    6    0  502 -0.49161695923E+03 -0.13240983334E+03 -0.41924165283E+03  0.65953253296E+03  0.00000000000E+00 0.  1.
<mgrwt>
<rscale>  0 0.17875409E+04</rscale>
<asrwt>0</asrwt>
<pdfrwt beam="1">  1        2 0.35117754E+00 0.17875409E+04</pdfrwt>
<pdfrwt beam="2">  1       -2 0.53839196E-01 0.17875409E+04</pdfrwt>
<totfact> 0.14249653E+01</totfact>
</mgrwt>
</event>
<event>
12    1  0.1960998E-007  0.2361315E+04  0.7818608E-02  0.8454130E-01
         -2   -1    0    0    0  501 -0.00000000000E+00  0.00000000000E+00  0.74182079888E+03  0.74182079888E+03  0.00000000000E+00 0.  1.
          2   -1    0    0  501    0  0.00000000000E+00 -0.00000000000E+00 -0.18790961425E+04  0.18790961425E+04  0.00000000000E+00 0. -1.
         23    2    1    2    0    0  0.10986756931E+03 -0.97090587004E+03 -0.21822518064E+03  0.10051875747E+04  0.89725914315E+02 0.  0.
        254    2    1    2    0    0 -0.10986756931E+03  0.97090587004E+03 -0.91905016294E+03  0.16157293666E+04  0.90066591629E+03 0.  0.
        -24    2    4    4    0    0  0.35154424518E+03  0.69862659604E+03 -0.57692877628E+03  0.97503703987E+03  0.78663455277E+02 0.  0.
         24    2    4    4    0    0 -0.46141181448E+03  0.27227927400E+03 -0.34212138666E+03  0.64069232671E+03  0.80017177580E+02 0.  0.
         11    1    3    3    0    0 -0.40248044930E+01 -0.26017665484E+03 -0.36033328044E+02  0.26269086681E+03  0.00000000000E+00 0. -1.
        -11    1    3    3    0    0  0.11389237380E+03 -0.71072921520E+03 -0.18219185259E+03  0.74249670794E+03  0.00000000000E+00 0.  1.
          4    1    6    6  502    0 -0.42535696437E+03  0.22641410578E+03 -0.28959130911E+03  0.56218770953E+03  0.00000000000E+00 0. -1.
          1    1    5    5  503    0  0.31087405517E+03  0.57175273453E+03 -0.45177070639E+03  0.79223774132E+03  0.00000000000E+00 0. -1.
         -2    1    5    5    0  503  0.40670190006E+02  0.12687386151E+03 -0.12515806989E+03  0.18279929854E+03  0.00000000000E+00 0.  1.
         -3    1    6    6    0  502 -0.36054850116E+02  0.45865168214E+02 -0.52530077546E+02  0.78504617184E+02  0.00000000000E+00 0.  1.
<mgrwt>
<rscale>  0 0.23613154E+04</rscale>
<asrwt>0</asrwt>
<pdfrwt beam="1">  1        2 0.28909171E+00 0.23613154E+04</pdfrwt>
<pdfrwt beam="2">  1       -2 0.11412628E+00 0.23613154E+04</pdfrwt>
<totfact> 0.42265501E+00</totfact>
</mgrwt>
</event>
<event>
12    1  0.1960998E-007  0.2334959E+04  0.7818608E-02  0.8464263E-01
          2   -1    0    0  501    0  0.00000000000E+00  0.00000000000E+00  0.17164564258E+04  0.17164564258E+04  0.00000000000E+00 0. -1.
         -2   -1    0    0    0  501 -0.00000000000E+00 -0.00000000000E+00 -0.79408291174E+03  0.79408291174E+03  0.00000000000E+00 0.  1.
         23    2    1    2    0    0 -0.37648341995E+02 -0.89828272934E+03 -0.52620623359E+02  0.90540434594E+03  0.93052889014E+02 0.  0.
        254    2    1    2    0    0  0.37648341995E+02  0.89828272934E+03  0.97499413739E+03  0.16051349916E+04  0.90416564508E+03 0.  0.
        -24    2    4    4    0    0 -0.21674396672E+03  0.96836362375E+03  0.72596772432E+03  0.12322698754E+04  0.82181835257E+02 0.  0.
         24    2    4    4    0    0  0.25439230872E+03 -0.70080894408E+02  0.24902641307E+03  0.37286511622E+03  0.85950346064E+02 0.  0.
         11    1    3    3    0    0 -0.57257761925E+02 -0.31076204160E+03 -0.22098852780E+02  0.31676467147E+03  0.00000000000E+00 0.  1.
        -11    1    3    3    0    0  0.19609419930E+02 -0.58752068774E+03 -0.30521770579E+02  0.58863967446E+03  0.00000000000E+00 0. -1.
          4    1    6    6  502    0  0.13650408202E+03 -0.75807363901E+02  0.11281892033E+03  0.19263496467E+03  0.00000000000E+00 0. -1.
          3    1    5    5  503    0 -0.20918086366E+03  0.96465850327E+03  0.71727443547E+03  0.12201660860E+04  0.00000000000E+00 0. -1.
         -4    1    5    5    0  503 -0.75631030625E+01  0.37051204798E+01  0.86932888513E+01  0.12103789355E+02  0.00000000000E+00 0.  1.
         -3    1    6    6    0  502  0.11788822670E+03  0.57264694927E+01  0.13620749274E+03  0.18023015155E+03  0.00000000000E+00 0.  1.
<mgrwt>
<rscale>  0 0.23349593E+04</rscale>
<asrwt>0</asrwt>
<pdfrwt beam="1">  1        2 0.26407022E+00 0.23349593E+04</pdfrwt>
<pdfrwt beam="2">  1       -2 0.12216660E+00 0.23349593E+04</pdfrwt>
<totfact> 0.44088493E+00</totfact>
</mgrwt>
</event>
<event>
12    1  0.1960998E-007  0.1826557E+04  0.7818608E-02  0.8692303E-01
          2   -1    0    0  501    0  0.00000000000E+00  0.00000000000E+00  0.26684669431E+04  0.26684669431E+04  0.00000000000E+00 0. -1.
         -2   -1    0    0    0  501 -0.00000000000E+00 -0.00000000000E+00 -0.31256811509E+03  0.31256811509E+03  0.00000000000E+00 0.  1.
         23    2    1    2    0    0 -0.57820282004E+03  0.22765157815E+03  0.41739911435E+03  0.75464810465E+03  0.95540562363E+02 0.  0.
        254    2    1    2    0    0  0.57820282004E+03 -0.22765157815E+03  0.19384997137E+04  0.22263869536E+04  0.90159524451E+03 0.  0.
        -24    2    4    4    0    0  0.72479016450E+03 -0.44479498018E+01  0.17345887666E+04  0.18816453610E+04  0.80315056766E+02 0.  0.
         24    2    4    4    0    0 -0.14658734447E+03 -0.22320362834E+03  0.20391094704E+03  0.34474159258E+03  0.77197034053E+02 0.  0.
         11    1    3    3    0    0 -0.14434885265E+03  0.30225128978E+02  0.61550566582E+02  0.15980807842E+03  0.00000000000E+00 0.  1.
        -11    1    3    3    0    0 -0.43385396739E+03  0.19742644917E+03  0.35584854777E+03  0.59484002622E+03  0.00000000000E+00 0. -1.
          4    1    6    6  502    0 -0.19971861093E+02 -0.89104263717E+02  0.88585676235E+02  0.12722368915E+03  0.00000000000E+00 0. -1.
          1    1    5    5  503    0  0.23736275620E+03  0.31289023139E+02  0.52293531847E+03  0.57513600853E+03  0.00000000000E+00 0. -1.
         -2    1    5    5    0  503  0.48742740831E+03 -0.35736972941E+02  0.12116534482E+04  0.13065093524E+04  0.00000000000E+00 0.  1.
         -3    1    6    6    0  502 -0.12661548338E+03 -0.13409936463E+03  0.11532527081E+03  0.21751790343E+03  0.00000000000E+00 0.  1.
<mgrwt>
<rscale>  0 0.18265571E+04</rscale>
<asrwt>0</asrwt>
<pdfrwt beam="1">  1        2 0.41053336E+00 0.18265571E+04</pdfrwt>
<pdfrwt beam="2">  1       -2 0.48087404E-01 0.18265571E+04</pdfrwt>
<totfact> 0.10720395E+01</totfact>
</mgrwt>
</event>
<event>
12    1  0.1960998E-007  0.2393985E+04  0.7818608E-02  0.8441759E-01
         -2   -1    0    0    0  501 -0.00000000000E+00  0.00000000000E+00  0.56845924526E+03  0.56845924526E+03  0.00000000000E+00 0.  1.
          2   -1    0    0  501    0  0.00000000000E+00 -0.00000000000E+00 -0.25204807687E+04  0.25204807687E+04  0.00000000000E+00 0. -1.
         23    2    1    2    0    0  0.66899390947E+03 -0.29505525582E+03 -0.17656797283E+04  0.19133080806E+04  0.92262957335E+02 0.  0.
        254    2    1    2    0    0 -0.66899390947E+03  0.29505525582E+03 -0.18634179512E+03  0.11756319334E+04  0.90154130427E+03 0.  0.
        -24    2    4    4    0    0 -0.56236711098E+03  0.58969103077E+03 -0.22733637556E+03  0.84960147660E+03  0.78412767532E+02 0.  0.
         24    2    4    4    0    0 -0.10662679849E+03 -0.29463577496E+03  0.40994580434E+02  0.32603045678E+03  0.80223369939E+02 0.  0.
         13    1    3    3    0    0  0.33712717168E+03 -0.18915650332E+03 -0.99965242173E+03  0.10717928330E+04  0.00000000000E+00 0.  1.
        -13    1    3    3    0    0  0.33186673778E+03 -0.10589875249E+03 -0.76602730658E+03  0.84151524755E+03  0.00000000000E+00 0. -1.
          4    1    6    6  502    0 -0.69684996765E+01 -0.11011062449E+03 -0.81515892827E+01  0.11063163210E+03  0.00000000000E+00 0. -1.
          1    1    5    5  503    0 -0.33576910184E+03  0.34914878069E+03 -0.95035961081E+02  0.49363710832E+03  0.00000000000E+00 0. -1.
         -2    1    5    5    0  503 -0.22659800914E+03  0.24054225008E+03 -0.13230041447E+03  0.35596436829E+03  0.00000000000E+00 0.  1.
         -3    1    6    6    0  502 -0.99658298809E+02 -0.18452515047E+03  0.49146169716E+02  0.21539882468E+03  0.00000000000E+00 0.  1.
<mgrwt>
<rscale>  0 0.23939846E+04</rscale>
<asrwt>0</asrwt>
<pdfrwt beam="1">  1        2 0.38776626E+00 0.23939846E+04</pdfrwt>
<pdfrwt beam="2">  1       -2 0.87455271E-01 0.23939846E+04</pdfrwt>
<totfact> 0.34398300E+00</totfact>
</mgrwt>
</event>
<event>
12    1  0.1960998E-007  0.2772263E+04  0.7818608E-02  0.8311932E-01
          1   -1    0    0  501    0  0.00000000000E+00  0.00000000000E+00  0.18048136576E+04  0.18048136576E+04  0.00000000000E+00 0. -1.
         -1   -1    0    0    0  501 -0.00000000000E+00 -0.00000000000E+00 -0.10645753110E+04  0.10645753110E+04  0.00000000000E+00 0.  1.
         23    2    1    2    0    0  0.85121913578E+03 -0.89705322662E+03  0.27153541183E+03  0.12695142897E+04  0.93040546926E+02 0.  0.
        254    2    1    2    0    0 -0.85121913578E+03  0.89705322662E+03  0.46870293476E+03  0.15998746790E+04  0.90035439628E+03 0.  0.
        -24    2    4    4    0    0  0.16331060682E+03  0.28239776724E+03  0.51354180619E+02  0.33991071211E+03  0.80518240812E+02 0.  0.
         24    2    4    4    0    0 -0.10145297426E+04  0.61465545938E+03  0.41734875414E+03  0.12599639669E+04  0.79102988956E+02 0.  0.
         13    1    3    3    0    0  0.34148888100E+03 -0.34895403822E+03  0.61433372135E+02  0.49209514918E+03  0.00000000000E+00 0. -1.
        -13    1    3    3    0    0  0.50973025478E+03 -0.54809918840E+03  0.21010203969E+03  0.77741914052E+03  0.00000000000E+00 0.  1.
          2    1    6    6  502    0 -0.73382764720E+03  0.40694127361E+03  0.27751402054E+03  0.88380894291E+03  0.00000000000E+00 0. -1.
          3    1    5    5  503    0  0.15230827438E+03  0.28395683329E+03  0.41183505681E+02  0.32484669423E+03  0.00000000000E+00 0. -1.
         -4    1    5    5    0  503  0.11002332436E+02 -0.15590660494E+01  0.10170674938E+02  0.15064017880E+02  0.00000000000E+00 0.  1.
         -1    1    6    6    0  502 -0.28070209539E+03  0.20771418578E+03  0.13983473360E+03  0.37615502396E+03  0.00000000000E+00 0.  1.
<mgrwt>
<rscale>  0 0.27722627E+04</rscale>
<asrwt>0</asrwt>
<pdfrwt beam="1">  1        1 0.27766364E+00 0.27722627E+04</pdfrwt>
<pdfrwt beam="2">  1       -1 0.16378082E+00 0.27722627E+04</pdfrwt>
<totfact> 0.96026738E-01</totfact>
</mgrwt>
</event>
<event>
12    1  0.1960998E-007  0.2276785E+04  0.7818608E-02  0.8487131E-01
          1   -1    0    0  501    0  0.00000000000E+00  0.00000000000E+00  0.32549313367E+04  0.32549313367E+04  0.00000000000E+00 0. -1.
         -1   -1    0    0    0  501 -0.00000000000E+00 -0.00000000000E+00 -0.39814574523E+03  0.39814574523E+03  0.00000000000E+00 0.  1.
         23    2    1    2    0    0  0.87952410747E+03 -0.24963846462E+03  0.16687562026E+04  0.19049445363E+04  0.90467695874E+02 0.  0.
        254    2    1    2    0    0 -0.87952410747E+03  0.24963846462E+03  0.11880293888E+04  0.17481325456E+04  0.89926166913E+03 0.  0.
        -24    2    4    4    0    0 -0.20216911064E+02  0.83473024939E+02  0.76300135574E+03  0.77195188448E+03  0.79763235301E+02 0.  0.
         24    2    4    4    0    0 -0.85930719641E+03  0.16616543968E+03  0.42502803306E+03  0.97618066109E+03  0.79120433835E+02 0.  0.
         11    1    3    3    0    0  0.12483521666E+03 -0.12174050298E+02  0.27591095377E+03  0.30308232088E+03  0.00000000000E+00 0. -1.
        -11    1    3    3    0    0  0.75468889082E+03 -0.23746441432E+03  0.13928452489E+04  0.16018622154E+04  0.00000000000E+00 0.  1.
          2    1    6    6  502    0 -0.62376619857E+02 -0.78882838674E+01  0.25064575592E+02  0.67685306210E+02  0.00000000000E+00 0. -1.
          3    1    5    5  503    0  0.79312905548E+01  0.66569224542E+01  0.95953247892E+01  0.14117019665E+02  0.00000000000E+00 0. -1.
         -4    1    5    5    0  503 -0.28148201619E+02  0.76816102484E+02  0.75340603095E+03  0.75783486482E+03  0.00000000000E+00 0.  1.
         -1    1    6    6    0  502 -0.79693057655E+03  0.17405372354E+03  0.39996345747E+03  0.90849535488E+03  0.00000000000E+00 0.  1.
<mgrwt>
<rscale>  0 0.22767846E+04</rscale>
<asrwt>0</asrwt>
<pdfrwt beam="1">  1        1 0.50075865E+00 0.22767846E+04</pdfrwt>
<pdfrwt beam="2">  1       -1 0.61253194E-01 0.22767846E+04</pdfrwt>
<totfact> 0.94729402E-01</totfact>
</mgrwt>
</event>
<event>
12    1  0.1960998E-007  0.1113901E+04  0.7818608E-02  0.9191748E-01
         -2   -1    0    0    0  501 -0.00000000000E+00  0.00000000000E+00  0.47625240922E+03  0.47625240922E+03  0.00000000000E+00 0.  1.
          2   -1    0    0  501    0  0.00000000000E+00 -0.00000000000E+00 -0.65132252668E+03  0.65132252668E+03  0.00000000000E+00 0. -1.
         23    2    1    2    0    0  0.15989995883E+03 -0.74038293926E+02 -0.28473305916E+02  0.19973883319E+03  0.89639313539E+02 0.  0.
        254    2    1    2    0    0 -0.15989995883E+03  0.74038293926E+02 -0.14659681155E+03  0.92783610272E+03  0.89907705039E+03 0.  0.
        -24    2    4    4    0    0 -0.72513825194E+02 -0.39083022894E+03 -0.18760849637E+03  0.44632747250E+03  0.77490271003E+02 0.  0.
         24    2    4    4    0    0 -0.87386133640E+02  0.46486852286E+03  0.41011684825E+02  0.48150863022E+03  0.80184305074E+02 0.  0.
         11    1    3    3    0    0  0.10684433030E+03 -0.86685722576E+02  0.13132680251E+01  0.13759305974E+03  0.00000000000E+00 0.  1.
        -11    1    3    3    0    0  0.53055628530E+02  0.12647428649E+02 -0.29786573942E+02  0.62145773447E+02  0.00000000000E+00 0. -1.
          4    1    6    6  502    0 -0.58185822401E+02  0.17249432357E+03  0.45507677726E+02  0.18764549108E+03  0.00000000000E+00 0. -1.
          1    1    5    5  503    0  0.47950847031E+01 -0.80720845132E+02 -0.65979136041E+02  0.10436519568E+03  0.00000000000E+00 0. -1.
         -2    1    5    5    0  503 -0.77308909897E+02 -0.31010938381E+03 -0.12162936033E+03  0.34196227682E+03  0.00000000000E+00 0.  1.
         -3    1    6    6    0  502 -0.29200311239E+02  0.29237419930E+03 -0.44959929014E+01  0.29386313914E+03  0.00000000000E+00 0.  1.
<mgrwt>
<rscale>  0 0.11139011E+04</rscale>
<asrwt>0</asrwt>
<pdfrwt beam="1">  1        2 0.10020347E+00 0.11139011E+04</pdfrwt>
<pdfrwt beam="2">  1       -2 0.73269602E-01 0.11139011E+04</pdfrwt>
<totfact> 0.74860492E+01</totfact>
</mgrwt>
</event>
<event>
12    1  0.1960998E-007  0.1983083E+04  0.7818608E-02  0.8614571E-01
         -2   -1    0    0    0  501 -0.00000000000E+00  0.00000000000E+00  0.44259226230E+03  0.44259226230E+03  0.00000000000E+00 0.  1.
          2   -1    0    0  501    0  0.00000000000E+00 -0.00000000000E+00 -0.22213555385E+04  0.22213555385E+04  0.00000000000E+00 0. -1.
         23    2    1    2    0    0 -0.59733450240E+03  0.48337647544E+03 -0.50838608343E+03  0.92523700404E+03  0.84532709900E+02 0.  0.
        254    2    1    2    0    0  0.59733450240E+03 -0.48337647544E+03 -0.12703771928E+04  0.17387107968E+04  0.90487330501E+03 0.  0.
        -24    2    4    4    0    0  0.30280136546E+03  0.92763145551E+02 -0.96566015766E+03  0.10190315096E+04  0.75046715253E+02 0.  0.
         24    2    4    4    0    0  0.29453313694E+03 -0.57613962099E+03 -0.30471703510E+03  0.71967928712E+03  0.79994832258E+02 0.  0.
         13    1    3    3    0    0 -0.19373425130E+03  0.20566772739E+03 -0.20348308805E+03  0.34819181688E+03  0.00000000000E+00 0. -1.
        -13    1    3    3    0    0 -0.40360025110E+03  0.27770874805E+03 -0.30490299538E+03  0.57704518716E+03  0.00000000000E+00 0.  1.
          2    1    6    6  502    0  0.21434630525E+03 -0.45940665416E+03 -0.26774584749E+03  0.57331200171E+03  0.00000000000E+00 0. -1.
          1    1    5    5  503    0  0.12277088153E+03  0.49736747683E+02 -0.29653482241E+03  0.32477582164E+03  0.00000000000E+00 0. -1.
         -2    1    5    5    0  503  0.18003048393E+03  0.43026397867E+02 -0.66912533524E+03  0.69425568800E+03  0.00000000000E+00 0.  1.
         -1    1    6    6    0  502  0.80186831695E+02 -0.11673296684E+03 -0.36971187611E+02  0.14636728541E+03  0.00000000000E+00 0.  1.
<mgrwt>
<rscale>  0 0.19830832E+04</rscale>
<asrwt>0</asrwt>
<pdfrwt beam="1">  1        2 0.34174701E+00 0.19830832E+04</pdfrwt>
<pdfrwt beam="2">  1       -2 0.68091116E-01 0.19830832E+04</pdfrwt>
<totfact> 0.92266657E+00</totfact>
</mgrwt>
</event>
<event>
12    1  0.1960998E-007  0.2880738E+04  0.7818608E-02  0.8278632E-01
         -1   -1    0    0    0  501 -0.00000000000E+00  0.00000000000E+00  0.11862725222E+04  0.11862725222E+04  0.00000000000E+00 0. -1.
          1   -1    0    0  501    0  0.00000000000E+00 -0.00000000000E+00 -0.17488920212E+04  0.17488920212E+04  0.00000000000E+00 0.  1.
         23    2    1    2    0    0  0.76166553111E+03  0.92637967261E+03  0.25180174830E+03  0.12288069476E+04  0.90822435570E+02 0.  0.
        254    2    1    2    0    0 -0.76166553111E+03 -0.92637967261E+03 -0.81442124731E+03  0.17063575958E+04  0.90003366465E+03 0.  0.
        -24    2    4    4    0    0 -0.60170956094E+02 -0.50713272026E+03  0.43355621711E+02  0.51893721380E+03  0.81314094770E+02 0.  0.
         24    2    4    4    0    0 -0.70149457501E+03 -0.41924695235E+03 -0.85777686902E+03  0.11874203820E+04  0.79519561779E+02 0.  0.
         11    1    3    3    0    0  0.33350972733E+03  0.35100521087E+03  0.13008603752E+03  0.50135394028E+03  0.00000000000E+00 0. -1.
        -11    1    3    3    0    0  0.42815580378E+03  0.57537446174E+03  0.12171571077E+03  0.72745300727E+03  0.00000000000E+00 0.  1.
          2    1    6    6  502    0 -0.59876379065E+03 -0.32854656774E+03 -0.69107184416E+03  0.97161783534E+03  0.00000000000E+00 0. -1.
          3    1    5    5  503    0 -0.42120837922E+02 -0.30912478591E+03 -0.13075983524E+02  0.31225515143E+03  0.00000000000E+00 0. -1.
         -4    1    5    5    0  503 -0.18050118171E+02 -0.19800793436E+03  0.56431605235E+02  0.20668206237E+03  0.00000000000E+00 0.  1.
         -1    1    6    6    0  502 -0.10273078436E+03 -0.90700384610E+02 -0.16670502486E+03  0.21580254664E+03  0.00000000000E+00 0.  1.
<mgrwt>
<rscale>  0 0.28807378E+04</rscale>
<asrwt>0</asrwt>
<pdfrwt beam="1">  1        1 0.26906031E+00 0.28807378E+04</pdfrwt>
<pdfrwt beam="2">  1       -1 0.18250347E+00 0.28807378E+04</pdfrwt>
<totfact> 0.75780598E-01</totfact>
</mgrwt>
</event>
<event>
12    1  0.1960998E-007  0.1851468E+04  0.7818608E-02  0.8679398E-01
         -2   -1    0    0    0  501 -0.00000000000E+00  0.00000000000E+00  0.24090527892E+04  0.24090527892E+04  0.00000000000E+00 0.  1.
          2   -1    0    0  501    0  0.00000000000E+00 -0.00000000000E+00 -0.35573457365E+03  0.35573457365E+03  0.00000000000E+00 0. -1.
         23    2    1    2    0    0  0.36167583376E+03 -0.10140663044E+03  0.16818542467E+04  0.17256887472E+04  0.90968300262E+02 0.  0.
        254    2    1    2    0    0 -0.36167583376E+03  0.10140663044E+03  0.37146396884E+03  0.10390986156E+04  0.89478921509E+03 0.  0.
        -24    2    4    4    0    0 -0.21927066306E+03  0.16394070389E+03 -0.25823014662E+03  0.38497253544E+03  0.81023862838E+02 0.  0.
         24    2    4    4    0    0 -0.14240517070E+03 -0.62534073455E+02  0.62969411546E+03  0.65412608019E+03  0.84714265373E+02 0.  0.
         11    1    3    3    0    0  0.13042376176E+03 -0.99722894343E+01  0.43336841880E+03  0.45267868361E+03  0.00000000000E+00 0. -1.
        -11    1    3    3    0    0  0.23125207200E+03 -0.91434341001E+02  0.12484858279E+04  0.12730100636E+04  0.00000000000E+00 0.  1.
          2    1    6    6  502    0 -0.12296128807E+03 -0.77228826187E+02  0.58950518922E+03  0.60712448318E+03  0.00000000000E+00 0. -1.
          1    1    5    5  503    0 -0.16718970751E+03  0.15653080826E+03 -0.18293102825E+03  0.29311781476E+03  0.00000000000E+00 0. -1.
         -2    1    5    5    0  503 -0.52080955553E+02  0.74098956261E+01 -0.75299118363E+02  0.91854720678E+02  0.00000000000E+00 0.  1.
         -1    1    6    6    0  502 -0.19443882626E+02  0.14694752732E+02  0.40188926243E+02  0.47001597016E+02  0.00000000000E+00 0.  1.
<mgrwt>
<rscale>  0 0.18514679E+04</rscale>
<asrwt>0</asrwt>
<pdfrwt beam="1">  1        2 0.54728397E-01 0.18514679E+04</pdfrwt>
<pdfrwt beam="2">  1       -2 0.37062350E+00 0.18514679E+04</pdfrwt>
<totfact> 0.98519997E-01</totfact>
</mgrwt>
</event>
<event>
12    1  0.1960998E-007  0.1413123E+04  0.7818608E-02  0.8944374E-01
          1   -1    0    0  501    0  0.00000000000E+00  0.00000000000E+00  0.63167643869E+03  0.63167643869E+03  0.00000000000E+00 0. -1.
         -1   -1    0    0    0  501 -0.00000000000E+00 -0.00000000000E+00 -0.79032401186E+03  0.79032401186E+03  0.00000000000E+00 0.  1.
         23    2    1    2    0    0  0.16784860221E+03  0.36685335019E+03  0.36153832540E+02  0.41544167939E+03  0.92358841226E+02 0.  0.
        254    2    1    2    0    0 -0.16784860221E+03 -0.36685335019E+03 -0.19480140571E+03  0.10065587712E+04  0.90136476431E+03 0.  0.
        -24    2    4    4    0    0 -0.31005166110E+03 -0.32176334706E+03  0.25842892657E+03  0.52254902865E+03  0.81291409057E+02 0.  0.
         24    2    4    4    0    0  0.14220305890E+03 -0.45090003132E+02 -0.45323033228E+03  0.48400974252E+03  0.81196541878E+02 0.  0.
         11    1    3    3    0    0  0.46624727063E+01  0.10467350944E+03  0.26295273093E+01  0.10481028883E+03  0.00000000000E+00 0. -1.
        -11    1    3    3    0    0  0.16318612950E+03  0.26217984075E+03  0.33524305231E+02  0.31063139056E+03  0.00000000000E+00 0.  1.
          4    1    6    6  502    0  0.11195177410E+03 -0.33264853449E+02 -0.42570593478E+03  0.44143549144E+03  0.00000000000E+00 0. -1.
          3    1    5    5  503    0 -0.26908301182E+03 -0.23924573059E+03  0.22479936228E+03  0.42447489930E+03  0.00000000000E+00 0. -1.
         -4    1    5    5    0  503 -0.40968649278E+02 -0.82517616473E+02  0.33629564291E+02  0.98074129343E+02  0.00000000000E+00 0.  1.
         -3    1    6    6    0  502  0.30251284801E+02 -0.11825149683E+02 -0.27524397505E+02  0.42574251081E+02  0.00000000000E+00 0.  1.
<mgrwt>
<rscale>  0 0.14131229E+04</rscale>
<asrwt>0</asrwt>
<pdfrwt beam="1">  1        1 0.97180991E-01 0.14131229E+04</pdfrwt>
<pdfrwt beam="2">  1       -1 0.12158831E+00 0.14131229E+04</pdfrwt>
<totfact> 0.18555090E+01</totfact>
</mgrwt>
</event>
<event>
12    1  0.1960998E-007  0.1688015E+04  0.7818608E-02  0.8768230E-01
          2   -1    0    0  501    0  0.00000000000E+00  0.00000000000E+00  0.11203664803E+04  0.11203664803E+04  0.00000000000E+00 0. -1.
         -2   -1    0    0    0  501 -0.00000000000E+00 -0.00000000000E+00 -0.63581736030E+03  0.63581736030E+03  0.00000000000E+00 0.  1.
         23    2    1    2    0    0  0.58292910753E+03 -0.56628386509E+02  0.32972879515E+02  0.59373788521E+03  0.91784241523E+02 0.  0.
        254    2    1    2    0    0 -0.58292910753E+03  0.56628386509E+02  0.45157624044E+03  0.11624459554E+04  0.89685359988E+03 0.  0.
        -24    2    4    4    0    0  0.15660896186E+03 -0.65826705073E+02 -0.11359567340E+03  0.22036634791E+03  0.82448943241E+02 0.  0.
         24    2    4    4    0    0 -0.73953806938E+03  0.12245509158E+03  0.56517191384E+03  0.94207960744E+03  0.78631348982E+02 0.  0.
         13    1    3    3    0    0  0.18080117893E+03  0.23969843922E+01 -0.27265997029E+02  0.18286127646E+03  0.00000000000E+00 0.  1.
        -13    1    3    3    0    0  0.40212792860E+03 -0.59025370902E+02  0.60238876545E+02  0.41087660875E+03  0.00000000000E+00 0. -1.
          4    1    6    6  502    0 -0.23455099167E+03  0.15640403552E+02  0.14206166823E+03  0.27466399017E+03  0.00000000000E+00 0. -1.
          1    1    5    5  503    0  0.50473290264E+02 -0.68201094103E+01  0.43025985460E+01  0.51113396255E+02  0.00000000000E+00 0. -1.
         -2    1    5    5    0  503  0.10613567159E+03 -0.59006595663E+02 -0.11789827195E+03  0.16925295165E+03  0.00000000000E+00 0.  1.
         -3    1    6    6    0  502 -0.50498707771E+03  0.10681468803E+03  0.42311024561E+03  0.66741561727E+03  0.00000000000E+00 0.  1.
<mgrwt>
<rscale>  0 0.16880148E+04</rscale>
<asrwt>0</asrwt>
<pdfrwt beam="1">  1        2 0.17236407E+00 0.16880148E+04</pdfrwt>
<pdfrwt beam="2">  1       -2 0.97818055E-01 0.16880148E+04</pdfrwt>
<totfact> 0.17545925E+01</totfact>
</mgrwt>
</event>
<event>
12    1  0.1960998E-007  0.1821205E+04  0.7818608E-02  0.8695103E-01
          1   -1    0    0  501    0  0.00000000000E+00  0.00000000000E+00  0.32759505435E+04  0.32759505435E+04  0.00000000000E+00 0. -1.
         -1   -1    0    0    0  501 -0.00000000000E+00 -0.00000000000E+00 -0.25311653104E+03  0.25311653104E+03  0.00000000000E+00 0.  1.
         23    2    1    2    0    0 -0.48634915129E+03  0.16187988333E+03  0.26728793810E+03  0.58533612698E+03  0.91841962700E+02 0.  0.
        254    2    1    2    0    0  0.48634915129E+03 -0.16187988333E+03  0.27555460744E+04  0.29437309476E+04  0.89987617486E+03 0.  0.
        -24    2    4    4    0    0 -0.18679183387E+03 -0.27215525202E+03  0.11181168610E+04  0.11681217104E+04  0.73234861556E+02 0.  0.
         24    2    4    4    0    0  0.67314098516E+03  0.11027536869E+03  0.16374292134E+04  0.17756092372E+04  0.79588263098E+02 0.  0.
         13    1    3    3    0    0 -0.10610011706E+03  0.11711899260E+02  0.90407172634E+02  0.13988516822E+03  0.00000000000E+00 0. -1.
        -13    1    3    3    0    0 -0.38024903422E+03  0.15016798407E+03  0.17688076546E+03  0.44545095876E+03  0.00000000000E+00 0.  1.
          4    1    6    6  502    0  0.30578729041E+03  0.40736696083E+02  0.64165655825E+03  0.71196101307E+03  0.00000000000E+00 0. -1.
          1    1    5    5  503    0 -0.12158844218E+03 -0.13849199880E+03  0.71753965288E+03  0.74082854727E+03  0.00000000000E+00 0. -1.
         -2    1    5    5    0  503 -0.65203391689E+02 -0.13366325322E+03  0.40057720814E+03  0.42729316309E+03  0.00000000000E+00 0.  1.
         -3    1    6    6    0  502  0.36735369476E+03  0.69538672606E+02  0.99577265511E+03  0.10636482241E+04  0.00000000000E+00 0.  1.
<mgrwt>
<rscale>  0 0.18212054E+04</rscale>
<asrwt>0</asrwt>
<pdfrwt beam="1">  1        1 0.50399236E+00 0.18212054E+04</pdfrwt>
<pdfrwt beam="2">  1       -1 0.38941007E-01 0.18212054E+04</pdfrwt>
<totfact> 0.22549338E+00</totfact>
</mgrwt>
</event>
<event>
12    1  0.1960998E-007  0.1599289E+04  0.7818608E-02  0.8820985E-01
          2   -1    0    0  501    0  0.00000000000E+00  0.00000000000E+00  0.19862916454E+04  0.19862916454E+04  0.00000000000E+00 0.  1.
         -2   -1    0    0    0  501 -0.00000000000E+00 -0.00000000000E+00 -0.32192219064E+03  0.32192219064E+03  0.00000000000E+00 0. -1.
         23    2    1    2    0    0  0.87903770188E+02  0.26323538579E+03  0.12458776481E+04  0.12796836684E+04  0.91428858450E+02 0.  0.
        254    2    1    2    0    0 -0.87903770188E+02 -0.26323538579E+03  0.41849180670E+03  0.10285301676E+04  0.89761850039E+03 0.  0.
        -24    2    4    4    0    0  0.29015680800E+03  0.59698843163E+02  0.42637415741E+03  0.52476196890E+03  0.76323500945E+02 0.  0.
         24    2    4    4    0    0 -0.37806057819E+03 -0.32293422896E+03 -0.78823507145E+01  0.50376819869E+03  0.80647067841E+02 0.  0.
         13    1    3    3    0    0  0.27255698786E+02  0.20080892007E+03  0.94417252951E+03  0.96567533932E+03  0.00000000000E+00 0.  1.
        -13    1    3    3    0    0  0.60648071402E+02  0.62426465725E+02  0.30170511855E+03  0.31400832910E+03  0.00000000000E+00 0. -1.
          4    1    6    6  502    0  0.12293492305E+01 -0.46538152047E+01  0.68939920235E+01  0.84081164068E+01  0.00000000000E+00 0. -1.
          1    1    5    5  503    0  0.86864938616E+02  0.43683261821E+02  0.96794103026E+02  0.13719636768E+03  0.00000000000E+00 0. -1.
         -2    1    5    5    0  503  0.20329186938E+03  0.16015581342E+02  0.32958005438E+03  0.38756560122E+03  0.00000000000E+00 0.  1.
         -3    1    6    6    0  502 -0.37928992742E+03 -0.31828041375E+03 -0.14776342738E+02  0.49536008229E+03  0.00000000000E+00 0.  1.
<mgrwt>
<rscale>  0 0.15992890E+04</rscale>
<asrwt>0</asrwt>
<pdfrwt beam="1">  1        2 0.30558332E+00 0.15992890E+04</pdfrwt>
<pdfrwt beam="2">  1       -2 0.49526492E-01 0.15992890E+04</pdfrwt>
<totfact> 0.25165049E+01</totfact>
</mgrwt>
</event>
<event>
12    1  0.1960998E-007  0.1905555E+04  0.7818608E-02  0.8652096E-01
         -1   -1    0    0    0  501 -0.00000000000E+00  0.00000000000E+00  0.82025435092E+03  0.82025435092E+03  0.00000000000E+00 0.  1.
          1   -1    0    0  501    0  0.00000000000E+00 -0.00000000000E+00 -0.11067121292E+04  0.11067121292E+04  0.00000000000E+00 0. -1.
         23    2    1    2    0    0  0.41072952026E+01  0.47712893335E+02 -0.85476104615E+03  0.86005561363E+03  0.82376103706E+02 0.  0.
        254    2    1    2    0    0 -0.41072952026E+01 -0.47712893335E+02  0.56830326792E+03  0.10669108664E+04  0.90168553418E+03 0.  0.
        -24    2    4    4    0    0 -0.28115183644E+03  0.17638663752E+02 -0.12115569682E+03  0.31677656332E+03  0.79443128127E+02 0.  0.
         24    2    4    4    0    0  0.27704454124E+03 -0.65351557087E+02  0.68945896473E+03  0.75013430312E+03  0.79519210436E+02 0.  0.
         13    1    3    3    0    0  0.30963551091E+02  0.16189927677E+02 -0.66079175180E+03  0.66171488914E+03  0.00000000000E+00 0. -1.
        -13    1    3    3    0    0 -0.26856255888E+02  0.31522965658E+02 -0.19396929435E+03  0.19834072450E+03  0.00000000000E+00 0.  1.
          4    1    6    6  502    0  0.38869853503E+02 -0.32715555063E+02  0.77698689324E+02  0.92834580718E+02  0.00000000000E+00 0. -1.
          3    1    5    5  503    0 -0.33297812912E+01 -0.33130898353E+01 -0.19724958505E+02  0.20276538061E+02  0.00000000000E+00 0. -1.
         -4    1    5    5    0  503 -0.27782205515E+03  0.20951753587E+02 -0.10143073831E+03  0.29650002526E+03  0.00000000000E+00 0.  1.
         -3    1    6    6    0  502  0.23817468773E+03 -0.32636002024E+02  0.61176027541E+03  0.65729972241E+03  0.00000000000E+00 0.  1.
<mgrwt>
<rscale>  0 0.19055555E+04</rscale>
<asrwt>0</asrwt>
<pdfrwt beam="1">  1        1 0.17026340E+00 0.19055555E+04</pdfrwt>
<pdfrwt beam="2">  1       -1 0.12619298E+00 0.19055555E+04</pdfrwt>
<totfact> 0.64056952E+00</totfact>
</mgrwt>
</event>
<event>
12    1  0.1960998E-007  0.1931483E+04  0.7818608E-02  0.8639342E-01
         -2   -1    0    0    0  501 -0.00000000000E+00  0.00000000000E+00  0.30482155814E+03  0.30482155814E+03  0.00000000000E+00 0.  1.
          2   -1    0    0  501    0  0.00000000000E+00 -0.00000000000E+00 -0.30596811569E+04  0.30596811569E+04  0.00000000000E+00 0. -1.
         23    2    1    2    0    0 -0.51862002367E+03  0.46106159689E+03 -0.15921940920E+04  0.17401111674E+04  0.10658481692E+03 0.  0.
        254    2    1    2    0    0  0.51862002367E+03 -0.46106159689E+03 -0.11626655067E+04  0.16243915476E+04  0.89739194024E+03 0.  0.
        -24    2    4    4    0    0  0.23790391475E+03  0.20669859279E+03 -0.10879609737E+03  0.34312126616E+03  0.81074234957E+02 0.  0.
         24    2    4    4    0    0  0.28071610891E+03 -0.66776018968E+03 -0.10538694094E+04  0.12812702815E+04  0.79420384397E+02 0.  0.
         13    1    3    3    0    0 -0.18967807967E+03  0.12069965310E+03 -0.60161764193E+03  0.64225381840E+03  0.00000000000E+00 0. -1.
        -13    1    3    3    0    0 -0.32894194399E+03  0.34036194379E+03 -0.99057645005E+03  0.10978573490E+04  0.00000000000E+00 0.  1.
          2    1    6    6  502    0  0.41007541092E+02 -0.16258130574E+03 -0.20590749357E+03  0.26554132505E+03  0.00000000000E+00 0. -1.
          3    1    5    5  503    0  0.48508672617E+02  0.79210594983E+02 -0.57113315972E+02  0.10903825264E+03  0.00000000000E+00 0. -1.
         -4    1    5    5    0  503  0.18939524214E+03  0.12748799781E+03 -0.51682781399E+02  0.23408301353E+03  0.00000000000E+00 0.  1.
         -1    1    6    6    0  502  0.23970856782E+03 -0.50517888394E+03 -0.84796191579E+03  0.10157289564E+04  0.00000000000E+00 0.  1.
<mgrwt>
<rscale>  0 0.19314831E+04</rscale>
<asrwt>0</asrwt>
<pdfrwt beam="1">  1        2 0.47072018E+00 0.19314831E+04</pdfrwt>
<pdfrwt beam="2">  1       -2 0.46895624E-01 0.19314831E+04</pdfrwt>
<totfact> 0.64494339E+00</totfact>
</mgrwt>
</event>
<event>
12    1  0.1960998E-007  0.2035765E+04  0.7818608E-02  0.8590080E-01
          2   -1    0    0  501    0  0.00000000000E+00  0.00000000000E+00  0.15306746403E+04  0.15306746403E+04  0.00000000000E+00 0. -1.
         -2   -1    0    0    0  501 -0.00000000000E+00 -0.00000000000E+00 -0.67688102865E+03  0.67688102865E+03  0.00000000000E+00 0.  1.
         23    2    1    2    0    0  0.26227153924E+03 -0.20416197308E+03  0.11529787878E+04  0.12034213339E+04  0.91620687384E+02 0.  0.
        254    2    1    2    0    0 -0.26227153924E+03  0.20416197308E+03 -0.29918517607E+03  0.10041343351E+04  0.89905813033E+03 0.  0.
        -24    2    4    4    0    0 -0.20847534685E+03  0.26521369037E+03  0.25998906663E+03  0.43332687683E+03  0.79859849795E+02 0.  0.
         24    2    4    4    0    0 -0.53796192390E+02 -0.61051717289E+02 -0.55917424270E+03  0.57080745823E+03  0.80771146904E+02 0.  0.
         13    1    3    3    0    0  0.24729057534E+03 -0.19515310141E+03  0.11366654507E+04  0.11795107920E+04  0.00000000000E+00 0. -1.
        -13    1    3    3    0    0  0.14980963907E+02 -0.90088716633E+01  0.16313337038E+02  0.23910541892E+02  0.00000000000E+00 0.  1.
          2    1    6    6  502    0 -0.55611187372E+02 -0.12607718723E+02 -0.41018935446E+03  0.41413387358E+03  0.00000000000E+00 0. -1.
          1    1    5    5  503    0 -0.13343056700E+03  0.19524912040E+03  0.22066640376E+03  0.32344952771E+03  0.00000000000E+00 0. -1.
         -2    1    5    5    0  503 -0.75044779850E+02  0.69964569969E+02  0.39322662869E+02  0.10987734912E+03  0.00000000000E+00 0.  1.
         -1    1    6    6    0  502  0.18149949817E+01 -0.48443998566E+02 -0.14898488824E+03  0.15667358465E+03  0.00000000000E+00 0.  1.
<mgrwt>
<rscale>  0 0.20357648E+04</rscale>
<asrwt>0</asrwt>
<pdfrwt beam="1">  1        2 0.23548841E+00 0.20357648E+04</pdfrwt>
<pdfrwt beam="2">  1       -2 0.10413554E+00 0.20357648E+04</pdfrwt>
<totfact> 0.84737375E+00</totfact>
</mgrwt>
</event>
<event>
12    1  0.1960998E-007  0.2403921E+04  0.7818608E-02  0.8438037E-01
          2   -1    0    0  501    0  0.00000000000E+00  0.00000000000E+00  0.70662474728E+03  0.70662474728E+03  0.00000000000E+00 0. -1.
         -2   -1    0    0    0  501 -0.00000000000E+00 -0.00000000000E+00 -0.20445204919E+04  0.20445204919E+04  0.00000000000E+00 0.  1.
         23    2    1    2    0    0  0.71235838582E+02 -0.80582923019E+02  0.59703581631E+03  0.61333946942E+03  0.90362528741E+02 0.  0.
        254    2    1    2    0    0 -0.71235838582E+02  0.80582923019E+02 -0.19349315609E+04  0.21378057697E+04  0.90259914223E+03 0.  0.
        -24    2    4    4    0    0 -0.29709746228E+02 -0.18493068063E+03 -0.23198183572E+02  0.20558627320E+03  0.81520146894E+02 0.  0.
         24    2    4    4    0    0 -0.41526092354E+02  0.26551360365E+03 -0.19117333773E+04  0.19322194965E+04  0.80782341537E+02 0.  0.
         13    1    3    3    0    0  0.73699862186E+01 -0.69166521126E+02  0.39694252476E+03  0.40299093328E+03  0.00000000000E+00 0.  1.
        -13    1    3    3    0    0  0.63865852363E+02 -0.11416401893E+02  0.20009329156E+03  0.21034853614E+03  0.00000000000E+00 0. -1.
          2    1    6    6  502    0 -0.39303047636E+02  0.24683242692E+03 -0.18675004926E+04  0.18841520816E+04  0.00000000000E+00 0. -1.
          1    1    5    5  503    0  0.15142506385E+02 -0.11235243553E+03  0.10500133493E+02  0.11385349390E+03  0.00000000000E+00 0. -1.
         -2    1    5    5    0  503 -0.44852252613E+02 -0.72578245094E+02 -0.33698317065E+02  0.91732779302E+02  0.00000000000E+00 0.  1.
         -1    1    6    6    0  502 -0.22230447186E+01  0.18681176722E+02 -0.44232884719E+02  0.48067414972E+02  0.00000000000E+00 0.  1.
<mgrwt>
<rscale>  0 0.24039208E+04</rscale>
<asrwt>0</asrwt>
<pdfrwt beam="1">  1        2 0.10871150E+00 0.24039208E+04</pdfrwt>
<pdfrwt beam="2">  1       -2 0.31454161E+00 0.24039208E+04</pdfrwt>
<totfact> 0.94209776E-01</totfact>
</mgrwt>
</event>
<event>
12    1  0.2113737E-007  0.2307243E+04  0.7818608E-02  0.8475071E-01
         -1   -1    0    0    0  501 -0.00000000000E+00  0.00000000000E+00  0.86844585105E+03  0.86844585105E+03  0.00000000000E+00 0.  1.
          1   -1    0    0  501    0  0.00000000000E+00 -0.00000000000E+00 -0.15324422045E+04  0.15324422045E+04  0.00000000000E+00 0. -1.
         23    2    1    2    0    0 -0.28050241040E+03  0.91235549301E+03 -0.73536888069E+02  0.96185835153E+03  0.93218381449E+02 0.  0.
        254    2    1    2    0    0  0.28050241040E+03 -0.91235549301E+03 -0.59045946543E+03  0.14390297041E+04  0.90060533033E+03 0.  0.
        -24    2    4    4    0    0 -0.34218176026E+02  0.98092315049E+02  0.10677885068E+03  0.16908923668E+03  0.79977879230E+02 0.  0.
         24    2    4    4    0    0  0.31472058642E+03 -0.10104478081E+04 -0.69723831610E+03  0.12699404674E+04  0.80954931541E+02 0.  0.
         11    1    3    3    0    0 -0.10389102872E+03  0.45340606640E+03 -0.37384401417E+01  0.46517134782E+03  0.00000000000E+00 0.  1.
        -11    1    3    3    0    0 -0.17661138168E+03  0.45894942661E+03 -0.69798447928E+02  0.49668700371E+03  0.00000000000E+00 0. -1.
          4    1    6    6  502    0  0.48016781453E+00 -0.66510254138E+02 -0.46259201893E+02  0.81017024300E+02  0.00000000000E+00 0. -1.
          3    1    5    5  503    0  0.24899527081E+02  0.23396347589E+02  0.40774808778E+02  0.53197373622E+02  0.00000000000E+00 0. -1.
         -4    1    5    5    0  503 -0.59117703107E+02  0.74695967461E+02  0.66004041898E+02  0.11589186306E+03  0.00000000000E+00 0.  1.
         -3    1    6    6    0  502  0.31424041861E+03 -0.94393755392E+03 -0.65097911421E+03  0.11889234431E+04  0.00000000000E+00 0.  1.
<mgrwt>
<rscale>  0 0.23072434E+04</rscale>
<asrwt>0</asrwt>
<pdfrwt beam="1">  1        1 0.23576034E+00 0.23072434E+04</pdfrwt>
<pdfrwt beam="2">  1       -1 0.13360705E+00 0.23072434E+04</pdfrwt>
<totfact> 0.26543927E+00</totfact>
</mgrwt>
</event>
<event>
12    1  0.1960998E-007  0.2518916E+04  0.7818608E-02  0.8396278E-01
         -2   -1    0    0    0  501 -0.00000000000E+00  0.00000000000E+00  0.31699209067E+03  0.31699209067E+03  0.00000000000E+00 0.  1.
          2   -1    0    0  501    0  0.00000000000E+00 -0.00000000000E+00 -0.50040172447E+04  0.50040172447E+04  0.00000000000E+00 0. -1.
         23    2    1    2    0    0  0.10130338372E+04  0.34136727966E+03 -0.25594738758E+04  0.27752661846E+04  0.91797057709E+02 0.  0.
        254    2    1    2    0    0 -0.10130338372E+04 -0.34136727966E+03 -0.21275512782E+04  0.25457431507E+04  0.90086878787E+03 0.  0.
        -24    2    4    4    0    0 -0.68606380199E+03 -0.60884756529E+03 -0.11180588955E+04  0.14484967488E+04  0.81903841875E+02 0.  0.
         24    2    4    4    0    0 -0.32697003523E+03  0.26748028563E+03 -0.10094923828E+04  0.10972464019E+04  0.80122959184E+02 0.  0.
         11    1    3    3    0    0  0.35947155108E+03  0.77364502024E+02 -0.84331685248E+03  0.91999368253E+03  0.00000000000E+00 0.  1.
        -11    1    3    3    0    0  0.65356228614E+03  0.26400277764E+03 -0.17161570233E+04  0.18552725021E+04  0.00000000000E+00 0. -1.
          4    1    6    6  502    0 -0.29029334255E+02  0.69750835238E+01 -0.12041189423E+03  0.12405796350E+03  0.00000000000E+00 0. -1.
          1    1    5    5  503    0 -0.18375325399E+03 -0.11674639033E+03 -0.26840915758E+03  0.34559868906E+03  0.00000000000E+00 0. -1.
         -2    1    5    5    0  503 -0.50231054800E+03 -0.49210117496E+03 -0.84964973792E+03  0.11028980597E+04  0.00000000000E+00 0.  1.
         -3    1    6    6    0  502 -0.29794070098E+03  0.26050520211E+03 -0.88908048853E+03  0.97318843843E+03  0.00000000000E+00 0.  1.
<mgrwt>
<rscale>  0 0.25189156E+04</rscale>
<asrwt>0</asrwt>
<pdfrwt beam="1">  1        2 0.76984879E+00 0.25189156E+04</pdfrwt>
<pdfrwt beam="2">  1       -2 0.48768015E-01 0.25189156E+04</pdfrwt>
<totfact> 0.12143237E-01</totfact>
</mgrwt>
</event>
<event>
12    1  0.1960998E-007  0.2835261E+04  0.7818608E-02  0.8292404E-01
          2   -1    0    0  501    0  0.00000000000E+00  0.00000000000E+00  0.16638311400E+04  0.16638311400E+04  0.00000000000E+00 0. -1.
         -2   -1    0    0    0  501 -0.00000000000E+00 -0.00000000000E+00 -0.12078602814E+04  0.12078602814E+04  0.00000000000E+00 0.  1.
         23    2    1    2    0    0  0.61965544856E+03 -0.10498119646E+04 -0.16453812455E+03  0.12335600876E+04  0.92302000831E+02 0.  0.
        254    2    1    2    0    0 -0.61965544856E+03  0.10498119646E+04  0.62050898309E+03  0.16381313337E+04  0.90131283831E+03 0.  0.
        -24    2    4    4    0    0 -0.83717274993E+01  0.23991839253E+03 -0.20626574744E+03  0.32680530777E+03  0.81395514150E+02 0.  0.
         24    2    4    4    0    0 -0.61128372106E+03  0.80989357209E+03  0.82677473053E+03  0.13113260260E+04  0.80150518483E+02 0.  0.
         11    1    3    3    0    0  0.13829472749E+03 -0.21656839778E+03  0.19969147588E+01  0.25696554290E+03  0.00000000000E+00 0.  1.
        -11    1    3    3    0    0  0.48136072108E+03 -0.83324356684E+03 -0.16653503931E+03  0.97659454473E+03  0.00000000000E+00 0. -1.
          4    1    6    6  502    0 -0.44036730659E+03  0.52237654500E+03  0.56522133386E+03  0.88672192695E+03  0.00000000000E+00 0. -1.
          1    1    5    5  503    0 -0.17332550841E+02  0.20556649120E+03 -0.13317116380E+03  0.24554543061E+03  0.00000000000E+00 0. -1.
         -2    1    5    5    0  503  0.89608233414E+01  0.34351901334E+02 -0.73094583632E+02  0.81259877163E+02  0.00000000000E+00 0.  1.
         -3    1    6    6    0  502 -0.17091641447E+03  0.28751702709E+03  0.26155339667E+03  0.42460409902E+03  0.00000000000E+00 0.  1.
<mgrwt>
<rscale>  0 0.28352605E+04</rscale>
<asrwt>0</asrwt>
<pdfrwt beam="1">  1        2 0.25597402E+00 0.28352605E+04</pdfrwt>
<pdfrwt beam="2">  1       -2 0.18582466E+00 0.28352605E+04</pdfrwt>
<totfact> 0.14744476E+00</totfact>
</mgrwt>
</event>
<event>
12    1  0.1960998E-007  0.1718751E+04  0.7818608E-02  0.8750742E-01
          2   -1    0    0  501    0  0.00000000000E+00  0.00000000000E+00  0.67355574867E+03  0.67355574867E+03  0.00000000000E+00 0. -1.
         -2   -1    0    0    0  501 -0.00000000000E+00 -0.00000000000E+00 -0.10964590359E+04  0.10964590359E+04  0.00000000000E+00 0.  1.
         23    2    1    2    0    0 -0.10071762470E+03  0.59266295806E+03 -0.32587662704E+01  0.60790790914E+03  0.90266187777E+02 0.  0.
        254    2    1    2    0    0  0.10071762470E+03 -0.59266295806E+03 -0.41964452091E+03  0.11621068754E+04  0.90166370899E+03 0.  0.
        -24    2    4    4    0    0 -0.13131387520E+03 -0.58904197591E+03 -0.60242038325E+03  0.85634788957E+03  0.78788365892E+02 0.  0.
         24    2    4    4    0    0  0.23203149990E+03 -0.36209821495E+01  0.18277586234E+03  0.30575898582E+03  0.78929165055E+02 0.  0.
         13    1    3    3    0    0 -0.23747805754E+02  0.47493147181E+02 -0.20860481487E+02  0.57050127039E+02  0.00000000000E+00 0.  1.
        -13    1    3    3    0    0 -0.76969818945E+02  0.54516981088E+03  0.17601715217E+02  0.55085778210E+03  0.00000000000E+00 0. -1.
          4    1    6    6  502    0  0.61889513064E+02  0.31846712412E+02  0.36478569284E+02  0.78582510368E+02  0.00000000000E+00 0. -1.
          1    1    5    5  503    0 -0.93286221998E+02 -0.37750049262E+03 -0.43821571865E+03  0.58586854943E+03  0.00000000000E+00 0. -1.
         -2    1    5    5    0  503 -0.38027653203E+02 -0.21154148329E+03 -0.16420466460E+03  0.27047934013E+03  0.00000000000E+00 0.  1.
         -3    1    6    6    0  502  0.17014198684E+03 -0.35467694561E+02  0.14629729306E+03  0.22717647545E+03  0.00000000000E+00 0.  1.
<mgrwt>
<rscale>  0 0.17187510E+04</rscale>
<asrwt>0</asrwt>
<pdfrwt beam="1">  1        2 0.10362396E+00 0.17187510E+04</pdfrwt>
<pdfrwt beam="2">  1       -2 0.16868600E+00 0.17187510E+04</pdfrwt>
<totfact> 0.88937383E+00</totfact>
</mgrwt>
</event>
<event>
12    1  0.1960998E-007  0.1730276E+04  0.7818608E-02  0.8744283E-01
          2   -1    0    0  501    0  0.00000000000E+00  0.00000000000E+00  0.17571413723E+04  0.17571413723E+04  0.00000000000E+00 0. -1.
         -2   -1    0    0    0  501 -0.00000000000E+00 -0.00000000000E+00 -0.42595545666E+03  0.42595545666E+03  0.00000000000E+00 0.  1.
         23    2    1    2    0    0  0.58310183549E+03 -0.71005876422E+02  0.75761679203E+03  0.96308962232E+03  0.92243330456E+02 0.  0.
        254    2    1    2    0    0 -0.58310183549E+03  0.71005876422E+02  0.57356912358E+03  0.12200072066E+04  0.90243363171E+03 0.  0.
        -24    2    4    4    0    0 -0.56298442305E+03 -0.32829715590E+03  0.44340094410E+03  0.79217308533E+03  0.78761137129E+02 0.  0.
         24    2    4    4    0    0 -0.20117412434E+02  0.39930303232E+03  0.13016817948E+03  0.42783412129E+03  0.79061106038E+02 0.  0.
         13    1    3    3    0    0  0.33899559303E+03  0.45274681632E+01  0.43858493807E+03  0.55434218490E+03  0.00000000000E+00 0. -1.
        -13    1    3    3    0    0  0.24410624245E+03 -0.75533344585E+02  0.31903185396E+03  0.40874743741E+03  0.00000000000E+00 0.  1.
          4    1    6    6  502    0 -0.44657669629E+02  0.21585624206E+03  0.49387291749E+02  0.22589229575E+03  0.00000000000E+00 0. -1.
          3    1    5    5  503    0 -0.20965095666E+03 -0.15052603280E+03  0.21140335079E+03  0.33362102287E+03  0.00000000000E+00 0. -1.
         -4    1    5    5    0  503 -0.35333346639E+03 -0.17777112310E+03  0.23199759331E+03  0.45855206246E+03  0.00000000000E+00 0.  1.
         -1    1    6    6    0  502  0.24540257195E+02  0.18344679026E+03  0.80780887729E+02  0.20194182554E+03  0.00000000000E+00 0.  1.
<mgrwt>
<rscale>  0 0.17302762E+04</rscale>
<asrwt>0</asrwt>
<pdfrwt beam="1">  1        2 0.27032944E+00 0.17302762E+04</pdfrwt>
<pdfrwt beam="2">  1       -2 0.65531609E-01 0.17302762E+04</pdfrwt>
<totfact> 0.18559739E+01</totfact>
</mgrwt>
</event>
<event>
12    1  0.1960998E-007  0.2171751E+04  0.7818608E-02  0.8530279E-01
          1   -1    0    0  501    0  0.00000000000E+00  0.00000000000E+00  0.26025725536E+04  0.26025725536E+04  0.00000000000E+00 0. -1.
         -1   -1    0    0    0  501 -0.00000000000E+00 -0.00000000000E+00 -0.45306163540E+03  0.45306163540E+03  0.00000000000E+00 0.  1.
         23    2    1    2    0    0 -0.45401630454E+03 -0.69109718802E+03  0.13804799443E+04  0.16117067460E+04  0.90153371924E+02 0.  0.
        254    2    1    2    0    0  0.45401630454E+03  0.69109718802E+03  0.76903097394E+03  0.14439274430E+04  0.89987315426E+03 0.  0.
        -24    2    4    4    0    0  0.62932698358E+03  0.16964933812E+03  0.50668141176E+03  0.82931247303E+03  0.78738648124E+02 0.  0.
         24    2    4    4    0    0 -0.17531067904E+03  0.52144784990E+03  0.26234956217E+03  0.61461496999E+03  0.79262691208E+02 0.  0.
         11    1    3    3    0    0 -0.21737470413E+03 -0.35860372661E+03  0.61731050646E+03  0.74627116795E+03  0.00000000000E+00 0.  1.
        -11    1    3    3    0    0 -0.23664160041E+03 -0.33249346141E+03  0.76316943785E+03  0.86543557807E+03  0.00000000000E+00 0. -1.
          2    1    6    6  502    0 -0.83321755654E+02  0.23643746300E+03  0.16324478653E+03  0.29915556021E+03  0.00000000000E+00 0. -1.
          1    1    5    5  503    0  0.34400785398E+03  0.55030930524E+02  0.25043309440E+03  0.42905307561E+03  0.00000000000E+00 0. -1.
         -2    1    5    5    0  503  0.28531912959E+03  0.11461840760E+03  0.25624831736E+03  0.40025939742E+03  0.00000000000E+00 0.  1.
         -3    1    6    6    0  502 -0.91988923383E+02  0.28501038690E+03  0.99104775647E+02  0.31545940979E+03  0.00000000000E+00 0.  1.
<mgrwt>
<rscale>  0 0.21717512E+04</rscale>
<asrwt>0</asrwt>
<pdfrwt beam="1">  1        1 0.40039577E+00 0.21717512E+04</pdfrwt>
<pdfrwt beam="2">  1       -1 0.69701791E-01 0.21717512E+04</pdfrwt>
<totfact> 0.21864179E+00</totfact>
</mgrwt>
</event>
<event>
12    1  0.3802935E-007  0.1861541E+04  0.7818608E-02  0.8674240E-01
         -1   -1    0    0    0  501 -0.00000000000E+00  0.00000000000E+00  0.63193581329E+03  0.63193581329E+03  0.00000000000E+00 0.  1.
          1   -1    0    0  501    0  0.00000000000E+00 -0.00000000000E+00 -0.13709203986E+04  0.13709203986E+04  0.00000000000E+00 0. -1.
         23    2    1    2    0    0  0.40406019777E+03  0.53505398696E+03 -0.53477459406E+03  0.86250801758E+03  0.91590400955E+02 0.  0.
        254    2    1    2    0    0 -0.40406019777E+03 -0.53505398696E+03 -0.20420999124E+03  0.11403481943E+04  0.89952480305E+03 0.  0.
        -24    2    4    4    0    0 -0.22456381769E+03 -0.72744432738E+03  0.47467256532E+02  0.76712467593E+03  0.81381633792E+02 0.  0.
         24    2    4    4    0    0 -0.17949638008E+03  0.19239034042E+03 -0.25167724777E+03  0.37322351836E+03  0.81983925652E+02 0.  0.
         13    1    3    3    0    0  0.20050439073E+03  0.21687138927E+03 -0.27929381896E+03  0.40649753688E+03  0.00000000000E+00 0. -1.
        -13    1    3    3    0    0  0.20355580705E+03  0.31818259770E+03 -0.25548077510E+03  0.45601048070E+03  0.00000000000E+00 0.  1.
          2    1    6    6  502    0 -0.25135400426E+02 -0.41757278483E+01 -0.27414375822E+02  0.37426902882E+02  0.00000000000E+00 0. -1.
          3    1    5    5  503    0  0.45522842695E+01 -0.52696813295E+02 -0.88389891895E+00  0.52900460308E+02  0.00000000000E+00 0. -1.
         -4    1    5    5    0  503 -0.22911610196E+03 -0.67474751408E+03  0.48351155451E+02  0.71422421562E+03  0.00000000000E+00 0.  1.
         -1    1    6    6    0  502 -0.15436097966E+03  0.19656606826E+03 -0.22426287195E+03  0.33579661548E+03  0.00000000000E+00 0.  1.
<mgrwt>
<rscale>  0 0.18615410E+04</rscale>
<asrwt>0</asrwt>
<pdfrwt beam="1">  1        1 0.21091083E+00 0.18615410E+04</pdfrwt>
<pdfrwt beam="2">  1       -1 0.97220895E-01 0.18615410E+04</pdfrwt>
<totfact> 0.76837395E+00</totfact>
</mgrwt>
</event>
<event>
12    1  0.1960998E-007  0.3012700E+04  0.7818608E-02  0.8240114E-01
         -2   -1    0    0    0  501 -0.00000000000E+00  0.00000000000E+00  0.17791594533E+04  0.17791594533E+04  0.00000000000E+00 0.  1.
          2   -1    0    0  501    0  0.00000000000E+00 -0.00000000000E+00 -0.12753723168E+04  0.12753723168E+04  0.00000000000E+00 0. -1.
         23    2    1    2    0    0  0.35343578759E+03 -0.10571439406E+04  0.10375465774E+04  0.15255526863E+04  0.91312273034E+02 0.  0.
        254    2    1    2    0    0 -0.35343578759E+03  0.10571439406E+04 -0.53375944090E+03  0.15289790839E+04  0.90022648874E+03 0.  0.
        -24    2    4    4    0    0  0.22976528503E+03  0.71913757439E+02 -0.22773091137E+03  0.34112116147E+03  0.80861635518E+02 0.  0.
         24    2    4    4    0    0 -0.58320107262E+03  0.98523018317E+03 -0.30602852953E+03  0.11878579224E+04  0.80938111980E+02 0.  0.
         11    1    3    3    0    0  0.95917554068E+02 -0.33566070836E+03  0.27212431480E+03  0.44262843449E+03  0.00000000000E+00 0. -1.
        -11    1    3    3    0    0  0.25751823352E+03 -0.72148323225E+03  0.76542226263E+03  0.10829242518E+04  0.00000000000E+00 0.  1.
          2    1    6    6  502    0 -0.32008075792E+03  0.61241845778E+03 -0.16841453092E+03  0.71124645043E+03  0.00000000000E+00 0. -1.
          3    1    5    5  503    0  0.23651803360E+03  0.70297756520E+02 -0.22391974948E+03  0.33320055372E+03  0.00000000000E+00 0. -1.
         -4    1    5    5    0  503 -0.67527485733E+01  0.16160009190E+01 -0.38111618861E+01  0.79206077536E+01  0.00000000000E+00 0.  1.
         -1    1    6    6    0  502 -0.26312031469E+03  0.37281172538E+03 -0.13761399861E+03  0.47661147196E+03  0.00000000000E+00 0.  1.
<mgrwt>
<rscale>  0 0.30127003E+04</rscale>
<asrwt>0</asrwt>
<pdfrwt beam="1">  1        2 0.19621113E+00 0.30127003E+04</pdfrwt>
<pdfrwt beam="2">  1       -2 0.27371684E+00 0.30127003E+04</pdfrwt>
<totfact> 0.67219834E-01</totfact>
</mgrwt>
</event>
<event>
12    1  0.1960998E-007  0.2452179E+04  0.7818608E-02  0.8420223E-01
         -1   -1    0    0    0  501 -0.00000000000E+00  0.00000000000E+00  0.10806314011E+04  0.10806314011E+04  0.00000000000E+00 0.  1.
          1   -1    0    0  501    0  0.00000000000E+00 -0.00000000000E+00 -0.13911272123E+04  0.13911272123E+04  0.00000000000E+00 0. -1.
         23    2    1    2    0    0  0.26794787668E+03  0.10232538664E+04 -0.89686624909E+02  0.10660476061E+04  0.97822635898E+02 0.  0.
        254    2    1    2    0    0 -0.26794787668E+03 -0.10232538664E+04 -0.22080918627E+03  0.14057110074E+04  0.89912301710E+03 0.  0.
        -24    2    4    4    0    0  0.27691200021E+02 -0.57660054361E+03 -0.52507714448E+03  0.78455137489E+03  0.81116353099E+02 0.  0.
         24    2    4    4    0    0 -0.29563907670E+03 -0.44665332275E+03  0.30426795821E+03  0.62115963249E+03  0.79741107609E+02 0.  0.
         11    1    3    3    0    0  0.71390787996E+02  0.33191960519E+03 -0.72194735021E+02  0.34710135218E+03  0.00000000000E+00 0. -1.
        -11    1    3    3    0    0  0.19655708869E+03  0.69133426117E+03 -0.17491889888E+02  0.71894625389E+03  0.00000000000E+00 0.  1.
          4    1    6    6  502    0 -0.26134227005E+03 -0.34873308120E+03  0.26608785013E+03  0.51060482569E+03  0.00000000000E+00 0. -1.
          3    1    5    5  503    0  0.48746029412E+02 -0.48682129276E+03 -0.42055093019E+03  0.64516217446E+03  0.00000000000E+00 0. -1.
         -4    1    5    5    0  503 -0.21054829392E+02 -0.89779250847E+02 -0.10452621428E+03  0.13938920043E+03  0.00000000000E+00 0.  1.
         -3    1    6    6    0  502 -0.34296806657E+02 -0.97920241555E+02  0.38180108081E+02  0.11055480680E+03  0.00000000000E+00 0.  1.
<mgrwt>
<rscale>  0 0.24521792E+04</rscale>
<asrwt>0</asrwt>
<pdfrwt beam="1">  1        1 0.21401957E+00 0.24521792E+04</pdfrwt>
<pdfrwt beam="2">  1       -1 0.16625098E+00 0.24521792E+04</pdfrwt>
<totfact> 0.18238482E+00</totfact>
</mgrwt>
</event>
<event>
12    1  0.1960998E-007  0.2357064E+04  0.7818608E-02  0.8455755E-01
         -2   -1    0    0    0  501 -0.00000000000E+00  0.00000000000E+00  0.13249674824E+04  0.13249674824E+04  0.00000000000E+00 0. -1.
          2   -1    0    0  501    0  0.00000000000E+00 -0.00000000000E+00 -0.10482807199E+04  0.10482807199E+04  0.00000000000E+00 0.  1.
         23    2    1    2    0    0 -0.70856892235E+03  0.70240563811E+03  0.23361647508E+03  0.10287128477E+04  0.90718617114E+02 0.  0.
        254    2    1    2    0    0  0.70856892235E+03 -0.70240563811E+03  0.43070287424E+02  0.13445353546E+04  0.90026477873E+03 0.  0.
        -24    2    4    4    0    0  0.78093254486E+03 -0.18261239299E+03  0.91923278736E+02  0.81112298836E+03  0.79168727285E+02 0.  0.
         24    2    4    4    0    0 -0.72363622507E+02 -0.51979324512E+03 -0.48852991312E+02  0.53341236620E+03  0.81979424965E+02 0.  0.
         13    1    3    3    0    0 -0.47019147923E+03  0.52418036133E+03  0.16812989169E+03  0.72395631002E+03  0.00000000000E+00 0.  1.
        -13    1    3    3    0    0 -0.23837744312E+03  0.17822527679E+03  0.65486583392E+02  0.30475653771E+03  0.00000000000E+00 0. -1.
          2    1    6    6  502    0  0.16033931954E+02 -0.48411948702E+02 -0.12061654017E+02  0.52405030757E+02  0.00000000000E+00 0. -1.
          1    1    5    5  503    0  0.64585713285E+03 -0.12101565752E+03  0.84140716167E+02  0.66246198800E+03  0.00000000000E+00 0. -1.
         -2    1    5    5    0  503  0.13507541201E+03 -0.61596735473E+02  0.77825625697E+01  0.14866100037E+03  0.00000000000E+00 0.  1.
         -1    1    6    6    0  502 -0.88397554461E+02 -0.47138129642E+03 -0.36791337296E+02  0.48100733544E+03  0.00000000000E+00 0.  1.
<mgrwt>
<rscale>  0 0.23570642E+04</rscale>
<asrwt>0</asrwt>
<pdfrwt beam="1">  1        2 0.16127396E+00 0.23570642E+04</pdfrwt>
<pdfrwt beam="2">  1       -2 0.20384115E+00 0.23570642E+04</pdfrwt>
<totfact> 0.26576213E+00</totfact>
</mgrwt>
</event>
<event>
12    1  0.1960998E-007  0.2052248E+04  0.7818608E-02  0.8582575E-01
          2   -1    0    0  501    0  0.00000000000E+00  0.00000000000E+00  0.76952438770E+03  0.76952438770E+03  0.00000000000E+00 0. -1.
         -2   -1    0    0    0  501 -0.00000000000E+00 -0.00000000000E+00 -0.13682874255E+04  0.13682874255E+04  0.00000000000E+00 0.  1.
         23    2    1    2    0    0 -0.59969190846E+03 -0.54717113631E+03 -0.39034663563E+03  0.90566307526E+03  0.93959951332E+02 0.  0.
        254    2    1    2    0    0  0.59969190846E+03  0.54717113631E+03 -0.20841640219E+03  0.12321487380E+04  0.90317577374E+03 0.  0.
        -24    2    4    4    0    0  0.29263878683E+03  0.50018024812E+03  0.27881829652E+03  0.64878325733E+03  0.85804034615E+02 0.  0.
         24    2    4    4    0    0  0.30705312164E+03  0.46990888190E+02 -0.48723469871E+03  0.58336548063E+03  0.80173993785E+02 0.  0.
         11    1    3    3    0    0 -0.37724098587E+03 -0.37009956488E+03 -0.29809634071E+03  0.60675025974E+03  0.00000000000E+00 0. -1.
        -11    1    3    3    0    0 -0.22245092259E+03 -0.17707157143E+03 -0.92250294918E+02  0.29891281552E+03  0.00000000000E+00 0.  1.
          2    1    6    6  502    0  0.72979446719E+02  0.24201615681E+02 -0.67871669716E+02  0.10255867294E+03  0.00000000000E+00 0. -1.
          3    1    5    5  503    0  0.42456278068E+02  0.82537433360E+02  0.81332468258E+02  0.12340961813E+03  0.00000000000E+00 0. -1.
         -4    1    5    5    0  503  0.25018250876E+03  0.41764281476E+03  0.19748582827E+03  0.52537363921E+03  0.00000000000E+00 0.  1.
         -1    1    6    6    0  502  0.23407367492E+03  0.22789272509E+02 -0.41936302900E+03  0.48080680769E+03  0.00000000000E+00 0.  1.
<mgrwt>
<rscale>  0 0.20522481E+04</rscale>
<asrwt>0</asrwt>
<pdfrwt beam="1">  1        2 0.11838837E+00 0.20522481E+04</pdfrwt>
<pdfrwt beam="2">  1       -2 0.21050576E+00 0.20522481E+04</pdfrwt>
<totfact> 0.38108620E+00</totfact>
</mgrwt>
</event>
<event>
12    1  0.1960998E-007  0.1821306E+04  0.7818608E-02  0.8695051E-01
         -1   -1    0    0    0  501 -0.00000000000E+00  0.00000000000E+00  0.95930465210E+03  0.95930465210E+03  0.00000000000E+00 0.  1.
          1   -1    0    0  501    0  0.00000000000E+00 -0.00000000000E+00 -0.86446867858E+03  0.86446867858E+03  0.00000000000E+00 0. -1.
         23    2    1    2    0    0  0.19700933590E+03 -0.39582400586E+03 -0.48825809735E+03  0.66502123859E+03  0.91476533047E+02 0.  0.
        254    2    1    2    0    0 -0.19700933590E+03  0.39582400586E+03  0.58309407087E+03  0.11587520921E+04  0.89845333401E+03 0.  0.
        -24    2    4    4    0    0 -0.39012903999E+03 -0.14308086962E+03  0.23442653431E+03  0.48373072387E+03  0.79792293664E+02 0.  0.
         24    2    4    4    0    0  0.19311970410E+03  0.53890487548E+03  0.34866753656E+03  0.67502136822E+03  0.79819243205E+02 0.  0.
         13    1    3    3    0    0 -0.58388087553E+01 -0.50889405941E+02 -0.60441609227E+02  0.79227592735E+02  0.00000000000E+00 0.  1.
        -13    1    3    3    0    0  0.20284814465E+03 -0.34493459992E+03 -0.42781648812E+03  0.58579364585E+03  0.00000000000E+00 0. -1.
          2    1    6    6  502    0  0.10633516434E+03  0.37120346142E+03  0.26603012793E+03  0.46890426093E+03  0.00000000000E+00 0. -1.
          3    1    5    5  503    0 -0.95627958543E+02 -0.73036913598E+02  0.71086752237E+02  0.13975844714E+03  0.00000000000E+00 0. -1.
         -4    1    5    5    0  503 -0.29450108145E+03 -0.70043956018E+02  0.16333978207E+03  0.34397227673E+03  0.00000000000E+00 0.  1.
         -1    1    6    6    0  502  0.86784539752E+02  0.16770141405E+03  0.82637408627E+02  0.20611710729E+03  0.00000000000E+00 0.  1.
<mgrwt>
<rscale>  0 0.18213059E+04</rscale>
<asrwt>0</asrwt>
<pdfrwt beam="1">  1        1 0.13299518E+00 0.18213059E+04</pdfrwt>
<pdfrwt beam="2">  1       -1 0.14758533E+00 0.18213059E+04</pdfrwt>
<totfact> 0.66859861E+00</totfact>
</mgrwt>
</event>
<event>
12    1  0.1960998E-007  0.1491716E+04  0.7818608E-02  0.8889980E-01
         -2   -1    0    0    0  501 -0.00000000000E+00  0.00000000000E+00  0.35644743837E+03  0.35644743837E+03  0.00000000000E+00 0.  1.
          2   -1    0    0  501    0  0.00000000000E+00 -0.00000000000E+00 -0.15606904833E+04  0.15606904833E+04  0.00000000000E+00 0. -1.
         23    2    1    2    0    0 -0.41111221694E+03  0.22055885483E+03 -0.31662129039E+03  0.56986269598E+03  0.82673982489E+02 0.  0.
        254    2    1    2    0    0  0.41111221694E+03 -0.22055885483E+03 -0.88762175450E+03  0.13472752256E+04  0.89978813685E+03 0.  0.
        -24    2    4    4    0    0  0.50971517214E+03  0.92403585942E+02 -0.16524165188E+03  0.54948468191E+03  0.79250443090E+02 0.  0.
         24    2    4    4    0    0 -0.98602955205E+02 -0.31296244077E+03 -0.72238010262E+03  0.79779054374E+03  0.83478781146E+02 0.  0.
         11    1    3    3    0    0 -0.18323446421E+03  0.14477429172E+03 -0.14934222075E+03  0.27719589340E+03  0.00000000000E+00 0. -1.
        -11    1    3    3    0    0 -0.22787775273E+03  0.75784563111E+02 -0.16727906964E+03  0.29266680258E+03  0.00000000000E+00 0.  1.
          4    1    6    6  502    0 -0.23819073551E+02 -0.20926337059E+03 -0.45948234315E+03  0.50545279720E+03  0.00000000000E+00 0. -1.
          3    1    5    5  503    0  0.36690306369E+03  0.79512148395E+02 -0.84094445199E+02  0.38472316748E+03  0.00000000000E+00 0. -1.
         -4    1    5    5    0  503  0.14281210846E+03  0.12891437547E+02 -0.81147206685E+02  0.16476151443E+03  0.00000000000E+00 0.  1.
         -3    1    6    6    0  502 -0.74783881654E+02 -0.10369907019E+03 -0.26289775947E+03  0.29233774653E+03  0.00000000000E+00 0.  1.
<mgrwt>
<rscale>  0 0.14917160E+04</rscale>
<asrwt>0</asrwt>
<pdfrwt beam="1">  1        2 0.24010622E+00 0.14917160E+04</pdfrwt>
<pdfrwt beam="2">  1       -2 0.54838068E-01 0.14917160E+04</pdfrwt>
<totfact> 0.35476295E+01</totfact>
</mgrwt>
</event>
<event>
12    1  0.1960998E-007  0.3868171E+04  0.7818608E-02  0.8031682E-01
         -2   -1    0    0    0  501 -0.00000000000E+00  0.00000000000E+00  0.10667792426E+04  0.10667792426E+04  0.00000000000E+00 0.  1.
          2   -1    0    0  501    0  0.00000000000E+00 -0.00000000000E+00 -0.35065228202E+04  0.35065228202E+04  0.00000000000E+00 0. -1.
         23    2    1    2    0    0 -0.23553098391E+03  0.13298650333E+04  0.30220984692E+03  0.13869654134E+04  0.91249192787E+02 0.  0.
        254    2    1    2    0    0  0.23553098391E+03 -0.13298650333E+04 -0.27419534245E+04  0.31863366493E+04  0.90023153101E+03 0.  0.
        -24    2    4    4    0    0  0.41368275142E+03 -0.64085160408E+03 -0.20571955225E+04  0.21954972008E+04  0.79563456827E+02 0.  0.
         24    2    4    4    0    0 -0.17815176751E+03 -0.68901342926E+03 -0.68475790200E+03  0.99083944852E+03  0.79949174029E+02 0.  0.
         11    1    3    3    0    0 -0.49431737607E+02  0.45359710519E+03  0.70756246983E+02  0.46173615519E+03  0.00000000000E+00 0. -1.
        -11    1    3    3    0    0 -0.18609924630E+03  0.87626792815E+03  0.23145359994E+03  0.92522925824E+03  0.00000000000E+00 0.  1.
          2    1    6    6  502    0 -0.18155423241E+03 -0.59925760546E+03 -0.60593596469E+03  0.87133805743E+03  0.00000000000E+00 0. -1.
          1    1    5    5  503    0  0.32828818980E+03 -0.44684742180E+03 -0.14533999652E+04  0.15555761674E+04  0.00000000000E+00 0. -1.
         -2    1    5    5    0  503  0.85394561625E+02 -0.19400418229E+03 -0.60379555733E+03  0.63992103337E+03  0.00000000000E+00 0.  1.
         -1    1    6    6    0  502  0.34024648999E+01 -0.89755823798E+02 -0.78821937305E+02  0.11950139109E+03  0.00000000000E+00 0.  1.
<mgrwt>
<rscale>  0 0.38681705E+04</rscale>
<asrwt>0</asrwt>
<pdfrwt beam="1">  1        2 0.53946504E+00 0.38681705E+04</pdfrwt>
<pdfrwt beam="2">  1       -2 0.16411989E+00 0.38681705E+04</pdfrwt>
<totfact> 0.15043305E-01</totfact>
</mgrwt>
</event>
<event>
12    1  0.1960998E-007  0.1449145E+04  0.7818608E-02  0.8918993E-01
         -1   -1    0    0    0  501 -0.00000000000E+00  0.00000000000E+00  0.41874671735E+03  0.41874671735E+03  0.00000000000E+00 0.  1.
          1   -1    0    0  501    0  0.00000000000E+00 -0.00000000000E+00 -0.12537545913E+04  0.12537545913E+04  0.00000000000E+00 0. -1.
         23    2    1    2    0    0 -0.97828605385E+02 -0.17450259218E+03  0.19258742978E+03  0.29198512818E+03  0.90243039963E+02 0.  0.
        254    2    1    2    0    0  0.97828605385E+02  0.17450259218E+03 -0.10275953038E+04  0.13805161805E+04  0.89991734378E+03 0.  0.
        -24    2    4    4    0    0 -0.31298487182E+03 -0.13590013861E+03 -0.64637237041E+03  0.73433207489E+03  0.70837682907E+02 0.  0.
         24    2    4    4    0    0  0.41081347720E+03  0.31040273079E+03 -0.38122293334E+03  0.64618410561E+03  0.84293565049E+02 0.  0.
         11    1    3    3    0    0  0.97475834391E+01 -0.11651317006E+02 -0.32091243499E+01  0.15526334080E+02  0.00000000000E+00 0. -1.
        -11    1    3    3    0    0 -0.10757618882E+03 -0.16285127517E+03  0.19579655413E+03  0.27645879410E+03  0.00000000000E+00 0.  1.
          2    1    6    6  502    0  0.32028687904E+03  0.20095196689E+03 -0.25400606717E+03  0.45550462132E+03  0.00000000000E+00 0. -1.
          1    1    5    5  503    0 -0.20575807813E+03 -0.73165113101E+02 -0.47369864960E+03  0.52161281726E+03  0.00000000000E+00 0. -1.
         -2    1    5    5    0  503 -0.10722679369E+03 -0.62735025509E+02 -0.17267372081E+03  0.21271925763E+03  0.00000000000E+00 0.  1.
         -1    1    6    6    0  502  0.90526598163E+02  0.10945076389E+03 -0.12721686617E+03  0.19067948430E+03  0.00000000000E+00 0.  1.
<mgrwt>
<rscale>  0 0.14491454E+04</rscale>
<asrwt>0</asrwt>
<pdfrwt beam="1">  1        1 0.19288532E+00 0.14491454E+04</pdfrwt>
<pdfrwt beam="2">  1       -1 0.64422574E-01 0.14491454E+04</pdfrwt>
<totfact> 0.23175049E+01</totfact>
</mgrwt>
</event>
<event>
12    1  0.1960998E-007  0.2608626E+04  0.7818608E-02  0.8365277E-01
          2   -1    0    0  501    0  0.00000000000E+00  0.00000000000E+00  0.23071843531E+04  0.23071843531E+04  0.00000000000E+00 0. -1.
         -2   -1    0    0    0  501 -0.00000000000E+00 -0.00000000000E+00 -0.73736303762E+03  0.73736303762E+03  0.00000000000E+00 0.  1.
         23    2    1    2    0    0  0.57606256752E+03 -0.75824372032E+03 -0.52264775168E+02  0.95796664899E+03  0.90481339237E+02 0.  0.
        254    2    1    2    0    0 -0.57606256752E+03  0.75824372032E+03  0.16220860906E+04  0.20865807417E+04  0.90325759625E+03 0.  0.
        -24    2    4    4    0    0 -0.25130202881E+03 -0.15612217153E+02  0.10120991124E+04  0.10459903235E+04  0.79716325511E+02 0.  0.
         24    2    4    4    0    0 -0.32476053871E+03  0.77385593747E+03  0.60998697823E+03  0.10405904182E+04  0.80136666875E+02 0.  0.
         13    1    3    3    0    0  0.31830987381E+03 -0.47428833236E+03 -0.20892052518E+01  0.57120483433E+03  0.00000000000E+00 0.  1.
        -13    1    3    3    0    0  0.25775269370E+03 -0.28395538796E+03 -0.50175569916E+02  0.38676181466E+03  0.00000000000E+00 0. -1.
          4    1    6    6  502    0 -0.17142393303E+03  0.30759747444E+03  0.26240560085E+03  0.43915722748E+03  0.00000000000E+00 0. -1.
          3    1    5    5  503    0 -0.21332152345E+03 -0.26328665890E+02  0.93489206264E+03  0.95928225241E+03  0.00000000000E+00 0. -1.
         -4    1    5    5    0  503 -0.37980505355E+02  0.10716448737E+02  0.77207049775E+02  0.86708071110E+02  0.00000000000E+00 0.  1.
         -3    1    6    6    0  502 -0.15333660568E+03  0.46625846304E+03  0.34758137739E+03  0.60143319072E+03  0.00000000000E+00 0.  1.
<mgrwt>
<rscale>  0 0.26086260E+04</rscale>
<asrwt>0</asrwt>
<pdfrwt beam="1">  1        2 0.35495143E+00 0.26086260E+04</pdfrwt>
<pdfrwt beam="2">  1       -2 0.11344047E+00 0.26086260E+04</pdfrwt>
<totfact> 0.24198093E+00</totfact>
</mgrwt>
</event>
<event>
12    1  0.1960998E-007  0.1693373E+04  0.7818608E-02  0.8765153E-01
         -1   -1    0    0    0  501 -0.00000000000E+00  0.00000000000E+00  0.23578370827E+03  0.23578370827E+03  0.00000000000E+00 0.  1.
          1   -1    0    0  501    0  0.00000000000E+00 -0.00000000000E+00 -0.30404061618E+04  0.30404061618E+04  0.00000000000E+00 0. -1.
         23    2    1    2    0    0  0.56322399868E+02 -0.58164870492E+03 -0.12975544857E+04  0.14259714254E+04  0.90881428211E+02 0.  0.
        254    2    1    2    0    0 -0.56322399868E+02  0.58164870492E+03 -0.15070679679E+04  0.18502184447E+04  0.90031494753E+03 0.  0.
        -24    2    4    4    0    0  0.10762110045E+03  0.91617273338E+02 -0.12632573761E+04  0.12733689445E+04  0.75320943199E+02 0.  0.
         24    2    4    4    0    0 -0.16394350032E+03  0.49003143158E+03 -0.24381059174E+03  0.57684950021E+03  0.79394370106E+02 0.  0.
         11    1    3    3    0    0  0.44448505209E+02 -0.55557561993E+03 -0.12665381745E+04  0.13837481297E+04  0.00000000000E+00 0. -1.
        -11    1    3    3    0    0  0.11873894659E+02 -0.26073084988E+02 -0.31016311200E+02  0.42223295651E+02  0.00000000000E+00 0.  1.
          4    1    6    6  502    0 -0.14604581324E+03  0.45902952925E+03 -0.24619891689E+03  0.54097263791E+03  0.00000000000E+00 0. -1.
          3    1    5    5  503    0  0.17077373378E+01 -0.11259030004E+02 -0.58568228640E+02  0.59665061212E+02  0.00000000000E+00 0. -1.
         -4    1    5    5    0  503  0.10591336312E+03  0.10287630334E+03 -0.12046891475E+04  0.12137038833E+04  0.00000000000E+00 0.  1.
         -3    1    6    6    0  502 -0.17897687085E+02  0.31001902332E+02  0.23883251484E+01  0.35876862296E+02  0.00000000000E+00 0.  1.
<mgrwt>
<rscale>  0 0.16933732E+04</rscale>
<asrwt>0</asrwt>
<pdfrwt beam="1">  1        1 0.46775480E+00 0.16933732E+04</pdfrwt>
<pdfrwt beam="2">  1       -1 0.36274416E-01 0.16933732E+04</pdfrwt>
<totfact> 0.38851106E+00</totfact>
</mgrwt>
</event>
<event>
12    1  0.1960998E-007  0.2356628E+04  0.7818608E-02  0.8455922E-01
         -2   -1    0    0    0  501 -0.00000000000E+00  0.00000000000E+00  0.96519130687E+03  0.96519130687E+03  0.00000000000E+00 0.  1.
          2   -1    0    0  501    0  0.00000000000E+00 -0.00000000000E+00 -0.14384957993E+04  0.14384957993E+04  0.00000000000E+00 0. -1.
         23    2    1    2    0    0 -0.17772543245E+03  0.98114103776E+03 -0.32628912816E+03  0.10527155820E+04  0.86726213828E+02 0.  0.
        254    2    1    2    0    0  0.17772543245E+03 -0.98114103776E+03 -0.14701536432E+03  0.13509715242E+04  0.89960351073E+03 0.  0.
        -24    2    4    4    0    0 -0.17537307657E+03  0.65910049550E+02  0.82063287731E+02  0.21968107319E+03  0.80159466748E+02 0.  0.
         24    2    4    4    0    0  0.35309850902E+03 -0.10470510873E+04 -0.22907865205E+03  0.11312904510E+04  0.79665043713E+02 0.  0.
         11    1    3    3    0    0 -0.70345064825E+02  0.44051358375E+03 -0.10178557326E+03  0.45755977592E+03  0.00000000000E+00 0. -1.
        -11    1    3    3    0    0 -0.10738036762E+03  0.54062745400E+03 -0.22450355490E+03  0.59515580610E+03  0.00000000000E+00 0.  1.
          2    1    6    6  502    0  0.11903431652E+03 -0.42425148254E+03 -0.59016067588E+02  0.44456876316E+03  0.00000000000E+00 0. -1.
          1    1    5    5  503    0  0.18179474819E+01  0.14908379663E+02 -0.49262417037E+01  0.15806092957E+02  0.00000000000E+00 0. -1.
         -2    1    5    5    0  503 -0.17719102405E+03  0.51001669886E+02  0.86989529435E+02  0.20387498024E+03  0.00000000000E+00 0.  1.
         -1    1    6    6    0  502  0.23406419250E+03 -0.62279960477E+03 -0.17006258446E+03  0.68672168784E+03  0.00000000000E+00 0.  1.
<mgrwt>
<rscale>  0 0.23566278E+04</rscale>
<asrwt>0</asrwt>
<pdfrwt beam="1">  1        2 0.22130704E+00 0.23566278E+04</pdfrwt>
<pdfrwt beam="2">  1       -2 0.14849097E+00 0.23566278E+04</pdfrwt>
<totfact> 0.38210395E+00</totfact>
</mgrwt>
</event>
<event>
12    1  0.1960998E-007  0.2201019E+04  0.7818608E-02  0.8518004E-01
          2   -1    0    0  501    0  0.00000000000E+00  0.00000000000E+00  0.25223352591E+04  0.25223352591E+04  0.00000000000E+00 0. -1.
         -2   -1    0    0    0  501 -0.00000000000E+00 -0.00000000000E+00 -0.48015864619E+03  0.48015864619E+03  0.00000000000E+00 0.  1.
         23    2    1    2    0    0 -0.56172228247E+03  0.70891863979E+03  0.80271847367E+03  0.12129022133E+04  0.93151868471E+02 0.  0.
        254    2    1    2    0    0  0.56172228247E+03 -0.70891863979E+03  0.12394581392E+04  0.17895916920E+04  0.92102355269E+03 0.  0.
        -24    2    4    4    0    0  0.79235394244E+03 -0.67278954983E+03  0.96504144720E+03  0.14206362683E+04  0.80198899477E+02 0.  0.
         24    2    4    4    0    0 -0.23063165997E+03 -0.36129089967E+02  0.27441669205E+03  0.36895542371E+03  0.79544390681E+02 0.  0.
         11    1    3    3    0    0 -0.30336006136E+03  0.38417400952E+03  0.37217180021E+03  0.61492182047E+03  0.00000000000E+00 0. -1.
        -11    1    3    3    0    0 -0.25836222111E+03  0.32474463028E+03  0.43054667346E+03  0.59798039284E+03  0.00000000000E+00 0.  1.
          2    1    6    6  502    0 -0.78679545796E+02 -0.50888873727E+02  0.11257557497E+03  0.14646982104E+03  0.00000000000E+00 0. -1.
          3    1    5    5  503    0  0.11566387251E+03 -0.96188916206E+02  0.10317981670E+03  0.18241851216E+03  0.00000000000E+00 0. -1.
         -4    1    5    5    0  503  0.67669006993E+03 -0.57660063362E+03  0.86186163050E+03  0.12382177561E+04  0.00000000000E+00 0.  1.
         -1    1    6    6    0  502 -0.15195211417E+03  0.14759783760E+02  0.16184111708E+03  0.22248560267E+03  0.00000000000E+00 0.  1.
<mgrwt>
<rscale>  0 0.22010189E+04</rscale>
<asrwt>0</asrwt>
<pdfrwt beam="1">  1        2 0.38805157E+00 0.22010189E+04</pdfrwt>
<pdfrwt beam="2">  1       -2 0.73870562E-01 0.22010189E+04</pdfrwt>
<totfact> 0.51001522E+00</totfact>
</mgrwt>
</event>
<event>
12    1  0.1960998E-007  0.2087763E+04  0.7818608E-02  0.8566653E-01
         -2   -1    0    0    0  501 -0.00000000000E+00  0.00000000000E+00  0.28849795384E+03  0.28849795384E+03  0.00000000000E+00 0. -1.
          2   -1    0    0  501    0  0.00000000000E+00 -0.00000000000E+00 -0.37771085671E+04  0.37771085671E+04  0.00000000000E+00 0.  1.
         23    2    1    2    0    0  0.13803785243E+03  0.47627246097E+03 -0.87246414525E+02  0.51253106652E+03  0.95844934758E+02 0.  0.
        254    2    1    2    0    0 -0.13803785243E+03 -0.47627246097E+03 -0.34013641988E+04  0.35530754545E+04  0.89954258745E+03 0.  0.
        -24    2    4    4    0    0 -0.21690579832E+03  0.13072427767E+03 -0.20518301052E+04  0.20690897001E+04  0.83596915817E+02 0.  0.
         24    2    4    4    0    0  0.78867945895E+02 -0.60699673863E+03 -0.13495340936E+04  0.14839857544E+04  0.79411937638E+02 0.  0.
         13    1    3    3    0    0  0.50038869283E+02  0.21241212999E+03  0.84268896507E+01  0.21838913406E+03  0.00000000000E+00 0. -1.
        -13    1    3    3    0    0  0.87998983145E+02  0.26386033098E+03 -0.95673304176E+02  0.29414193246E+03  0.00000000000E+00 0.  1.
          4    1    6    6  502    0  0.91279977945E+02 -0.43861772927E+03 -0.10029366378E+04  0.10984532062E+04  0.00000000000E+00 0. -1.
          1    1    5    5  503    0 -0.14829930494E+03  0.12037225272E+03 -0.12836436486E+04  0.12977762441E+04  0.00000000000E+00 0. -1.
         -2    1    5    5    0  503 -0.68606493388E+02  0.10352024947E+02 -0.76818645658E+03  0.77131345601E+03  0.00000000000E+00 0.  1.
         -3    1    6    6    0  502 -0.12412032050E+02 -0.16837900937E+03 -0.34659745577E+03  0.38553254815E+03  0.00000000000E+00 0.  1.
<mgrwt>
<rscale>  0 0.20877625E+04</rscale>
<asrwt>0</asrwt>
<pdfrwt beam="1">  1        2 0.58109362E+00 0.20877625E+04</pdfrwt>
<pdfrwt beam="2">  1       -2 0.44384301E-01 0.20877625E+04</pdfrwt>
<totfact> 0.22855986E+00</totfact>
</mgrwt>
</event>
<event>
12    1  0.1960998E-007  0.3168043E+04  0.7818608E-02  0.8197308E-01
         -1   -1    0    0    0  501 -0.00000000000E+00  0.00000000000E+00  0.82621870612E+03  0.82621870612E+03  0.00000000000E+00 0.  1.
          1   -1    0    0  501    0  0.00000000000E+00 -0.00000000000E+00 -0.30368755985E+04  0.30368755985E+04  0.00000000000E+00 0. -1.
         23    2    1    2    0    0 -0.10348318029E+04  0.94337083836E+03 -0.14990771317E+04  0.20533278700E+04  0.89987197785E+02 0.  0.
        254    2    1    2    0    0  0.10348318029E+04 -0.94337083836E+03 -0.71157976072E+03  0.18097664347E+04  0.89893458788E+03 0.  0.
        -24    2    4    4    0    0 -0.84307580529E+02 -0.37547274170E+03 -0.26906590997E+03  0.47664004754E+03  0.81864052679E+02 0.  0.
         24    2    4    4    0    0  0.11191393835E+04 -0.56789809667E+03 -0.44251385075E+03  0.13331263872E+04  0.80163883588E+02 0.  0.
         13    1    3    3    0    0 -0.38276178499E+03  0.39167921331E+03 -0.54136326879E+03  0.77006063332E+03  0.00000000000E+00 0.  1.
        -13    1    3    3    0    0 -0.65207001794E+03  0.55169162505E+03 -0.95771386291E+03  0.12832672366E+04  0.00000000000E+00 0. -1.
          4    1    6    6  502    0  0.53773238696E+03 -0.30875392499E+03 -0.19278138926E+03  0.64934564773E+03  0.00000000000E+00 0. -1.
          1    1    5    5  503    0 -0.98618888387E+02 -0.32489220412E+03 -0.21889909334E+03  0.40397703215E+03  0.00000000000E+00 0. -1.
         -4    1    5    5    0  503  0.14311307858E+02 -0.50580537580E+02 -0.50166816632E+02  0.72663015390E+02  0.00000000000E+00 0.  1.
         -3    1    6    6    0  502  0.58140699650E+03 -0.25914417167E+03 -0.24973246149E+03  0.68378073943E+03  0.00000000000E+00 0.  1.
<mgrwt>
<rscale>  0 0.31680426E+04</rscale>
<asrwt>0</asrwt>
<pdfrwt beam="1">  1        1 0.46721163E+00 0.31680426E+04</pdfrwt>
<pdfrwt beam="2">  1       -1 0.12711057E+00 0.31680426E+04</pdfrwt>
<totfact> 0.25269278E-01</totfact>
</mgrwt>
</event>
<event>
12    1  0.1960998E-007  0.1748344E+04  0.7818608E-02  0.8734262E-01
         -1   -1    0    0    0  501 -0.00000000000E+00  0.00000000000E+00  0.58463947189E+03  0.58463947189E+03  0.00000000000E+00 0.  1.
          1   -1    0    0  501    0  0.00000000000E+00 -0.00000000000E+00 -0.13070908609E+04  0.13070908609E+04  0.00000000000E+00 0. -1.
         23    2    1    2    0    0 -0.59689780347E+03  0.26974697433E+02 -0.24483990668E+02  0.60517963946E+03  0.92888686821E+02 0.  0.
        254    2    1    2    0    0  0.59689780347E+03 -0.26974697433E+02 -0.69796739838E+03  0.12865506934E+04  0.90057735665E+03 0.  0.
        -24    2    4    4    0    0  0.56191983984E+03  0.79242156395E+02  0.21896180593E+01  0.57296603347E+03  0.79069939462E+02 0.  0.
         24    2    4    4    0    0  0.34977963625E+02 -0.10621685383E+03 -0.70015701643E+03  0.71358465989E+03  0.80484415865E+02 0.  0.
         13    1    3    3    0    0 -0.91229390337E+01 -0.41882951471E+01 -0.13055075999E+02  0.16468298096E+02  0.00000000000E+00 0. -1.
        -13    1    3    3    0    0 -0.58777486443E+03  0.31162992580E+02 -0.11428914669E+02  0.58871134137E+03  0.00000000000E+00 0.  1.
          4    1    6    6  502    0 -0.16457983749E+02 -0.55206997221E+01 -0.37161116100E+02  0.41015751905E+02  0.00000000000E+00 0. -1.
          3    1    5    5  503    0  0.27903733593E+03  0.25378083211E+02 -0.35951513168E+02  0.28248609390E+03  0.00000000000E+00 0. -1.
         -4    1    5    5    0  503  0.28288250391E+03  0.53864073184E+02  0.38141131227E+02  0.29047993957E+03  0.00000000000E+00 0.  1.
         -3    1    6    6    0  502  0.51435947374E+02 -0.10069615411E+03 -0.66299590033E+03  0.67256890799E+03  0.00000000000E+00 0.  1.
<mgrwt>
<rscale>  0 0.17483443E+04</rscale>
<asrwt>0</asrwt>
<pdfrwt beam="1">  1        1 0.20109090E+00 0.17483443E+04</pdfrwt>
<pdfrwt beam="2">  1       -1 0.89944534E-01 0.17483443E+04</pdfrwt>
<totfact> 0.10249908E+01</totfact>
</mgrwt>
</event>
<event>
12    1  0.1960998E-007  0.1170923E+04  0.7818608E-02  0.9138695E-01
          2   -1    0    0  501    0  0.00000000000E+00  0.00000000000E+00  0.64611838898E+03  0.64611838898E+03  0.00000000000E+00 0. -1.
         -2   -1    0    0    0  501 -0.00000000000E+00 -0.00000000000E+00 -0.53049929021E+03  0.53049929021E+03  0.00000000000E+00 0.  1.
         23    2    1    2    0    0  0.42472637404E+02  0.15900137359E+03 -0.13592691242E+03  0.23301679688E+03  0.93463042855E+02 0.  0.
        254    2    1    2    0    0 -0.42472637404E+02 -0.15900137359E+03  0.25154601118E+03  0.94360088231E+03  0.89443941529E+03 0.  0.
        -24    2    4    4    0    0  0.63991198840E+02  0.29988522590E+03  0.33184337162E+03  0.45898276820E+03  0.80741166544E+02 0.  0.
         24    2    4    4    0    0 -0.10646383624E+03 -0.45888659949E+03 -0.80297360436E+02  0.48461811411E+03  0.80595228260E+02 0.  0.
         11    1    3    3    0    0  0.29047590038E+02  0.14437954877E+03 -0.14880009581E+03  0.20935779208E+03  0.00000000000E+00 0.  1.
        -11    1    3    3    0    0  0.13425047366E+02  0.14621824817E+02  0.12873183393E+02  0.23659004807E+02  0.00000000000E+00 0. -1.
          4    1    6    6  502    0 -0.11539880131E+02 -0.94006647045E+01 -0.14046718050E+02  0.20465864709E+02  0.00000000000E+00 0. -1.
          3    1    5    5  503    0 -0.12220717344E+02  0.11618230289E+02  0.76384428734E+01  0.18511483381E+02  0.00000000000E+00 0. -1.
         -4    1    5    5    0  503  0.76211916183E+02  0.28826699561E+03  0.32420492874E+03  0.44047128482E+03  0.00000000000E+00 0.  1.
         -3    1    6    6    0  502 -0.94923956113E+02 -0.44948593478E+03 -0.66250642386E+02  0.46415224941E+03  0.00000000000E+00 0.  1.
<mgrwt>
<rscale>  0 0.11709233E+04</rscale>
<asrwt>0</asrwt>
<pdfrwt beam="1">  1        2 0.99402829E-01 0.11709233E+04</pdfrwt>
<pdfrwt beam="2">  1       -2 0.81615276E-01 0.11709233E+04</pdfrwt>
<totfact> 0.59201251E+01</totfact>
</mgrwt>
</event>
<event>
12    1  0.1960998E-007  0.1453945E+04  0.7818608E-02  0.8915670E-01
          2   -1    0    0  501    0  0.00000000000E+00  0.00000000000E+00  0.81068473494E+03  0.81068473494E+03  0.00000000000E+00 0.  1.
         -2   -1    0    0    0  501 -0.00000000000E+00 -0.00000000000E+00 -0.65190466618E+03  0.65190466618E+03  0.00000000000E+00 0. -1.
         23    2    1    2    0    0  0.10923129445E+02  0.51484689174E+02 -0.39321580065E+03  0.40692109643E+03  0.90532451993E+02 0.  0.
        254    2    1    2    0    0 -0.10923129445E+02 -0.51484689174E+02  0.55199586940E+03  0.10556683047E+04  0.89831294197E+03 0.  0.
        -24    2    4    4    0    0  0.25385456242E+02 -0.33426874815E+03  0.65766675641E+03  0.74236804481E+03  0.78770134536E+02 0.  0.
         24    2    4    4    0    0 -0.36308585688E+02  0.28278405897E+03 -0.10567088700E+03  0.31330025988E+03  0.75535283634E+02 0.  0.
         11    1    3    3    0    0  0.21470243375E+02  0.51362793033E+02 -0.39241372035E+03  0.39634282607E+03  0.00000000000E+00 0. -1.
        -11    1    3    3    0    0 -0.10547113929E+02  0.12189614121E+00 -0.80208029413E+00  0.10578270355E+02  0.00000000000E+00 0.  1.
          2    1    6    6  502    0 -0.46601506223E+02  0.19998285977E+03 -0.45209631965E+02  0.21025878199E+03  0.00000000000E+00 0. -1.
          3    1    5    5  503    0  0.67868937415E+01 -0.34748704447E+02  0.29068907101E+02  0.45809777859E+02  0.00000000000E+00 0. -1.
         -4    1    5    5    0  503  0.18598562501E+02 -0.29952004370E+03  0.62859784931E+03  0.69655826695E+03  0.00000000000E+00 0.  1.
         -1    1    6    6    0  502  0.10292920535E+02  0.82801199206E+02 -0.60461255040E+02  0.10304147788E+03  0.00000000000E+00 0.  1.
<mgrwt>
<rscale>  0 0.14539452E+04</rscale>
<asrwt>0</asrwt>
<pdfrwt beam="1">  1        2 0.12472073E+00 0.14539452E+04</pdfrwt>
<pdfrwt beam="2">  1       -2 0.10029303E+00 0.14539452E+04</pdfrwt>
<totfact> 0.26918149E+01</totfact>
</mgrwt>
</event>
<event>
12    1  0.1960998E-007  0.1138656E+04  0.7818608E-02  0.9168313E-01
         -2   -1    0    0    0  501 -0.00000000000E+00  0.00000000000E+00  0.81973580517E+02  0.81973580517E+02  0.00000000000E+00 0.  1.
          2   -1    0    0  501    0  0.00000000000E+00 -0.00000000000E+00 -0.39541334422E+04  0.39541334422E+04  0.00000000000E+00 0. -1.
         23    2    1    2    0    0 -0.94740705493E+02 -0.16970196478E+03 -0.63269672171E+03  0.66810984987E+03  0.91055322199E+02 0.  0.
        254    2    1    2    0    0  0.94740705493E+02  0.16970196478E+03 -0.32394631400E+04  0.33679971729E+04  0.90083792269E+03 0.  0.
        -24    2    4    4    0    0 -0.45067632774E+02 -0.42130879538E+02 -0.30260579379E+04  0.30277663246E+04  0.80846585976E+02 0.  0.
         24    2    4    4    0    0  0.13980833827E+03  0.21183284432E+03 -0.21340520214E+03  0.34023084829E+03  0.76129655512E+02 0.  0.
         11    1    3    3    0    0 -0.33744127295E+02 -0.37810922073E+02 -0.31118455208E+03  0.31528424859E+03  0.00000000000E+00 0. -1.
        -11    1    3    3    0    0 -0.60996578198E+02 -0.13189104271E+03 -0.32151216964E+03  0.35282560129E+03  0.00000000000E+00 0.  1.
          4    1    6    6  502    0  0.11790957562E+01  0.14328163754E+02 -0.41605230132E+02  0.44019106280E+02  0.00000000000E+00 0. -1.
          1    1    5    5  503    0 -0.12064515356E+02  0.24120947091E+02 -0.97629402432E+03  0.97666647047E+03  0.00000000000E+00 0. -1.
         -2    1    5    5    0  503 -0.33003117418E+02 -0.66251826629E+02 -0.20497639136E+04  0.20510998541E+04  0.00000000000E+00 0.  1.
         -3    1    6    6    0  502  0.13862924251E+03  0.19750468057E+03 -0.17179997201E+03  0.29621174201E+03  0.00000000000E+00 0.  1.
<mgrwt>
<rscale>  0 0.11386562E+04</rscale>
<asrwt>0</asrwt>
<pdfrwt beam="1">  1        2 0.60832812E+00 0.11386562E+04</pdfrwt>
<pdfrwt beam="2">  1       -2 0.12611322E-01 0.11386562E+04</pdfrwt>
<totfact> 0.18101139E+01</totfact>
</mgrwt>
</event>
<event>
12    1  0.1960998E-007  0.3408177E+04  0.7818608E-02  0.8135902E-01
         -2   -1    0    0    0  501 -0.00000000000E+00  0.00000000000E+00  0.24266738509E+04  0.24266738509E+04  0.00000000000E+00 0.  1.
          2   -1    0    0  501    0  0.00000000000E+00 -0.00000000000E+00 -0.11966657408E+04  0.11966657408E+04  0.00000000000E+00 0. -1.
         23    2    1    2    0    0  0.12878472258E+04 -0.81639115836E+01  0.15534100622E+04  0.20196703204E+04  0.85838542581E+02 0.  0.
        254    2    1    2    0    0 -0.12878472258E+04  0.81639115836E+01 -0.32340195219E+03  0.16036692713E+04  0.89919362906E+03 0.  0.
        -24    2    4    4    0    0 -0.66011221803E+03 -0.38219447507E+03 -0.38398529326E+03  0.85771107327E+03  0.80017639321E+02 0.  0.
         24    2    4    4    0    0 -0.62773500777E+03  0.39035838666E+03  0.60583341068E+02  0.74595819802E+03  0.79701831647E+02 0.  0.
         11    1    3    3    0    0  0.92155496068E+03 -0.22202390138E+02  0.11651793759E+04  0.14857319643E+04  0.00000000000E+00 0.  1.
        -11    1    3    3    0    0  0.36629226511E+03  0.14038478554E+02  0.38823068631E+03  0.53393835614E+03  0.00000000000E+00 0. -1.
          2    1    6    6  502    0 -0.37145966412E+03  0.26887402498E+03  0.15779507883E+02  0.45882950673E+03  0.00000000000E+00 0. -1.
          1    1    5    5  503    0 -0.31477755161E+02 -0.52638293737E+01 -0.42181145352E+01  0.32192382016E+02  0.00000000000E+00 0. -1.
         -2    1    5    5    0  503 -0.62863446286E+03 -0.37693064570E+03 -0.37976717873E+03  0.82551869125E+03  0.00000000000E+00 0.  1.
         -1    1    6    6    0  502 -0.25627534365E+03  0.12148436168E+03  0.44803833185E+02  0.28712869129E+03  0.00000000000E+00 0.  1.
<mgrwt>
<rscale>  0 0.34081769E+04</rscale>
<asrwt>0</asrwt>
<pdfrwt beam="1">  1        2 0.18410242E+00 0.34081769E+04</pdfrwt>
<pdfrwt beam="2">  1       -2 0.37333444E+00 0.34081769E+04</pdfrwt>
<totfact> 0.17399383E-01</totfact>
</mgrwt>
</event>
<event>
12    1  0.1960998E-007  0.3788101E+04  0.7818608E-02  0.8048713E-01
          2   -1    0    0  501    0  0.00000000000E+00  0.00000000000E+00  0.44346648313E+04  0.44346648313E+04  0.00000000000E+00 0. -1.
         -2   -1    0    0    0  501 -0.00000000000E+00 -0.00000000000E+00 -0.80895123733E+03  0.80895123733E+03  0.00000000000E+00 0.  1.
         23    2    1    2    0    0 -0.17901171045E+03 -0.17133141152E+04  0.10599969184E+04  0.20246406594E+04  0.89921536353E+02 0.  0.
        254    2    1    2    0    0  0.17901171045E+03  0.17133141152E+04  0.25657166756E+04  0.32189754093E+04  0.90078309063E+03 0.  0.
        -24    2    4    4    0    0 -0.12247992714E+03  0.16068814881E+04  0.21439513375E+04  0.26832853240E+04  0.80145760984E+02 0.  0.
         24    2    4    4    0    0  0.30149163760E+03  0.10643262706E+03  0.42176533806E+03  0.53569008525E+03  0.82781371108E+02 0.  0.
         13    1    3    3    0    0 -0.10767101368E+03 -0.10200132833E+04  0.57907115506E+03  0.11778554869E+04  0.00000000000E+00 0.  1.
        -13    1    3    3    0    0 -0.71340696772E+02 -0.69330083187E+03  0.48092576333E+03  0.84678517248E+03  0.00000000000E+00 0. -1.
          4    1    6    6  502    0  0.74590384688E+02  0.18690683195E+02  0.16467092681E+03  0.18174042276E+03  0.00000000000E+00 0. -1.
          3    1    5    5  503    0 -0.24802052510E+02  0.58676867104E+03  0.72660748220E+03  0.93427568111E+03  0.00000000000E+00 0. -1.
         -4    1    5    5    0  503 -0.97677874635E+02  0.10201128171E+04  0.14173438553E+04  0.17490096429E+04  0.00000000000E+00 0.  1.
         -3    1    6    6    0  502  0.22690125291E+03  0.87741943866E+02  0.25709441125E+03  0.35394966250E+03  0.00000000000E+00 0.  1.
<mgrwt>
<rscale>  0 0.37881012E+04</rscale>
<asrwt>0</asrwt>
<pdfrwt beam="1">  1        2 0.68225611E+00 0.37881012E+04</pdfrwt>
<pdfrwt beam="2">  1       -2 0.12445404E+00 0.37881012E+04</pdfrwt>
<totfact> 0.55052523E-02</totfact>
</mgrwt>
</event>
<event>
12    1  0.1960998E-007  0.1403915E+04  0.7818608E-02  0.8950990E-01
          1   -1    0    0  501    0  0.00000000000E+00  0.00000000000E+00  0.38623222476E+04  0.38623222476E+04  0.00000000000E+00 0. -1.
         -1   -1    0    0    0  501 -0.00000000000E+00 -0.00000000000E+00 -0.12757720664E+03  0.12757720664E+03  0.00000000000E+00 0.  1.
         23    2    1    2    0    0 -0.25476324477E+03 -0.30345622248E+03  0.13454432415E+04  0.14056529305E+04  0.93019648964E+02 0.  0.
        254    2    1    2    0    0  0.25476324477E+03  0.30345622248E+03  0.23893017995E+04  0.25842465238E+04  0.90143053904E+03 0.  0.
        -24    2    4    4    0    0  0.54759286975E+03  0.12906973088E+02  0.15357928300E+04  0.16325611098E+04  0.81065526386E+02 0.  0.
         24    2    4    4    0    0 -0.29282962497E+03  0.29054924939E+03  0.85350896950E+03  0.95168541399E+03  0.84020893810E+02 0.  0.
         11    1    3    3    0    0 -0.15173702079E+03 -0.22647675792E+03  0.79702787743E+03  0.84235935488E+03  0.00000000000E+00 0. -1.
        -11    1    3    3    0    0 -0.10302622398E+03 -0.76979464560E+02  0.54841536404E+03  0.56329357559E+03  0.00000000000E+00 0.  1.
          4    1    6    6  502    0 -0.26480679401E+03  0.21874228094E+03  0.67978879298E+03  0.76163221221E+03  0.00000000000E+00 0. -1.
          1    1    5    5  503    0  0.38299102352E+03  0.20814567496E+02  0.11724618266E+04  0.12336053279E+04  0.00000000000E+00 0. -1.
         -2    1    5    5    0  503  0.16460184623E+03 -0.79075944073E+01  0.36333100340E+03  0.39895578184E+03  0.00000000000E+00 0.  1.
         -3    1    6    6    0  502 -0.28022830966E+02  0.71806968458E+02  0.17372017653E+03  0.19005320178E+03  0.00000000000E+00 0.  1.
<mgrwt>
<rscale>  0 0.14039149E+04</rscale>
<asrwt>0</asrwt>
<pdfrwt beam="1">  1        1 0.59420333E+00 0.14039149E+04</pdfrwt>
<pdfrwt beam="2">  1       -1 0.19627266E-01 0.14039149E+04</pdfrwt>
<totfact> 0.26518470E+00</totfact>
</mgrwt>
</event>
<event>
12    1  0.1960998E-007  0.1836492E+04  0.7818608E-02  0.8687131E-01
          1   -1    0    0  501    0  0.00000000000E+00  0.00000000000E+00  0.63404223508E+03  0.63404223508E+03  0.00000000000E+00 0. -1.
         -1   -1    0    0    0  501 -0.00000000000E+00 -0.00000000000E+00 -0.13298411223E+04  0.13298411223E+04  0.00000000000E+00 0.  1.
         23    2    1    2    0    0  0.59123231706E+03  0.36084725617E+03 -0.24350746197E+03  0.74081417485E+03  0.98708472782E+02 0.  0.
        254    2    1    2    0    0 -0.59123231706E+03 -0.36084725617E+03 -0.45229142522E+03  0.12230691825E+04  0.90086863460E+03 0.  0.
        -24    2    4    4    0    0  0.93287789212E+02 -0.42569930546E+03 -0.14688935103E+03  0.46615670680E+03  0.76177972980E+02 0.  0.
         24    2    4    4    0    0 -0.68452010628E+03  0.64852049282E+02 -0.30540207419E+03  0.75691247569E+03  0.82900571461E+02 0.  0.
         13    1    3    3    0    0  0.19321390079E+03  0.68955348495E+02 -0.88942780171E+02  0.22360069251E+03  0.00000000000E+00 0. -1.
        -13    1    3    3    0    0  0.39801841627E+03  0.29189190768E+03 -0.15456468180E+03  0.51721348234E+03  0.00000000000E+00 0.  1.
          4    1    6    6  502    0 -0.11700271310E+03 -0.18122527326E+02 -0.64462905586E+02  0.13480922471E+03  0.00000000000E+00 0. -1.
          3    1    5    5  503    0 -0.95029309169E+01 -0.73856198263E+02 -0.38988886961E+02  0.84054607395E+02  0.00000000000E+00 0. -1.
         -4    1    5    5    0  503  0.10279072013E+03 -0.35184310719E+03 -0.10790046407E+03  0.38210209940E+03  0.00000000000E+00 0.  1.
         -1    1    6    6    0  502 -0.56751739317E+03  0.82974576608E+02 -0.24093916860E+03  0.62210325099E+03  0.00000000000E+00 0.  1.
<mgrwt>
<rscale>  0 0.18364917E+04</rscale>
<asrwt>0</asrwt>
<pdfrwt beam="1">  1        1 0.97544961E-01 0.18364917E+04</pdfrwt>
<pdfrwt beam="2">  1       -1 0.20459094E+00 0.18364917E+04</pdfrwt>
<totfact> 0.41589625E+00</totfact>
</mgrwt>
</event>
<event>
12    1  0.1960998E-007  0.1298935E+04  0.7818608E-02  0.9030410E-01
          1   -1    0    0  501    0  0.00000000000E+00  0.00000000000E+00  0.98418141479E+03  0.98418141479E+03  0.00000000000E+00 0. -1.
         -1   -1    0    0    0  501 -0.00000000000E+00 -0.00000000000E+00 -0.42858765416E+03  0.42858765416E+03  0.00000000000E+00 0.  1.
         23    2    1    2    0    0 -0.28307216952E+03 -0.84614557078E+02 -0.43308819640E+01  0.30900288898E+03  0.90413231515E+02 0.  0.
        254    2    1    2    0    0  0.28307216952E+03  0.84614557078E+02  0.55992464259E+03  0.11037661800E+04  0.90415413410E+03 0.  0.
        -24    2    4    4    0    0 -0.21892626185E+03 -0.22382952585E+03  0.34224822334E+03  0.47072350998E+03  0.80114990449E+02 0.  0.
         24    2    4    4    0    0  0.50199843137E+03  0.30844408293E+03  0.21767641925E+03  0.63304266999E+03  0.78865842625E+02 0.  0.
         11    1    3    3    0    0 -0.16066477515E+03 -0.19575158263E+02 -0.38225376419E+02  0.16630555071E+03  0.00000000000E+00 0.  1.
        -11    1    3    3    0    0 -0.12240739438E+03 -0.65039398815E+02  0.33894494455E+02  0.14269733827E+03  0.00000000000E+00 0. -1.
          2    1    6    6  502    0  0.33985130509E+03  0.25010026631E+03  0.16115390745E+03  0.45168532705E+03  0.00000000000E+00 0. -1.
          1    1    5    5  503    0 -0.13264615913E+03 -0.15542654548E+03  0.27167977259E+03  0.33994457402E+03  0.00000000000E+00 0. -1.
         -2    1    5    5    0  503 -0.86280102714E+02 -0.68402980374E+02  0.70568450756E+02  0.13077893596E+03  0.00000000000E+00 0.  1.
         -1    1    6    6    0  502  0.16214712628E+03  0.58343816616E+02  0.56522511798E+02  0.18135734294E+03  0.00000000000E+00 0.  1.
<mgrwt>
<rscale>  0 0.12989350E+04</rscale>
<asrwt>0</asrwt>
<pdfrwt beam="1">  1        1 0.15141252E+00 0.12989350E+04</pdfrwt>
<pdfrwt beam="2">  1       -1 0.65936562E-01 0.12989350E+04</pdfrwt>
<totfact> 0.35670580E+01</totfact>
</mgrwt>
</event>
<event>
12    1  0.1960998E-007  0.1883031E+04  0.7818608E-02  0.8663349E-01
         -2   -1    0    0    0  501 -0.00000000000E+00  0.00000000000E+00  0.22820172358E+03  0.22820172358E+03  0.00000000000E+00 0.  1.
          2   -1    0    0  501    0  0.00000000000E+00 -0.00000000000E+00 -0.38845096463E+04  0.38845096463E+04  0.00000000000E+00 0. -1.
         23    2    1    2    0    0  0.44745701127E+03  0.56573560249E+03 -0.14802997232E+04  0.16492895497E+04  0.92704903990E+02 0.  0.
        254    2    1    2    0    0 -0.44745701127E+03 -0.56573560249E+03 -0.21760081995E+04  0.24634218202E+04  0.90175430753E+03 0.  0.
        -24    2    4    4    0    0 -0.12488355256E+03 -0.47030051772E+02 -0.16380200921E+04  0.16453939673E+04  0.80023484487E+02 0.  0.
         24    2    4    4    0    0 -0.32257345871E+03 -0.51870555071E+03 -0.53798810743E+03  0.81802785294E+03  0.81420389554E+02 0.  0.
         13    1    3    3    0    0  0.32516239684E+03  0.34036724242E+03 -0.94525044652E+03  0.10559729403E+04  0.00000000000E+00 0. -1.
        -13    1    3    3    0    0  0.12229461444E+03  0.22536836007E+03 -0.53504927672E+03  0.59331660937E+03  0.00000000000E+00 0.  1.
          4    1    6    6  502    0 -0.16864889977E+03 -0.20858353110E+03 -0.20427900207E+03  0.33716383485E+03  0.00000000000E+00 0. -1.
          1    1    5    5  503    0 -0.19467845439E+02 -0.44711679853E+02 -0.62566559933E+03  0.62756320279E+03  0.00000000000E+00 0. -1.
         -2    1    5    5    0  503 -0.10541570713E+03 -0.23183719186E+01 -0.10123544927E+04  0.10178307645E+04  0.00000000000E+00 0.  1.
         -3    1    6    6    0  502 -0.15392455894E+03 -0.31012201961E+03 -0.33370910536E+03  0.48086401809E+03  0.00000000000E+00 0.  1.
<mgrwt>
<rscale>  0 0.18830314E+04</rscale>
<asrwt>0</asrwt>
<pdfrwt beam="1">  1        2 0.59761684E+00 0.18830314E+04</pdfrwt>
<pdfrwt beam="2">  1       -2 0.35107959E-01 0.18830314E+04</pdfrwt>
<totfact> 0.30534292E+00</totfact>
</mgrwt>
</event>
<event>
12    1  0.1960998E-007  0.1847927E+04  0.7818608E-02  0.8681220E-01
          1   -1    0    0  501    0  0.00000000000E+00  0.00000000000E+00  0.50294493357E+03  0.50294493357E+03  0.00000000000E+00 0. -1.
         -1   -1    0    0    0  501 -0.00000000000E+00 -0.00000000000E+00 -0.16974188705E+04  0.16974188705E+04  0.00000000000E+00 0.  1.
         23    2    1    2    0    0  0.24398923527E+03 -0.51823359623E+03 -0.93918913007E+03  0.11036818395E+04  0.89109896106E+02 0.  0.
        254    2    1    2    0    0 -0.24398923527E+03  0.51823359623E+03 -0.25528480688E+03  0.10966819646E+04  0.89969116462E+03 0.  0.
        -24    2    4    4    0    0  0.15521521654E+03  0.32645478081E+03 -0.47044285695E+03  0.59861606004E+03  0.79750976960E+02 0.  0.
         24    2    4    4    0    0 -0.39920445180E+03  0.19177881541E+03  0.21515805008E+03  0.49806590456E+03  0.75055648651E+02 0.  0.
         13    1    3    3    0    0  0.10828024195E+03 -0.30709941925E+03 -0.58599161062E+03  0.67038856779E+03  0.00000000000E+00 0. -1.
        -13    1    3    3    0    0  0.13570899332E+03 -0.21113417698E+03 -0.35319751945E+03  0.43329327170E+03  0.00000000000E+00 0.  1.
          4    1    6    6  502    0 -0.12204257056E+03  0.74296905027E+02  0.34502166153E+02  0.14698577684E+03  0.00000000000E+00 0. -1.
          3    1    5    5  503    0  0.75341413543E+00  0.20739383217E+02 -0.61379686317E+01  0.21641726087E+02  0.00000000000E+00 0. -1.
         -4    1    5    5    0  503  0.15446180240E+03  0.30571539760E+03 -0.46430488832E+03  0.57697433396E+03  0.00000000000E+00 0.  1.
         -3    1    6    6    0  502 -0.27716188125E+03  0.11748191039E+03  0.18065588392E+03  0.35108012772E+03  0.00000000000E+00 0.  1.
<mgrwt>
<rscale>  0 0.18479266E+04</rscale>
<asrwt>0</asrwt>
<pdfrwt beam="1">  1        1 0.77376143E-01 0.18479266E+04</pdfrwt>
<pdfrwt beam="2">  1       -1 0.26114137E+00 0.18479266E+04</pdfrwt>
<totfact> 0.24375202E+00</totfact>
</mgrwt>
</event>
<event>
12    1  0.1960998E-007  0.1389587E+04  0.7818608E-02  0.8961391E-01
          2   -1    0    0  501    0  0.00000000000E+00  0.00000000000E+00  0.11685879936E+04  0.11685879936E+04  0.00000000000E+00 0. -1.
         -2   -1    0    0    0  501 -0.00000000000E+00 -0.00000000000E+00 -0.41309524173E+03  0.41309524173E+03  0.00000000000E+00 0.  1.
         23    2    1    2    0    0  0.30817835333E+03  0.19406126637E+03  0.10338749570E+03  0.39015563649E+03  0.94333312543E+02 0.  0.
        254    2    1    2    0    0 -0.30817835333E+03 -0.19406126637E+03  0.65210525621E+03  0.11915275989E+04  0.92836581213E+03 0.  0.
        -24    2    4    4    0    0 -0.25782377499E+03  0.29481359546E+03  0.55511840091E+03  0.68392849438E+03  0.78826336887E+02 0.  0.
         24    2    4    4    0    0 -0.50354578339E+02 -0.48887486183E+03  0.96986855300E+02  0.50759910449E+03  0.81952343980E+02 0.  0.
         13    1    3    3    0    0  0.14934447196E+03  0.13113555794E+03  0.91785807311E+02  0.21891765640E+03  0.00000000000E+00 0. -1.
        -13    1    3    3    0    0  0.15883388136E+03  0.62925708424E+02  0.11601688390E+02  0.17123798009E+03  0.00000000000E+00 0.  1.
          2    1    6    6  502    0 -0.39776098302E+02 -0.33804317536E+03  0.28369157849E+02  0.34155546478E+03  0.00000000000E+00 0. -1.
          1    1    5    5  503    0 -0.87467340848E+02  0.92912871929E+02  0.12161665017E+03  0.17627803914E+03  0.00000000000E+00 0. -1.
         -2    1    5    5    0  503 -0.17035643414E+03  0.20190072354E+03  0.43350175074E+03  0.50765045524E+03  0.00000000000E+00 0.  1.
         -1    1    6    6    0  502 -0.10578480037E+02 -0.15083168647E+03  0.68617697450E+02  0.16604363971E+03  0.00000000000E+00 0.  1.
<mgrwt>
<rscale>  0 0.13895872E+04</rscale>
<asrwt>0</asrwt>
<pdfrwt beam="1">  1        2 0.17978277E+00 0.13895872E+04</pdfrwt>
<pdfrwt beam="2">  1       -2 0.63553115E-01 0.13895872E+04</pdfrwt>
<totfact> 0.44153194E+01</totfact>
</mgrwt>
</event>
<event>
12    1  0.1960998E-007  0.2603593E+04  0.7818608E-02  0.8366982E-01
          2   -1    0    0  501    0  0.00000000000E+00  0.00000000000E+00  0.27341319865E+04  0.27341319865E+04  0.00000000000E+00 0. -1.
         -2   -1    0    0    0  501 -0.00000000000E+00 -0.00000000000E+00 -0.61982183375E+03  0.61982183375E+03  0.00000000000E+00 0.  1.
         23    2    1    2    0    0  0.88558842173E+03 -0.13498351477E+03  0.18488897589E+04  0.20564253823E+04  0.89468487421E+02 0.  0.
        254    2    1    2    0    0 -0.88558842173E+03  0.13498351477E+03  0.26542039385E+03  0.12975284380E+04  0.90035807321E+03 0.  0.
        -24    2    4    4    0    0 -0.36220750751E+03  0.42950209764E+03 -0.11953398357E+03  0.57975716580E+03  0.78509029338E+02 0.  0.
         24    2    4    4    0    0 -0.52338091422E+03 -0.29451858288E+03  0.38495437742E+03  0.71777127221E+03  0.79604958876E+02 0.  0.
         11    1    3    3    0    0  0.55427028088E+03 -0.10093024606E+03  0.12514746943E+04  0.13724399329E+04  0.00000000000E+00 0. -1.
        -11    1    3    3    0    0  0.33131814085E+03 -0.34053268704E+02  0.59741506459E+03  0.68398544938E+03  0.00000000000E+00 0.  1.
          2    1    6    6  502    0 -0.14294234714E+03 -0.58816667019E+02  0.13464629867E+03  0.20499156244E+03  0.00000000000E+00 0. -1.
          3    1    5    5  503    0  0.38798321173E+01  0.87151742618E+01 -0.25363801357E+01  0.98711997176E+01  0.00000000000E+00 0. -1.
         -4    1    5    5    0  503 -0.36608733962E+03  0.42078692338E+03 -0.11699760344E+03  0.56988596608E+03  0.00000000000E+00 0.  1.
         -1    1    6    6    0  502 -0.38043856709E+03 -0.23570191586E+03  0.25030807875E+03  0.51277970977E+03  0.00000000000E+00 0.  1.
<mgrwt>
<rscale>  0 0.26035934E+04</rscale>
<asrwt>0</asrwt>
<pdfrwt beam="1">  1        2 0.42063568E+00 0.26035934E+04</pdfrwt>
<pdfrwt beam="2">  1       -2 0.95357206E-01 0.26035934E+04</pdfrwt>
<totfact> 0.20694478E+00</totfact>
</mgrwt>
</event>
<event>
12    1  0.1960998E-007  0.5601189E+04  0.7818608E-02  0.7741917E-01
          2   -1    0    0  501    0  0.00000000000E+00  0.00000000000E+00  0.27024554656E+04  0.27024554656E+04  0.00000000000E+00 0. -1.
         -2   -1    0    0    0  501 -0.00000000000E+00 -0.00000000000E+00 -0.29022976001E+04  0.29022976001E+04  0.00000000000E+00 0.  1.
         23    2    1    2    0    0  0.12222099939E+04  0.17350091550E+04  0.16203993428E+04  0.26716947402E+04  0.90579895121E+02 0.  0.
        254    2    1    2    0    0 -0.12222099939E+04 -0.17350091550E+04 -0.18202414773E+04  0.29330583255E+04  0.88628328888E+03 0.  0.
        -24    2    4    4    0    0 -0.92041624601E+03 -0.55118759833E+03 -0.83617765570E+03  0.13623574818E+04  0.76491841105E+02 0.  0.
         24    2    4    4    0    0 -0.30179374787E+03 -0.11838215566E+04 -0.98406382159E+03  0.15707008437E+04  0.78781922573E+02 0.  0.
         13    1    3    3    0    0  0.87601936153E+03  0.12866467057E+04  0.12271927979E+04  0.19821381966E+04  0.00000000000E+00 0. -1.
        -13    1    3    3    0    0  0.34619063235E+03  0.44836244928E+03  0.39320654492E+03  0.68955654360E+03  0.00000000000E+00 0.  1.
          2    1    6    6  502    0 -0.24415776734E+03 -0.95697170152E+03 -0.83410375246E+03  0.12927246121E+04  0.00000000000E+00 0. -1.
          3    1    5    5  503    0 -0.88152825163E+03 -0.54204761188E+03 -0.79479892178E+03  0.13048421353E+04  0.00000000000E+00 0. -1.
         -4    1    5    5    0  503 -0.38887994374E+02 -0.91399864512E+01 -0.41378733922E+02  0.57515346472E+02  0.00000000000E+00 0.  1.
         -1    1    6    6    0  502 -0.57635980529E+02 -0.22684985511E+03 -0.14996006913E+03  0.27797623163E+03  0.00000000000E+00 0.  1.
<mgrwt>
<rscale>  0 0.56011892E+04</rscale>
<asrwt>0</asrwt>
<pdfrwt beam="1">  1        2 0.41576238E+00 0.56011892E+04</pdfrwt>
<pdfrwt beam="2">  1       -2 0.44650732E+00 0.56011892E+04</pdfrwt>
<totfact> 0.67509143E-03</totfact>
</mgrwt>
</event>
<event>
12    1  0.1960998E-007  0.2409748E+04  0.7818608E-02  0.8435863E-01
         -2   -1    0    0    0  501 -0.00000000000E+00  0.00000000000E+00  0.53082109251E+03  0.53082109251E+03  0.00000000000E+00 0.  1.
          2   -1    0    0  501    0  0.00000000000E+00 -0.00000000000E+00 -0.27348589996E+04  0.27348589996E+04  0.00000000000E+00 0. -1.
         23    2    1    2    0    0  0.75342829029E+03 -0.47017340466E+03 -0.23263798578E+03  0.92285357381E+03  0.93920536683E+02 0.  0.
        254    2    1    2    0    0 -0.75342829029E+03  0.47017340466E+03 -0.19713999213E+04  0.23428265183E+04  0.90205389308E+03 0.  0.
        -24    2    4    4    0    0 -0.30795185084E+03  0.67240613718E+03 -0.94568803092E+03  0.12037685853E+04  0.88139658074E+02 0.  0.
         24    2    4    4    0    0 -0.44547643945E+03 -0.20223273251E+03 -0.10257118904E+04  0.11390579330E+04  0.77593533749E+02 0.  0.
         13    1    3    3    0    0  0.57227435479E+03 -0.33767046860E+03 -0.13474977214E+03  0.67799467816E+03  0.00000000000E+00 0. -1.
        -13    1    3    3    0    0  0.18115393550E+03 -0.13250293606E+03 -0.97888213648E+02  0.24485889566E+03  0.00000000000E+00 0.  1.
          2    1    6    6  502    0 -0.18738607354E+03 -0.80322492056E+02 -0.34201013784E+03  0.39816601773E+03  0.00000000000E+00 0. -1.
          1    1    5    5  503    0 -0.25717675985E+03  0.47283139987E+03 -0.70569918238E+03  0.88753633983E+03  0.00000000000E+00 0. -1.
         -2    1    5    5    0  503 -0.50775090992E+02  0.19957473730E+03 -0.23998884854E+03  0.31623224544E+03  0.00000000000E+00 0.  1.
         -1    1    6    6    0  502 -0.25809036591E+03 -0.12191024046E+03 -0.68370175257E+03  0.74089191531E+03  0.00000000000E+00 0.  1.
<mgrwt>
<rscale>  0 0.24097476E+04</rscale>
<asrwt>0</asrwt>
<pdfrwt beam="1">  1        2 0.42074753E+00 0.24097476E+04</pdfrwt>
<pdfrwt beam="2">  1       -2 0.81664784E-01 0.24097476E+04</pdfrwt>
<totfact> 0.30010588E+00</totfact>
</mgrwt>
</event>
<event>
12    1  0.1960998E-007  0.1509007E+04  0.7818608E-02  0.8878486E-01
          1   -1    0    0  501    0  0.00000000000E+00  0.00000000000E+00  0.22129866404E+04  0.22129866404E+04  0.00000000000E+00 0. -1.
         -1   -1    0    0    0  501 -0.00000000000E+00 -0.00000000000E+00 -0.25724292853E+03  0.25724292853E+03  0.00000000000E+00 0.  1.
         23    2    1    2    0    0 -0.62078442798E+02 -0.47120430976E+03  0.54704397615E+03  0.73034446656E+03  0.90877353544E+02 0.  0.
        254    2    1    2    0    0  0.62078442798E+02  0.47120430976E+03  0.14086997358E+04  0.17398851024E+04  0.90381302793E+03 0.  0.
        -24    2    4    4    0    0 -0.23878124301E+03 -0.17240781623E+03  0.47878041300E+03  0.56688400348E+03  0.73388367026E+02 0.  0.
         24    2    4    4    0    0  0.30085968581E+03  0.64361212599E+03  0.92991932275E+03  0.11730010989E+04  0.80178001857E+02 0.  0.
         13    1    3    3    0    0 -0.53744289995E+02 -0.25165500229E+03  0.23345049455E+03  0.34744470393E+03  0.00000000000E+00 0.  1.
        -13    1    3    3    0    0 -0.83341528032E+01 -0.21954930747E+03  0.31359348160E+03  0.38289976263E+03  0.00000000000E+00 0. -1.
          2    1    6    6  502    0  0.10266106281E+03  0.30275125818E+03  0.44720132691E+03  0.54971505795E+03  0.00000000000E+00 0. -1.
          3    1    5    5  503    0  0.34395627907E+01 -0.13229792624E+02  0.22628222610E+02  0.26436612180E+02  0.00000000000E+00 0. -1.
         -4    1    5    5    0  503 -0.24222080580E+03 -0.15917802361E+03  0.45615219039E+03  0.54044739130E+03  0.00000000000E+00 0.  1.
         -3    1    6    6    0  502  0.19819862300E+03  0.34086086782E+03  0.48271799585E+03  0.62328604098E+03  0.00000000000E+00 0.  1.
<mgrwt>
<rscale>  0 0.15090065E+04</rscale>
<asrwt>0</asrwt>
<pdfrwt beam="1">  1        1 0.34045947E+00 0.15090065E+04</pdfrwt>
<pdfrwt beam="2">  1       -1 0.39575837E-01 0.15090065E+04</pdfrwt>
<totfact> 0.12831798E+01</totfact>
</mgrwt>
</event>
<event>
12    1  0.1960998E-007  0.5190295E+04  0.7818608E-02  0.7799805E-01
         -1   -1    0    0    0  501 -0.00000000000E+00  0.00000000000E+00  0.29284468342E+04  0.29284468342E+04  0.00000000000E+00 0. -1.
          1   -1    0    0  501    0  0.00000000000E+00 -0.00000000000E+00 -0.22997820864E+04  0.22997820864E+04  0.00000000000E+00 0.  1.
         23    2    1    2    0    0  0.24507916379E+04 -0.56393412125E+03  0.38646287752E+03  0.25461161050E+04  0.94616694366E+02 0.  0.
        254    2    1    2    0    0 -0.24507916379E+04  0.56393412125E+03  0.24220187032E+03  0.26821128157E+04  0.90036995973E+03 0.  0.
        -24    2    4    4    0    0 -0.74187498858E+03  0.36061741255E+03  0.45622522595E+03  0.94605844683E+03  0.80384769214E+02 0.  0.
         24    2    4    4    0    0 -0.17089166493E+04  0.20331670870E+03 -0.21402335563E+03  0.17360543688E+04  0.79655359905E+02 0.  0.
         13    1    3    3    0    0  0.16033592384E+04 -0.39752205038E+03  0.28939213078E+03  0.16770606528E+04  0.00000000000E+00 0. -1.
        -13    1    3    3    0    0  0.84743239952E+03 -0.16641207087E+03  0.97070746739E+02  0.86905545217E+03  0.00000000000E+00 0.  1.
          4    1    6    6  502    0 -0.25687110533E+02  0.47762114114E+01 -0.13282593273E+02  0.29309846930E+02  0.00000000000E+00 0. -1.
          3    1    5    5  503    0 -0.29895887571E+03  0.15302883715E+03  0.14172335343E+03  0.36452673876E+03  0.00000000000E+00 0. -1.
         -4    1    5    5    0  503 -0.44291611287E+03  0.20758857540E+03  0.31450187252E+03  0.58153170807E+03  0.00000000000E+00 0.  1.
         -3    1    6    6    0  502 -0.16832295388E+04  0.19854049729E+03 -0.20074076236E+03  0.17067445219E+04  0.00000000000E+00 0.  1.
<mgrwt>
<rscale>  0 0.51902946E+04</rscale>
<asrwt>0</asrwt>
<pdfrwt beam="1">  1        1 0.35381263E+00 0.51902946E+04</pdfrwt>
<pdfrwt beam="2">  1       -1 0.45053028E+00 0.51902946E+04</pdfrwt>
<totfact> 0.42604507E-03</totfact>
</mgrwt>
</event>
<event>
12    1  0.1960998E-007  0.2462282E+04  0.7818608E-02  0.8416547E-01
         -1   -1    0    0    0  501 -0.00000000000E+00  0.00000000000E+00  0.48465533925E+03  0.48465533925E+03  0.00000000000E+00 0.  1.
          1   -1    0    0  501    0  0.00000000000E+00 -0.00000000000E+00 -0.31273934938E+04  0.31273934938E+04  0.00000000000E+00 0. -1.
         23    2    1    2    0    0  0.10721953903E+04 -0.30413124653E+02 -0.11157121925E+04  0.15502041375E+04  0.88268104385E+02 0.  0.
        254    2    1    2    0    0 -0.10721953903E+04  0.30413124653E+02 -0.15270259620E+04  0.20618446956E+04  0.87685081210E+03 0.  0.
        -24    2    4    4    0    0 -0.83523363364E+02 -0.28689899828E+03 -0.17477545818E+03  0.35505003269E+03  0.78910566380E+02 0.  0.
         24    2    4    4    0    0 -0.98867202695E+03  0.31731212294E+03 -0.13522505039E+04  0.17067946629E+04  0.80045210697E+02 0.  0.
         13    1    3    3    0    0  0.32672826563E+03 -0.11605804143E+02 -0.39998595735E+03  0.51659928410E+03  0.00000000000E+00 0. -1.
        -13    1    3    3    0    0  0.74546712469E+03 -0.18807320509E+02 -0.71572623518E+03  0.10336048534E+04  0.00000000000E+00 0.  1.
          2    1    6    6  502    0 -0.37399234367E+03  0.13674452123E+03 -0.46089601966E+03  0.60909316048E+03  0.00000000000E+00 0. -1.
          3    1    5    5  503    0 -0.69006647475E+02 -0.18327703338E+03 -0.72765890559E+02  0.20891927433E+03  0.00000000000E+00 0. -1.
         -4    1    5    5    0  503 -0.14516715889E+02 -0.10362196490E+03 -0.10200956762E+03  0.14613075835E+03  0.00000000000E+00 0.  1.
         -1    1    6    6    0  502 -0.61467968329E+03  0.18056760170E+03 -0.89135448420E+03  0.10977015024E+04  0.00000000000E+00 0.  1.
<mgrwt>
<rscale>  0 0.24622818E+04</rscale>
<asrwt>0</asrwt>
<pdfrwt beam="1">  1        1 0.48113745E+00 0.24622818E+04</pdfrwt>
<pdfrwt beam="2">  1       -1 0.74562362E-01 0.24622818E+04</pdfrwt>
<totfact> 0.77714071E-01</totfact>
</mgrwt>
</event>
<event>
12    1  0.1960998E-007  0.1453123E+04  0.7818608E-02  0.8916239E-01
          2   -1    0    0  501    0  0.00000000000E+00  0.00000000000E+00  0.14469850957E+04  0.14469850957E+04  0.00000000000E+00 0. -1.
         -2   -1    0    0    0  501 -0.00000000000E+00 -0.00000000000E+00 -0.36482155327E+03  0.36482155327E+03  0.00000000000E+00 0.  1.
         23    2    1    2    0    0 -0.25999651832E+03 -0.35145608319E+03  0.39701902979E+03  0.59714733465E+03  0.88550896695E+02 0.  0.
        254    2    1    2    0    0  0.25999651832E+03  0.35145608319E+03  0.68514451266E+03  0.12146593144E+04  0.90269301469E+03 0.  0.
        -24    2    4    4    0    0  0.40362147760E+03 -0.16609772718E+03  0.20072639547E+03  0.48675177638E+03  0.78341903346E+02 0.  0.
         24    2    4    4    0    0 -0.14362495928E+03  0.51755381037E+03  0.48441811719E+03  0.72790753797E+03  0.81843729248E+02 0.  0.
         13    1    3    3    0    0 -0.19136216139E+03 -0.25487006895E+03  0.33872810625E+03  0.46509671986E+03  0.00000000000E+00 0. -1.
        -13    1    3    3    0    0 -0.68634356929E+02 -0.96586014245E+02  0.58290923543E+02  0.13205061479E+03  0.00000000000E+00 0.  1.
          4    1    6    6  502    0 -0.24239142319E+02  0.17262040163E+03  0.11659981345E+03  0.20971613094E+03  0.00000000000E+00 0. -1.
          3    1    5    5  503    0  0.17725069388E+03 -0.11037865154E+03  0.11485128592E+03  0.23831087485E+03  0.00000000000E+00 0. -1.
         -4    1    5    5    0  503  0.22637078372E+03 -0.55719075646E+02  0.85875109544E+02  0.24844090153E+03  0.00000000000E+00 0.  1.
         -3    1    6    6    0  502 -0.11938581696E+03  0.34493340874E+03  0.36781830374E+03  0.51819140703E+03  0.00000000000E+00 0.  1.
<mgrwt>
<rscale>  0 0.14531226E+04</rscale>
<asrwt>0</asrwt>
<pdfrwt beam="1">  1        2 0.22261309E+00 0.14531226E+04</pdfrwt>
<pdfrwt beam="2">  1       -2 0.56126394E-01 0.14531226E+04</pdfrwt>
<totfact> 0.39302061E+01</totfact>
</mgrwt>
</event>
<event>
12    1  0.1960998E-007  0.2328724E+04  0.7818608E-02  0.8466681E-01
         -2   -1    0    0    0  501 -0.00000000000E+00  0.00000000000E+00  0.10518856226E+04  0.10518856226E+04  0.00000000000E+00 0.  1.
          2   -1    0    0  501    0  0.00000000000E+00 -0.00000000000E+00 -0.12888650993E+04  0.12888650993E+04  0.00000000000E+00 0. -1.
         23    2    1    2    0    0  0.94776671022E+03  0.94075611980E+02 -0.36634411706E+03  0.10244765888E+04  0.90732084506E+02 0.  0.
        254    2    1    2    0    0 -0.94776671022E+03 -0.94075611980E+02  0.12936464031E+03  0.13162741331E+04  0.89929440426E+03 0.  0.
        -24    2    4    4    0    0 -0.38094729493E+02  0.24433489314E+03 -0.15298715223E+03  0.30227543549E+03  0.82550722175E+02 0.  0.
         24    2    4    4    0    0 -0.90967198072E+03 -0.33841050512E+03  0.28235179254E+03  0.10139986976E+04  0.80287243818E+02 0.  0.
         13    1    3    3    0    0  0.40552103855E+02  0.55639119264E+01  0.28363177550E+01  0.41030171111E+02  0.00000000000E+00 0.  1.
        -13    1    3    3    0    0  0.90721460636E+03  0.88511700054E+02 -0.36918043482E+03  0.98344641770E+03  0.00000000000E+00 0. -1.
          4    1    6    6  502    0 -0.53050854807E+03 -0.18375180471E+03  0.12404189369E+03  0.57496994417E+03  0.00000000000E+00 0. -1.
          1    1    5    5  503    0 -0.38766318712E+02  0.67465425471E+02 -0.18227164914E+02  0.79916460390E+02  0.00000000000E+00 0. -1.
         -2    1    5    5    0  503  0.67158921855E+00  0.17686946767E+03 -0.13475998732E+03  0.22235897510E+03  0.00000000000E+00 0.  1.
         -3    1    6    6    0  502 -0.37916343265E+03 -0.15465870040E+03  0.15830989885E+03  0.43902875344E+03  0.00000000000E+00 0.  1.
<mgrwt>
<rscale>  0 0.23287238E+04</rscale>
<asrwt>0</asrwt>
<pdfrwt beam="1">  1        2 0.19828694E+00 0.23287238E+04</pdfrwt>
<pdfrwt beam="2">  1       -2 0.16182856E+00 0.23287238E+04</pdfrwt>
<totfact> 0.37068200E+00</totfact>
</mgrwt>
</event>
<event>
12    1  0.1960998E-007  0.1829431E+04  0.7818608E-02  0.8690803E-01
          2   -1    0    0  501    0  0.00000000000E+00  0.00000000000E+00  0.15933401550E+04  0.15933401550E+04  0.00000000000E+00 0.  1.
         -2   -1    0    0    0  501 -0.00000000000E+00 -0.00000000000E+00 -0.52512600480E+03  0.52512600480E+03  0.00000000000E+00 0. -1.
         23    2    1    2    0    0 -0.42657881168E+03  0.54093963056E+03  0.44712209351E+03  0.82614167238E+03  0.89480332224E+02 0.  0.
        254    2    1    2    0    0  0.42657881168E+03 -0.54093963056E+03  0.62109205673E+03  0.12923244875E+04  0.89986780777E+03 0.  0.
        -24    2    4    4    0    0  0.40894724557E+03 -0.77390450856E+03  0.42307794048E+03  0.97580573716E+03  0.83880003157E+02 0.  0.
         24    2    4    4    0    0  0.17631566112E+02  0.23296487801E+03  0.19801411625E+03  0.31651875029E+03  0.79943871204E+02 0.  0.
         11    1    3    3    0    0 -0.16313003566E+03  0.15101713894E+03  0.17168826604E+03  0.28088155063E+03  0.00000000000E+00 0. -1.
        -11    1    3    3    0    0 -0.26344877601E+03  0.38992249162E+03  0.27543382748E+03  0.54526012175E+03  0.00000000000E+00 0.  1.
          2    1    6    6  502    0 -0.29911447763E+02  0.13111250507E+03  0.10478623271E+03  0.17048559546E+03  0.00000000000E+00 0. -1.
          1    1    5    5  503    0  0.32071730750E+03 -0.54089299584E+03  0.32697486819E+03  0.70875763749E+03  0.00000000000E+00 0. -1.
         -2    1    5    5    0  503  0.88229938062E+02 -0.23301151273E+03  0.96103072289E+02  0.26704809967E+03  0.00000000000E+00 0.  1.
         -1    1    6    6    0  502  0.47543013875E+02  0.10185237294E+03  0.93227883539E+02  0.14603315483E+03  0.00000000000E+00 0.  1.
<mgrwt>
<rscale>  0 0.18294309E+04</rscale>
<asrwt>0</asrwt>
<pdfrwt beam="1">  1        2 0.24512925E+00 0.18294309E+04</pdfrwt>
<pdfrwt beam="2">  1       -2 0.80788617E-01 0.18294309E+04</pdfrwt>
<totfact> 0.14323411E+01</totfact>
</mgrwt>
</event>
<event>
12    1  0.1960998E-007  0.2926156E+04  0.7818608E-02  0.8265138E-01
          3   -1    0    0  501    0  0.00000000000E+00  0.00000000000E+00  0.11584510788E+04  0.11584510788E+04  0.00000000000E+00 0. -1.
         -3   -1    0    0    0  501 -0.00000000000E+00 -0.00000000000E+00 -0.18478091636E+04  0.18478091636E+04  0.00000000000E+00 0.  1.
         23    2    1    2    0    0 -0.92987035018E+03  0.84714583848E+03 -0.73474129092E+03  0.14599833063E+04  0.96910011581E+02 0.  0.
        254    2    1    2    0    0  0.92987035018E+03 -0.84714583848E+03  0.45383206120E+02  0.15462769360E+04  0.89810789309E+03 0.  0.
        -24    2    4    4    0    0  0.82601526772E+03 -0.52891349417E+03  0.39048594711E+03  0.10587230059E+04  0.79777324047E+02 0.  0.
         24    2    4    4    0    0  0.10385508246E+03 -0.31823234431E+03 -0.34510274099E+03  0.48755393014E+03  0.80964373906E+02 0.  0.
         13    1    3    3    0    0 -0.62374615451E+03  0.62738621442E+03 -0.50668616383E+03  0.10195114496E+04  0.00000000000E+00 0.  1.
        -13    1    3    3    0    0 -0.30612419567E+03  0.21975962406E+03 -0.22805512709E+03  0.44047185669E+03  0.00000000000E+00 0. -1.
          2    1    6    6  502    0  0.28793018205E+02 -0.81358948136E+02 -0.43100657404E+02  0.96467523073E+02  0.00000000000E+00 0. -1.
          1    1    5    5  503    0  0.20644812451E+03 -0.92536135772E+02  0.92904723587E+02  0.24457115979E+03  0.00000000000E+00 0. -1.
         -2    1    5    5    0  503  0.61956714321E+03 -0.43637735840E+03  0.29758122352E+03  0.81415184608E+03  0.00000000000E+00 0.  1.
         -1    1    6    6    0  502  0.75062064256E+02 -0.23687339617E+03 -0.30200208359E+03  0.39108640707E+03  0.00000000000E+00 0.  1.
<mgrwt>
<rscale>  0 0.29261555E+04</rscale>
<asrwt>0</asrwt>
<pdfrwt beam="1">  1        3 0.17822324E+00 0.29261555E+04</pdfrwt>
<pdfrwt beam="2">  1       -3 0.28427833E+00 0.29261555E+04</pdfrwt>
<totfact> 0.21248874E-02</totfact>
</mgrwt>
</event>
<event>
12    1  0.1960998E-007  0.1616202E+04  0.7818608E-02  0.8810656E-01
          2   -1    0    0  501    0  0.00000000000E+00  0.00000000000E+00  0.11212795948E+04  0.11212795948E+04  0.00000000000E+00 0.  1.
         -2   -1    0    0    0  501 -0.00000000000E+00 -0.00000000000E+00 -0.58239457550E+03  0.58239457550E+03  0.00000000000E+00 0. -1.
         23    2    1    2    0    0 -0.46532053530E+03 -0.25252821145E+03  0.20042910035E+02  0.53731571440E+03  0.89514024297E+02 0.  0.
        254    2    1    2    0    0  0.46532053530E+03  0.25252821145E+03  0.51884210923E+03  0.11663584559E+04  0.90050053586E+03 0.  0.
        -24    2    4    4    0    0 -0.21996790178E+03  0.12948694721E+03  0.35876275262E+03  0.44751490388E+03  0.80038298428E+02 0.  0.
         24    2    4    4    0    0  0.68528843708E+03  0.12304126424E+03  0.16007935661E+03  0.71884355198E+03  0.79694774656E+02 0.  0.
         11    1    3    3    0    0 -0.39942804334E+03 -0.18621937400E+03 -0.42687888817E+01  0.44072512932E+03  0.00000000000E+00 0. -1.
        -11    1    3    3    0    0 -0.65892491966E+02 -0.66308837452E+02  0.24311698917E+02  0.96590585079E+02  0.00000000000E+00 0.  1.
          2    1    6    6  502    0  0.51690582059E+03  0.80792090885E+02  0.86464493509E+02  0.53027832121E+03  0.00000000000E+00 0. -1.
          1    1    5    5  503    0 -0.19311642627E+03  0.82255618377E+02  0.25405641544E+03  0.32955212498E+03  0.00000000000E+00 0. -1.
         -2    1    5    5    0  503 -0.26851475503E+02  0.47231328834E+02  0.10470633718E+03  0.11796277890E+03  0.00000000000E+00 0.  1.
         -1    1    6    6    0  502  0.16838261649E+03  0.42249173352E+02  0.73614863097E+02  0.18856523077E+03  0.00000000000E+00 0.  1.
<mgrwt>
<rscale>  0 0.16162019E+04</rscale>
<asrwt>0</asrwt>
<pdfrwt beam="1">  1        2 0.17250455E+00 0.16162019E+04</pdfrwt>
<pdfrwt beam="2">  1       -2 0.89599166E-01 0.16162019E+04</pdfrwt>
<totfact> 0.21621321E+01</totfact>
</mgrwt>
</event>
<event>
12    1  0.1960998E-007  0.1971152E+04  0.7818608E-02  0.8620228E-01
          2   -1    0    0  501    0  0.00000000000E+00  0.00000000000E+00  0.20872384602E+04  0.20872384602E+04  0.00000000000E+00 0. -1.
         -2   -1    0    0    0  501 -0.00000000000E+00 -0.00000000000E+00 -0.46538055149E+03  0.46538055149E+03  0.00000000000E+00 0.  1.
         23    2    1    2    0    0  0.37383954712E+03  0.65642663829E+03  0.87382397922E+03  0.11587065603E+04  0.91545659113E+02 0.  0.
        254    2    1    2    0    0 -0.37383954712E+03 -0.65642663829E+03  0.74803392946E+03  0.13939124514E+04  0.90154601883E+03 0.  0.
        -24    2    4    4    0    0 -0.18381767012E+02 -0.60794047604E+03  0.81565039919E+03  0.10207372922E+04  0.81789572326E+02 0.  0.
         24    2    4    4    0    0 -0.35545778011E+03 -0.48486162246E+02 -0.67616469734E+02  0.37317515923E+03  0.77372935269E+02 0.  0.
         13    1    3    3    0    0  0.27958869332E+03  0.40249142758E+03  0.56005799735E+03  0.74420034071E+03  0.00000000000E+00 0. -1.
        -13    1    3    3    0    0  0.94250853807E+02  0.25393521070E+03  0.31376598186E+03  0.41450621956E+03  0.00000000000E+00 0.  1.
          2    1    6    6  502    0 -0.18456086644E+03 -0.36335528614E+02 -0.72974992246E+02  0.20176306290E+03  0.00000000000E+00 0. -1.
          1    1    5    5  503    0 -0.42413965230E+02 -0.21973157115E+03  0.27085053771E+03  0.35134160241E+03  0.00000000000E+00 0. -1.
         -2    1    5    5    0  503  0.24032198218E+02 -0.38820890489E+03  0.54479986148E+03  0.66939568975E+03  0.00000000000E+00 0.  1.
         -1    1    6    6    0  502 -0.17089691368E+03 -0.12150633631E+02  0.53585225120E+01  0.17141209632E+03  0.00000000000E+00 0.  1.
<mgrwt>
<rscale>  0 0.19711521E+04</rscale>
<asrwt>0</asrwt>
<pdfrwt beam="1">  1        2 0.32111360E+00 0.19711521E+04</pdfrwt>
<pdfrwt beam="2">  1       -2 0.71597009E-01 0.19711521E+04</pdfrwt>
<totfact> 0.98407954E+00</totfact>
</mgrwt>
</event>
<event>
12    1  0.1960998E-007  0.1413008E+04  0.7818608E-02  0.8944456E-01
          1   -1    0    0  501    0  0.00000000000E+00  0.00000000000E+00  0.10811745888E+04  0.10811745888E+04  0.00000000000E+00 0. -1.
         -1   -1    0    0    0  501 -0.00000000000E+00 -0.00000000000E+00 -0.46167173463E+03  0.46167173463E+03  0.00000000000E+00 0.  1.
         23    2    1    2    0    0 -0.30244968837E+03 -0.14152267552E+03  0.44935240625E+03  0.56727401637E+03  0.91530011235E+02 0.  0.
        254    2    1    2    0    0  0.30244968837E+03  0.14152267552E+03  0.17015044794E+03  0.97557230709E+03  0.90071397776E+03 0.  0.
        -24    2    4    4    0    0  0.43324624642E+03 -0.14581802363E+03  0.37004088669E+03  0.59339301101E+03  0.78865719071E+02 0.  0.
         24    2    4    4    0    0 -0.13079655805E+03  0.28734069915E+03 -0.19989043875E+03  0.38217929607E+03  0.80202305813E+02 0.  0.
         11    1    3    3    0    0 -0.13893386937E+03 -0.63823620326E+02  0.28177383075E+03  0.32058160625E+03  0.00000000000E+00 0. -1.
        -11    1    3    3    0    0 -0.16351581900E+03 -0.77699055197E+02  0.16757857550E+03  0.24669241011E+03  0.00000000000E+00 0.  1.
          2    1    6    6  502    0 -0.39008788176E+02  0.84405757876E+02 -0.18209786490E+02  0.94750270932E+02  0.00000000000E+00 0. -1.
          3    1    5    5  503    0  0.14077120192E+03 -0.12906531114E+02  0.93318941515E+02  0.16938575702E+03  0.00000000000E+00 0. -1.
         -4    1    5    5    0  503  0.29247504450E+03 -0.13291149251E+03  0.27672194518E+03  0.42400725399E+03  0.00000000000E+00 0.  1.
         -1    1    6    6    0  502 -0.91787769870E+02  0.20293494127E+03 -0.18168065226E+03  0.28742902514E+03  0.00000000000E+00 0.  1.
<mgrwt>
<rscale>  0 0.14130078E+04</rscale>
<asrwt>0</asrwt>
<pdfrwt beam="1">  1        1 0.16633455E+00 0.14130078E+04</pdfrwt>
<pdfrwt beam="2">  1       -1 0.71026421E-01 0.14130078E+04</pdfrwt>
<totfact> 0.25555228E+01</totfact>
</mgrwt>
</event>
<event>
12    1  0.1960998E-007  0.1235279E+04  0.7818608E-02  0.9082526E-01
          2   -1    0    0  501    0  0.00000000000E+00  0.00000000000E+00  0.69078970746E+03  0.69078970746E+03  0.00000000000E+00 0. -1.
         -2   -1    0    0    0  501 -0.00000000000E+00 -0.00000000000E+00 -0.55223504492E+03  0.55223504492E+03  0.00000000000E+00 0.  1.
         23    2    1    2    0    0  0.12803340067E+03 -0.86180476414E+02  0.26628194914E+03  0.32135435452E+03  0.92427909893E+02 0.  0.
        254    2    1    2    0    0 -0.12803340067E+03  0.86180476414E+02 -0.12772728660E+03  0.92167039786E+03  0.89963461269E+03 0.  0.
        -24    2    4    4    0    0  0.20154789557E+03 -0.15003840822E+03 -0.36090591511E+03  0.44694018435E+03  0.79808337099E+02 0.  0.
         24    2    4    4    0    0 -0.32958129624E+03  0.23621888464E+03  0.23317862851E+03  0.47473021351E+03  0.81075955308E+02 0.  0.
         11    1    3    3    0    0  0.13079211600E+03 -0.46057636042E+02  0.19133451224E+03  0.23629807240E+03  0.00000000000E+00 0. -1.
        -11    1    3    3    0    0 -0.27587153309E+01 -0.40122840372E+02  0.74947436894E+02  0.85056282112E+02  0.00000000000E+00 0.  1.
          4    1    6    6  502    0 -0.31463768175E+03  0.23572304086E+03  0.23731417505E+03  0.45921698624E+03  0.00000000000E+00 0. -1.
          3    1    5    5  503    0  0.16468596248E+03 -0.94044001328E+02 -0.21704441018E+03  0.28822563455E+03  0.00000000000E+00 0. -1.
         -4    1    5    5    0  503  0.36861933092E+02 -0.55994406896E+02 -0.14386150493E+03  0.15871454980E+03  0.00000000000E+00 0.  1.
         -3    1    6    6    0  502 -0.14943614495E+02  0.49584377304E+00 -0.41355465339E+01  0.15513227271E+02  0.00000000000E+00 0.  1.
<mgrwt>
<rscale>  0 0.12352786E+04</rscale>
<asrwt>0</asrwt>
<pdfrwt beam="1">  1        2 0.10627534E+00 0.12352786E+04</pdfrwt>
<pdfrwt beam="2">  1       -2 0.84959238E-01 0.12352786E+04</pdfrwt>
<totfact> 0.49500672E+01</totfact>
</mgrwt>
</event>
<event>
12    1  0.1960998E-007  0.2666707E+04  0.7818608E-02  0.8345889E-01
          2   -1    0    0  501    0  0.00000000000E+00  0.00000000000E+00  0.18141071735E+04  0.18141071735E+04  0.00000000000E+00 0. -1.
         -2   -1    0    0    0  501 -0.00000000000E+00 -0.00000000000E+00 -0.98000338814E+03  0.98000338814E+03  0.00000000000E+00 0.  1.
         23    2    1    2    0    0 -0.99411602215E+03  0.14963645392E+03 -0.27668792006E+03  0.10464775524E+04  0.88889418071E+02 0.  0.
        254    2    1    2    0    0  0.99411602215E+03 -0.14963645392E+03  0.11107917054E+04  0.17476330093E+04  0.89983620092E+03 0.  0.
        -24    2    4    4    0    0  0.31716155116E+03 -0.29298930567E+03  0.92942359657E+03  0.10277826585E+04  0.77940928769E+02 0.  0.
         24    2    4    4    0    0  0.67695447099E+03  0.14335285175E+03  0.18136810884E+03  0.71985035083E+03  0.80453345415E+02 0.  0.
         13    1    3    3    0    0 -0.85624902846E+03  0.14550431951E+03 -0.21142216127E+03  0.89388659012E+03  0.00000000000E+00 0. -1.
        -13    1    3    3    0    0 -0.13786699369E+03  0.41321344098E+01 -0.65265758789E+02  0.15259096223E+03  0.00000000000E+00 0.  1.
          4    1    6    6  502    0  0.16859192582E+03  0.71786073694E+02  0.45739336606E+02  0.18886123144E+03  0.00000000000E+00 0. -1.
          3    1    5    5  503    0  0.30277791252E+02 -0.84676460848E+01  0.39934569456E+02  0.50825343195E+02  0.00000000000E+00 0. -1.
         -4    1    5    5    0  503  0.28688375991E+03 -0.28452165958E+03  0.88948902712E+03  0.97695731526E+03  0.00000000000E+00 0.  1.
         -3    1    6    6    0  502  0.50836254517E+03  0.71566778059E+02  0.13562877224E+03  0.53098911939E+03  0.00000000000E+00 0.  1.
<mgrwt>
<rscale>  0 0.26667067E+04</rscale>
<asrwt>0</asrwt>
<pdfrwt beam="1">  1        2 0.27909341E+00 0.26667067E+04</pdfrwt>
<pdfrwt beam="2">  1       -2 0.15076975E+00 0.26667067E+04</pdfrwt>
<totfact> 0.22038216E+00</totfact>
</mgrwt>
</event>
<event>
12    1  0.1960998E-007  0.1892055E+04  0.7818608E-02  0.8658821E-01
         -2   -1    0    0    0  501 -0.00000000000E+00  0.00000000000E+00  0.23762830742E+04  0.23762830742E+04  0.00000000000E+00 0.  1.
          2   -1    0    0  501    0  0.00000000000E+00 -0.00000000000E+00 -0.37662507652E+03  0.37662507652E+03  0.00000000000E+00 0. -1.
         23    2    1    2    0    0 -0.24715000647E+03 -0.38577930337E+03 -0.60277113852E+02  0.47099123187E+03  0.91052805752E+02 0.  0.
        254    2    1    2    0    0  0.24715000647E+03  0.38577930337E+03  0.20599351115E+04  0.22819169188E+04  0.86827608753E+03 0.  0.
        -24    2    4    4    0    0 -0.47272783336E+02 -0.14592617817E+03  0.12716936248E+04  0.12833928414E+04  0.79770574110E+02 0.  0.
         24    2    4    4    0    0  0.29442278980E+03  0.53170548154E+03  0.78824148671E+03  0.99852407742E+03  0.79562513542E+02 0.  0.
         11    1    3    3    0    0 -0.11217456084E+03 -0.14318226048E+03  0.17372203728E+02  0.18271859587E+03  0.00000000000E+00 0.  1.
        -11    1    3    3    0    0 -0.13497544563E+03 -0.24259704290E+03 -0.77649317580E+02  0.28827263600E+03  0.00000000000E+00 0. -1.
          4    1    6    6  502    0  0.18598631616E+02  0.91226968145E+02  0.11197452445E+03  0.14562473327E+03  0.00000000000E+00 0. -1.
          1    1    5    5  503    0  0.14818100946E+02 -0.83580559866E+02  0.63429737423E+03  0.63995190840E+03  0.00000000000E+00 0. -1.
         -2    1    5    5    0  503 -0.62090884282E+02 -0.62345618302E+02  0.63739625057E+03  0.64344093301E+03  0.00000000000E+00 0.  1.
         -3    1    6    6    0  502  0.27582415819E+03  0.44047851339E+03  0.67626696227E+03  0.85289934415E+03  0.00000000000E+00 0.  1.
<mgrwt>
<rscale>  0 0.18920548E+04</rscale>
<asrwt>0</asrwt>
<pdfrwt beam="1">  1        2 0.57942321E-01 0.18920548E+04</pdfrwt>
<pdfrwt beam="2">  1       -2 0.36558200E+00 0.18920548E+04</pdfrwt>
<totfact> 0.99159478E-01</totfact>
</mgrwt>
</event>
<event>
12    1  0.1960998E-007  0.1739659E+04  0.7818608E-02  0.8739063E-01
         -1   -1    0    0    0  501 -0.00000000000E+00  0.00000000000E+00  0.44653603819E+03  0.44653603819E+03  0.00000000000E+00 0.  1.
          1   -1    0    0  501    0  0.00000000000E+00 -0.00000000000E+00 -0.16943841469E+04  0.16943841469E+04  0.00000000000E+00 0. -1.
         23    2    1    2    0    0 -0.15381075282E+03  0.52187505031E+03 -0.58184819964E+02  0.55491983463E+03  0.92407974638E+02 0.  0.
        254    2    1    2    0    0  0.15381075282E+03 -0.52187505031E+03 -0.11896632888E+04  0.15860003505E+04  0.89670901371E+03 0.  0.
        -24    2    4    4    0    0 -0.13025918710E+03  0.80796753875E+02  0.47353605084E+02  0.17862540216E+03  0.78543612868E+02 0.  0.
         24    2    4    4    0    0  0.28406993992E+03 -0.60267180418E+03 -0.12370168938E+04  0.14073749483E+04  0.81144409352E+02 0.  0.
         13    1    3    3    0    0 -0.31558813077E+02  0.31000168335E+02 -0.16946569952E+02  0.47372516850E+02  0.00000000000E+00 0. -1.
        -13    1    3    3    0    0 -0.12225193974E+03  0.49087488197E+03 -0.41238250012E+02  0.50754731778E+03  0.00000000000E+00 0.  1.
          2    1    6    6  502    0  0.15756325438E+03 -0.26588955467E+03 -0.51316043266E+03  0.59904679622E+03  0.00000000000E+00 0. -1.
          3    1    5    5  503    0 -0.11534955289E+03  0.64167914134E+02  0.66098368826E+01  0.13216175884E+03  0.00000000000E+00 0. -1.
         -4    1    5    5    0  503 -0.14909634210E+02  0.16628839740E+02  0.40743768202E+02  0.46463643321E+02  0.00000000000E+00 0.  1.
         -1    1    6    6    0  502  0.12650668553E+03 -0.33678224952E+03 -0.72385646117E+03  0.80832815209E+03  0.00000000000E+00 0.  1.
<mgrwt>
<rscale>  0 0.17396593E+04</rscale>
<asrwt>0</asrwt>
<pdfrwt beam="1">  1        1 0.26067448E+00 0.17396593E+04</pdfrwt>
<pdfrwt beam="2">  1       -1 0.68697852E-01 0.17396593E+04</pdfrwt>
<totfact> 0.97784225E+00</totfact>
</mgrwt>
</event>
<event>
12    1  0.1960998E-007  0.2640418E+04  0.7818608E-02  0.8354600E-01
         -2   -1    0    0    0  501 -0.00000000000E+00  0.00000000000E+00  0.17506291176E+04  0.17506291176E+04  0.00000000000E+00 0.  1.
          2   -1    0    0  501    0  0.00000000000E+00 -0.00000000000E+00 -0.99561419893E+03  0.99561419893E+03  0.00000000000E+00 0. -1.
         23    2    1    2    0    0 -0.11080337157E+04  0.30129708656E+03  0.12741039861E+03  0.11589625866E+04  0.91881543365E+02 0.  0.
        254    2    1    2    0    0  0.11080337157E+04 -0.30129708656E+03  0.62760452006E+03  0.15872807299E+04  0.89836186045E+03 0.  0.
        -24    2    4    4    0    0  0.11939475291E+04 -0.25502447494E+03  0.73080448615E+03  0.14250891910E+04  0.79093742844E+02 0.  0.
         24    2    4    4    0    0 -0.85913813400E+02 -0.46272611621E+02 -0.10319996610E+03  0.16219153890E+03  0.78316820467E+02 0.  0.
         11    1    3    3    0    0 -0.52087392283E+03  0.11526170873E+03  0.97492822003E+02  0.54230964893E+03  0.00000000000E+00 0. -1.
        -11    1    3    3    0    0 -0.58715979290E+03  0.18603537783E+03  0.29917576608E+02  0.61665293772E+03  0.00000000000E+00 0.  1.
          4    1    6    6  502    0 -0.65208366820E+02 -0.61915937902E+02 -0.49727540001E+02  0.10275476974E+03  0.00000000000E+00 0. -1.
          3    1    5    5  503    0  0.77050465254E+02 -0.14217034705E+01  0.32239963795E+02  0.83535685201E+02  0.00000000000E+00 0. -1.
         -4    1    5    5    0  503  0.11168970639E+04 -0.25360277147E+03  0.69856452236E+03  0.13415535058E+04  0.00000000000E+00 0.  1.
         -3    1    6    6    0  502 -0.20705446579E+02  0.15643326281E+02 -0.53472426096E+02  0.59436769157E+02  0.00000000000E+00 0.  1.
<mgrwt>
<rscale>  0 0.26404175E+04</rscale>
<asrwt>0</asrwt>
<pdfrwt beam="1">  1        2 0.15317142E+00 0.26404175E+04</pdfrwt>
<pdfrwt beam="2">  1       -2 0.26932756E+00 0.26404175E+04</pdfrwt>
<totfact> 0.10935518E+00</totfact>
</mgrwt>
</event>
<event>
12    1  0.1960998E-007  0.2755593E+04  0.7818608E-02  0.8317189E-01
          1   -1    0    0  501    0  0.00000000000E+00  0.00000000000E+00  0.39109603118E+04  0.39109603118E+04  0.00000000000E+00 0. -1.
         -1   -1    0    0    0  501 -0.00000000000E+00 -0.00000000000E+00 -0.48538558716E+03  0.48538558716E+03  0.00000000000E+00 0.  1.
         23    2    1    2    0    0  0.22764949312E+03  0.11768770333E+04  0.10856282653E+04  0.16198456124E+04  0.91908837185E+02 0.  0.
        254    2    1    2    0    0 -0.22764949312E+03 -0.11768770333E+04  0.23399464594E+04  0.27765002866E+04  0.89260325197E+03 0.  0.
        -24    2    4    4    0    0 -0.39486041613E+03 -0.76834239722E+03  0.20902698768E+04  0.22630578030E+04  0.77056304673E+02 0.  0.
         24    2    4    4    0    0  0.16721092300E+03 -0.40853463609E+03  0.24967658254E+03  0.51344248359E+03  0.80154515983E+02 0.  0.
         11    1    3    3    0    0  0.21611281077E+03  0.96347808300E+03  0.91813481731E+03  0.13483198086E+04  0.00000000000E+00 0.  1.
        -11    1    3    3    0    0  0.11536682353E+02  0.21339895032E+03  0.16749344801E+03  0.27152580386E+03  0.00000000000E+00 0. -1.
          2    1    6    6  502    0  0.14296734658E+02 -0.78355297513E+02  0.76606613524E+02  0.11051028235E+03  0.00000000000E+00 0. -1.
          3    1    5    5  503    0 -0.26395460608E+03 -0.44637361418E+03  0.13082060534E+04  0.14072400349E+04  0.00000000000E+00 0. -1.
         -4    1    5    5    0  503 -0.13090581005E+03 -0.32196878304E+03  0.78206382341E+03  0.85581776812E+03  0.00000000000E+00 0.  1.
         -1    1    6    6    0  502  0.15291418834E+03 -0.33017933858E+03  0.17306996901E+03  0.40293220124E+03  0.00000000000E+00 0.  1.
<mgrwt>
<rscale>  0 0.27555934E+04</rscale>
<asrwt>0</asrwt>
<pdfrwt beam="1">  1        1 0.60168618E+00 0.27555934E+04</pdfrwt>
<pdfrwt beam="2">  1       -1 0.74674708E-01 0.27555934E+04</pdfrwt>
<totfact> 0.17993143E-01</totfact>
</mgrwt>
</event>
<event>
12    1  0.1960998E-007  0.1932887E+04  0.7818608E-02  0.8638658E-01
         -1   -1    0    0    0  501 -0.00000000000E+00  0.00000000000E+00  0.56686076356E+03  0.56686076356E+03  0.00000000000E+00 0.  1.
          1   -1    0    0  501    0  0.00000000000E+00 -0.00000000000E+00 -0.16476935421E+04  0.16476935421E+04  0.00000000000E+00 0. -1.
         23    2    1    2    0    0  0.68269163043E+03  0.19786509871E+03 -0.71228377525E+03  0.10104377091E+04  0.91748176397E+02 0.  0.
        254    2    1    2    0    0 -0.68269163043E+03 -0.19786509871E+03 -0.36854900327E+03  0.12041165966E+04  0.89936085681E+03 0.  0.
        -24    2    4    4    0    0 -0.36606250070E+03 -0.68560299991E+02  0.27520491052E+03  0.47082854123E+03  0.85085270813E+02 0.  0.
         24    2    4    4    0    0 -0.31662912974E+03 -0.12930479872E+03 -0.64375391379E+03  0.73328805534E+03  0.79489205583E+02 0.  0.
         11    1    3    3    0    0  0.39884202768E+03  0.12391195893E+03 -0.35473615790E+03  0.54796612882E+03  0.00000000000E+00 0.  1.
        -11    1    3    3    0    0  0.28384960275E+03  0.73953139777E+02 -0.35754761735E+03  0.46247158025E+03  0.00000000000E+00 0. -1.
          4    1    6    6  502    0 -0.21882151715E+03 -0.12737788286E+03 -0.47240721382E+03  0.53598186264E+03  0.00000000000E+00 0. -1.
          1    1    5    5  503    0 -0.38473128012E+02  0.71492249890E+01  0.49302427439E+01  0.39441099002E+02  0.00000000000E+00 0. -1.
         -2    1    5    5    0  503 -0.32758937268E+03 -0.75709524980E+02  0.27027466778E+03  0.43138744223E+03  0.00000000000E+00 0.  1.
         -3    1    6    6    0  502 -0.97807612592E+02 -0.19269158640E+01 -0.17134669997E+03  0.19730619270E+03  0.00000000000E+00 0.  1.
<mgrwt>
<rscale>  0 0.19328868E+04</rscale>
<asrwt>0</asrwt>
<pdfrwt beam="1">  1        1 0.25349131E+00 0.19328868E+04</pdfrwt>
<pdfrwt beam="2">  1       -1 0.87209348E-01 0.19328868E+04</pdfrwt>
<totfact> 0.62502815E+00</totfact>
</mgrwt>
</event>
<event>
12    1  0.1960998E-007  0.1374784E+04  0.7818608E-02  0.8972276E-01
          1   -1    0    0  501    0  0.00000000000E+00  0.00000000000E+00  0.41381580029E+03  0.41381580029E+03  0.00000000000E+00 0. -1.
         -1   -1    0    0    0  501 -0.00000000000E+00 -0.00000000000E+00 -0.11418307251E+04  0.11418307251E+04  0.00000000000E+00 0.  1.
         23    2    1    2    0    0 -0.38435527088E+03 -0.48461662834E+02 -0.22522488008E+03  0.45702394926E+03  0.89817239813E+02 0.  0.
        254    2    1    2    0    0  0.38435527088E+03  0.48461662834E+02 -0.50279004468E+03  0.10986225761E+04  0.89671412872E+03 0.  0.
        -24    2    4    4    0    0  0.54259327185E+03 -0.22628345927E+03 -0.49072369043E+03  0.77106305228E+03  0.90093438433E+02 0.  0.
         24    2    4    4    0    0 -0.15823800097E+03  0.27474512211E+03 -0.12066354254E+02  0.32755952381E+03  0.81397160015E+02 0.  0.
         11    1    3    3    0    0 -0.93620431429E+02  0.64050134244E+01 -0.95752771841E+02  0.13406864918E+03  0.00000000000E+00 0. -1.
        -11    1    3    3    0    0 -0.29073483946E+03 -0.54866676259E+02 -0.12947210824E+03  0.32295530008E+03  0.00000000000E+00 0.  1.
          4    1    6    6  502    0  0.39595615783E+01  0.29135281598E+02  0.13024042598E+02  0.32158489506E+02  0.00000000000E+00 0. -1.
          1    1    5    5  503    0  0.11185805072E+03 -0.20946668937E+02 -0.13073059790E+03  0.17332476938E+03  0.00000000000E+00 0. -1.
         -2    1    5    5    0  503  0.43073522113E+03 -0.20533679034E+03 -0.35999309252E+03  0.59773828291E+03  0.00000000000E+00 0.  1.
         -3    1    6    6    0  502 -0.16219756255E+03  0.24560984051E+03 -0.25090396853E+02  0.29540103430E+03  0.00000000000E+00 0.  1.
<mgrwt>
<rscale>  0 0.13747838E+04</rscale>
<asrwt>0</asrwt>
<pdfrwt beam="1">  1        1 0.63663971E-01 0.13747838E+04</pdfrwt>
<pdfrwt beam="2">  1       -1 0.17566626E+00 0.13747838E+04</pdfrwt>
<totfact> 0.12527252E+01</totfact>
</mgrwt>
</event>
<event>
12    1  0.1960998E-007  0.3238349E+04  0.7818608E-02  0.8178762E-01
         -2   -1    0    0    0  501 -0.00000000000E+00  0.00000000000E+00  0.64888883793E+03  0.64888883793E+03  0.00000000000E+00 0.  1.
          2   -1    0    0  501    0  0.00000000000E+00 -0.00000000000E+00 -0.40403324755E+04  0.40403324755E+04  0.00000000000E+00 0. -1.
         23    2    1    2    0    0 -0.39747074107E+03  0.14303496350E+04 -0.13313039092E+04  0.19958937049E+04  0.85665128979E+02 0.  0.
        254    2    1    2    0    0  0.39747074107E+03 -0.14303496350E+04 -0.20601397284E+04  0.26933276085E+04  0.89774987479E+03 0.  0.
        -24    2    4    4    0    0  0.23742224647E+03 -0.98747154514E+03 -0.19539813638E+04  0.22038700066E+04  0.86778223790E+02 0.  0.
         24    2    4    4    0    0  0.16004849460E+03 -0.44287808991E+03 -0.10615836453E+03  0.48945760189E+03  0.80886479369E+02 0.  0.
         11    1    3    3    0    0 -0.14718022857E+03  0.53217764716E+03 -0.44015188367E+03  0.70612233254E+03  0.00000000000E+00 0. -1.
        -11    1    3    3    0    0 -0.25029051250E+03  0.89817198788E+03 -0.89115202553E+03  0.12897713724E+04  0.00000000000E+00 0.  1.
          2    1    6    6  502    0  0.35420966375E+02 -0.21368286956E+03 -0.57079249435E+02  0.22399342472E+03  0.00000000000E+00 0. -1.
          1    1    5    5  503    0  0.52657782319E+02 -0.11700933307E+03 -0.28260970991E+03  0.31037440970E+03  0.00000000000E+00 0. -1.
         -2    1    5    5    0  503  0.18476446415E+03 -0.87046221207E+03 -0.16713716539E+04  0.18934955969E+04  0.00000000000E+00 0.  1.
         -1    1    6    6    0  502  0.12462752823E+03 -0.22919522035E+03 -0.49079115100E+02  0.26546417717E+03  0.00000000000E+00 0.  1.
<mgrwt>
<rscale>  0 0.32383494E+04</rscale>
<asrwt>0</asrwt>
<pdfrwt beam="1">  1        2 0.62158961E+00 0.32383494E+04</pdfrwt>
<pdfrwt beam="2">  1       -2 0.99829052E-01 0.32383494E+04</pdfrwt>
<totfact> 0.22037921E-01</totfact>
</mgrwt>
</event>
<event>
12    1  0.1960998E-007  0.4075640E+04  0.7818608E-02  0.7989459E-01
         -2   -1    0    0    0  501 -0.00000000000E+00  0.00000000000E+00  0.11009948140E+04  0.11009948140E+04  0.00000000000E+00 0. -1.
          2   -1    0    0  501    0  0.00000000000E+00 -0.00000000000E+00 -0.37717803740E+04  0.37717803740E+04  0.00000000000E+00 0.  1.
         23    2    1    2    0    0 -0.15142071359E+04  0.72302511223E+02 -0.27135389738E+04  0.31096048905E+04  0.91092858436E+02 0.  0.
        254    2    1    2    0    0  0.15142071359E+04 -0.72302511223E+02  0.42753413830E+02  0.17631702976E+04  0.89938353354E+03 0.  0.
        -24    2    4    4    0    0  0.22796372307E+01  0.89909596708E+02 -0.18543157439E+03  0.22342994167E+03  0.86296800202E+02 0.  0.
         24    2    4    4    0    0  0.15119274986E+04 -0.16221210793E+03  0.22818498822E+03  0.15397403559E+04  0.80588123593E+02 0.  0.
         13    1    3    3    0    0 -0.11586438935E+04  0.67703551191E+02 -0.21497258688E+04  0.24430228722E+04  0.00000000000E+00 0. -1.
        -13    1    3    3    0    0 -0.35556324232E+03  0.45989600321E+01 -0.56381310499E+03  0.66658201828E+03  0.00000000000E+00 0.  1.
          2    1    6    6  502    0  0.66701779519E+03 -0.31888413316E+02  0.10669191080E+03  0.67624904720E+03  0.00000000000E+00 0. -1.
          3    1    5    5  503    0 -0.28692470685E+02  0.20562520182E+01 -0.65760100717E+02  0.71776576212E+02  0.00000000000E+00 0. -1.
         -4    1    5    5    0  503  0.30972107916E+02  0.87853344689E+02 -0.11967147367E+03  0.15165336545E+03  0.00000000000E+00 0.  1.
         -1    1    6    6    0  502  0.84490970343E+03 -0.13032369462E+03  0.12149307743E+03  0.86349130870E+03  0.00000000000E+00 0.  1.
<mgrwt>
<rscale>  0 0.40756401E+04</rscale>
<asrwt>0</asrwt>
<pdfrwt beam="1">  1        2 0.58027390E+00 0.40756401E+04</pdfrwt>
<pdfrwt beam="2">  1       -2 0.16938382E+00 0.40756401E+04</pdfrwt>
<totfact> 0.86851092E-02</totfact>
</mgrwt>
</event>
<event>
12    1  0.1960998E-007  0.1434539E+04  0.7818608E-02  0.8929190E-01
         -2   -1    0    0    0  501 -0.00000000000E+00  0.00000000000E+00  0.14900048107E+04  0.14900048107E+04  0.00000000000E+00 0.  1.
          2   -1    0    0  501    0  0.00000000000E+00 -0.00000000000E+00 -0.34528466736E+03  0.34528466736E+03  0.00000000000E+00 0. -1.
         23    2    1    2    0    0  0.31323741217E+03 -0.28108477855E+03  0.26281079530E+03  0.50491877148E+03  0.93526052807E+02 0.  0.
        254    2    1    2    0    0 -0.31323741217E+03  0.28108477855E+03  0.88190934806E+03  0.13303707066E+04  0.90277117237E+03 0.  0.
        -24    2    4    4    0    0 -0.56885445283E+03  0.14375783539E+03  0.83792333373E+03  0.10260108235E+04  0.79504672776E+02 0.  0.
         24    2    4    4    0    0  0.25561704066E+03  0.13732694315E+03  0.43986014328E+02  0.30435988309E+03  0.80631310229E+02 0.  0.
         13    1    3    3    0    0  0.22640996440E+03 -0.25179453219E+03  0.19333143242E+03  0.38992178855E+03  0.00000000000E+00 0. -1.
        -13    1    3    3    0    0  0.86827447768E+02 -0.29290246353E+02  0.69479362878E+02  0.11499698293E+03  0.00000000000E+00 0.  1.
          2    1    6    6  502    0  0.23225030821E+03  0.10159898127E+03  0.17463982630E+02  0.25410145483E+03  0.00000000000E+00 0. -1.
          1    1    5    5  503    0 -0.50284259220E+03  0.11134856073E+03  0.69216767160E+03  0.86275446109E+03  0.00000000000E+00 0. -1.
         -2    1    5    5    0  503 -0.66011860625E+02  0.32409274659E+02  0.14575566212E+03  0.16325636241E+03  0.00000000000E+00 0.  1.
         -1    1    6    6    0  502  0.23366732448E+02  0.35727961889E+02  0.26522031698E+02  0.50258428262E+02  0.00000000000E+00 0.  1.
<mgrwt>
<rscale>  0 0.14345394E+04</rscale>
<asrwt>0</asrwt>
<pdfrwt beam="1">  1        2 0.53120719E-01 0.14345394E+04</pdfrwt>
<pdfrwt beam="2">  1       -2 0.22923151E+00 0.14345394E+04</pdfrwt>
<totfact> 0.78742358E+00</totfact>
</mgrwt>
</event>
<event>
12    1  0.1960998E-007  0.1509013E+04  0.7818608E-02  0.8878482E-01
         -2   -1    0    0    0  501 -0.00000000000E+00  0.00000000000E+00  0.58046308626E+03  0.58046308626E+03  0.00000000000E+00 0.  1.
          2   -1    0    0  501    0  0.00000000000E+00 -0.00000000000E+00 -0.98073379322E+03  0.98073379322E+03  0.00000000000E+00 0. -1.
         23    2    1    2    0    0  0.37503762986E+03  0.28284319889E+03 -0.23637334230E+03  0.53365143972E+03  0.90873556098E+02 0.  0.
        254    2    1    2    0    0 -0.37503762986E+03 -0.28284319889E+03 -0.16389736465E+03  0.10275454398E+04  0.89907384883E+03 0.  0.
        -24    2    4    4    0    0 -0.45364426130E+03  0.21035139252E+03 -0.54787428782E+02  0.50908131812E+03  0.78238749734E+02 0.  0.
         24    2    4    4    0    0  0.78606631436E+02 -0.49319459141E+03 -0.10910993587E+03  0.51846412164E+03  0.86487917153E+02 0.  0.
         11    1    3    3    0    0  0.13061294231E+03  0.11578239376E+03 -0.42127326874E+02  0.17955504747E+03  0.00000000000E+00 0.  1.
        -11    1    3    3    0    0  0.24442468755E+03  0.16706080513E+03 -0.19424601543E+03  0.35409639225E+03  0.00000000000E+00 0. -1.
          4    1    6    6  502    0  0.30490192333E+02 -0.84426087573E+02  0.91303899202E+01  0.90226271737E+02  0.00000000000E+00 0. -1.
          3    1    5    5  503    0 -0.11497918011E+03  0.26316049331E+02 -0.35422468359E+02  0.12315639478E+03  0.00000000000E+00 0. -1.
         -4    1    5    5    0  503 -0.33866508119E+03  0.18403534319E+03 -0.19364960423E+02  0.38592492334E+03  0.00000000000E+00 0.  1.
         -3    1    6    6    0  502  0.48116439103E+02 -0.40876850384E+03 -0.11824032579E+03  0.42823784990E+03  0.00000000000E+00 0.  1.
<mgrwt>
<rscale>  0 0.15090126E+04</rscale>
<asrwt>0</asrwt>
<pdfrwt beam="1">  1        2 0.15088212E+00 0.15090126E+04</pdfrwt>
<pdfrwt beam="2">  1       -2 0.89302015E-01 0.15090126E+04</pdfrwt>
<totfact> 0.26936132E+01</totfact>
</mgrwt>
</event>
<event>
12    1  0.1992976E-007  0.2260926E+04  0.7818608E-02  0.8493489E-01
          2   -1    0    0  501    0  0.00000000000E+00  0.00000000000E+00  0.11804547339E+04  0.11804547339E+04  0.00000000000E+00 0. -1.
         -2   -1    0    0    0  501 -0.00000000000E+00 -0.00000000000E+00 -0.10825885780E+04  0.10825885780E+04  0.00000000000E+00 0.  1.
         23    2    1    2    0    0 -0.50509914541E+03 -0.47467150542E+03  0.69055291180E+03  0.98249781099E+03  0.89445177970E+02 0.  0.
        254    2    1    2    0    0  0.50509914541E+03  0.47467150542E+03 -0.59268675582E+03  0.12805455009E+04  0.89893325930E+03 0.  0.
        -24    2    4    4    0    0  0.50951947369E+03  0.56318921892E+03 -0.96408633492E+02  0.76980135525E+03  0.80667909046E+02 0.  0.
         24    2    4    4    0    0 -0.44203282842E+01 -0.88517713501E+02 -0.49627812232E+03  0.51074414568E+03  0.81930963294E+02 0.  0.
         11    1    3    3    0    0 -0.24867878287E+03 -0.17337644092E+03  0.29160518401E+03  0.42063536544E+03  0.00000000000E+00 0. -1.
        -11    1    3    3    0    0 -0.25642036253E+03 -0.30129506450E+03  0.39894772778E+03  0.56186244555E+03  0.00000000000E+00 0.  1.
          2    1    6    6  502    0 -0.26289524635E+02  0.31302772048E+01 -0.10875670678E+03  0.11193283259E+03  0.00000000000E+00 0. -1.
          3    1    5    5  503    0  0.16267357743E+02  0.54350729249E+01  0.61050572500E+01  0.18205457140E+02  0.00000000000E+00 0. -1.
         -4    1    5    5    0  503  0.49325211595E+03  0.55775414599E+03 -0.10251369074E+03  0.75159589811E+03  0.00000000000E+00 0.  1.
         -1    1    6    6    0  502  0.21869196351E+02 -0.91647990705E+02 -0.38752141554E+03  0.39881131310E+03  0.00000000000E+00 0.  1.
<mgrwt>
<rscale>  0 0.22609262E+04</rscale>
<asrwt>0</asrwt>
<pdfrwt beam="1">  1        2 0.18160842E+00 0.22609262E+04</pdfrwt>
<pdfrwt beam="2">  1       -2 0.16655209E+00 0.22609262E+04</pdfrwt>
<totfact> 0.39930399E+00</totfact>
</mgrwt>
</event>
<event>
12    1  0.1960998E-007  0.2010689E+04  0.7818608E-02  0.8601639E-01
          2   -1    0    0  501    0  0.00000000000E+00  0.00000000000E+00  0.24500569642E+04  0.24500569642E+04  0.00000000000E+00 0. -1.
         -2   -1    0    0    0  501 -0.00000000000E+00 -0.00000000000E+00 -0.41252833752E+03  0.41252833752E+03  0.00000000000E+00 0.  1.
         23    2    1    2    0    0  0.48474616977E+03 -0.45544643051E+03  0.18096975541E+03  0.69471672976E+03  0.86434842884E+02 0.  0.
        254    2    1    2    0    0 -0.48474616977E+03  0.45544643051E+03  0.18565588712E+04  0.21678685719E+04  0.90024052485E+03 0.  0.
        -24    2    4    4    0    0 -0.27211611885E+03  0.34140122993E+03  0.18615830446E+04  0.19137024077E+04  0.78507905603E+02 0.  0.
         24    2    4    4    0    0 -0.21263005092E+03  0.11404520059E+03 -0.50241733989E+01  0.25416616422E+03  0.79732994314E+02 0.  0.
         13    1    3    3    0    0  0.29888735737E+03 -0.33335500481E+03  0.13505719457E+03  0.46765335178E+03  0.00000000000E+00 0. -1.
        -13    1    3    3    0    0  0.18585881240E+03 -0.12209142570E+03  0.45912560841E+02  0.22706337798E+03  0.00000000000E+00 0.  1.
          4    1    6    6  502    0 -0.22627332719E+02 -0.10482217577E+02  0.91184129832E+01  0.26552184970E+02  0.00000000000E+00 0. -1.
          1    1    5    5  503    0 -0.75240699322E+02  0.55352098005E+02  0.31171891363E+03  0.32541312006E+03  0.00000000000E+00 0. -1.
         -2    1    5    5    0  503 -0.19687541952E+03  0.28604913192E+03  0.15498641310E+04  0.15882892876E+04  0.00000000000E+00 0.  1.
         -1    1    6    6    0  502 -0.19000271820E+03  0.12452741816E+03 -0.14142586382E+02  0.22761397925E+03  0.00000000000E+00 0.  1.
<mgrwt>
<rscale>  0 0.20106894E+04</rscale>
<asrwt>0</asrwt>
<pdfrwt beam="1">  1        2 0.37693183E+00 0.20106894E+04</pdfrwt>
<pdfrwt beam="2">  1       -2 0.63465900E-01 0.20106894E+04</pdfrwt>
<totfact> 0.79397498E+00</totfact>
</mgrwt>
</event>
<event>
12    1  0.1960998E-007  0.1304742E+04  0.7818608E-02  0.9025813E-01
          2   -1    0    0  501    0  0.00000000000E+00  0.00000000000E+00  0.10970892053E+04  0.10970892053E+04  0.00000000000E+00 0. -1.
         -2   -1    0    0    0  501 -0.00000000000E+00 -0.00000000000E+00 -0.38792452266E+03  0.38792452266E+03  0.00000000000E+00 0.  1.
         23    2    1    2    0    0  0.27298523753E+03  0.14493174677E+03  0.32774226887E+03  0.45980049996E+03  0.92061684902E+02 0.  0.
        254    2    1    2    0    0 -0.27298523753E+03 -0.14493174677E+03  0.38142241380E+03  0.10252132280E+04  0.90002941844E+03 0.  0.
        -24    2    4    4    0    0  0.86112849488E+02 -0.11633276563E+03  0.58238607623E+03  0.60530804723E+03  0.79218400914E+02 0.  0.
         24    2    4    4    0    0 -0.35909808702E+03 -0.28598981141E+02 -0.20096366244E+03  0.41990518080E+03  0.78515154099E+02 0.  0.
         13    1    3    3    0    0  0.20347765999E+03  0.10560064827E+03  0.29471079331E+03  0.37337528939E+03  0.00000000000E+00 0. -1.
        -13    1    3    3    0    0  0.69507577540E+02  0.39331098498E+02  0.33031475556E+02  0.86425210570E+02  0.00000000000E+00 0.  1.
          4    1    6    6  502    0 -0.30509027719E+03 -0.26685051285E+02 -0.20014846955E+03  0.36585732063E+03  0.00000000000E+00 0. -1.
          3    1    5    5  503    0  0.97088597521E+02 -0.10676863659E+03  0.56216024599E+03  0.58038769775E+03  0.00000000000E+00 0. -1.
         -4    1    5    5    0  503 -0.10975748033E+02 -0.95641290334E+01  0.20225830244E+02  0.24920349478E+02  0.00000000000E+00 0.  1.
         -3    1    6    6    0  502 -0.54007809824E+02 -0.19139298562E+01 -0.81519289312E+00  0.54047860169E+02  0.00000000000E+00 0.  1.
<mgrwt>
<rscale>  0 0.13047418E+04</rscale>
<asrwt>0</asrwt>
<pdfrwt beam="1">  1        2 0.16878295E+00 0.13047418E+04</pdfrwt>
<pdfrwt beam="2">  1       -2 0.59680697E-01 0.13047418E+04</pdfrwt>
<totfact> 0.56150661E+01</totfact>
</mgrwt>
</event>
<event>
12    1  0.1960998E-007  0.4199808E+04  0.7818608E-02  0.7965409E-01
         -2   -1    0    0    0  501 -0.00000000000E+00  0.00000000000E+00  0.14410626446E+04  0.14410626446E+04  0.00000000000E+00 0.  1.
          2   -1    0    0  501    0  0.00000000000E+00 -0.00000000000E+00 -0.30599617039E+04  0.30599617039E+04  0.00000000000E+00 0. -1.
         23    2    1    2    0    0  0.12176468760E+04 -0.13192882677E+04  0.17877206310E+03  0.18062937940E+04  0.86904383416E+02 0.  0.
        254    2    1    2    0    0 -0.12176468760E+04  0.13192882677E+04 -0.17976711224E+04  0.26947305545E+04  0.89820145241E+03 0.  0.
        -24    2    4    4    0    0 -0.12400104098E+04  0.79241087376E+03 -0.13035259487E+04  0.19675533048E+04  0.80903023261E+02 0.  0.
         24    2    4    4    0    0  0.22363533749E+02  0.52687739389E+03 -0.49414517369E+03  0.72717724967E+03  0.80668357569E+02 0.  0.
         13    1    3    3    0    0  0.25544038044E+03 -0.23387217557E+03  0.52697525325E+02  0.35031844320E+03  0.00000000000E+00 0.  1.
        -13    1    3    3    0    0  0.96220649556E+03 -0.10854160921E+04  0.12607453777E+03  0.14559753508E+04  0.00000000000E+00 0. -1.
          4    1    6    6  502    0  0.24048643734E+02  0.44975342446E+03 -0.45669252766E+03  0.64142384185E+03  0.00000000000E+00 0. -1.
          1    1    5    5  503    0 -0.12289635424E+04  0.79295346025E+03 -0.12961446965E+04  0.19542562915E+04  0.00000000000E+00 0. -1.
         -2    1    5    5    0  503 -0.11046867374E+02 -0.54258649187E+00 -0.73812522619E+01  0.13297013343E+02  0.00000000000E+00 0.  1.
         -3    1    6    6    0  502 -0.16851099854E+01  0.77123969435E+02 -0.37452646036E+02  0.85753407816E+02  0.00000000000E+00 0.  1.
<mgrwt>
<rscale>  0 0.41998079E+04</rscale>
<asrwt>0</asrwt>
<pdfrwt beam="1">  1        2 0.47076333E+00 0.41998079E+04</pdfrwt>
<pdfrwt beam="2">  1       -2 0.22170195E+00 0.41998079E+04</pdfrwt>
<totfact> 0.11936033E-01</totfact>
</mgrwt>
</event>
<event>
12    1  0.1960998E-007  0.1756578E+04  0.7818608E-02  0.8729738E-01
          2   -1    0    0  501    0  0.00000000000E+00  0.00000000000E+00  0.27625291167E+04  0.27625291167E+04  0.00000000000E+00 0. -1.
         -2   -1    0    0    0  501 -0.00000000000E+00 -0.00000000000E+00 -0.27923386278E+03  0.27923386278E+03  0.00000000000E+00 0.  1.
         23    2    1    2    0    0 -0.18484590988E+03 -0.50403583200E+03  0.15349795095E+04  0.16289455107E+04  0.95295601866E+02 0.  0.
        254    2    1    2    0    0  0.18484590988E+03  0.50403583200E+03  0.94831574442E+03  0.14128174688E+04  0.89918313976E+03 0.  0.
        -24    2    4    4    0    0 -0.57027116159E+02  0.31876330368E+02  0.86332188526E+03  0.86939752545E+03  0.79115025610E+02 0.  0.
         24    2    4    4    0    0  0.24187302604E+03  0.47215950163E+03  0.84993859163E+02  0.54341994339E+03  0.81511490490E+02 0.  0.
         11    1    3    3    0    0 -0.10963924686E+03 -0.21624322859E+03  0.57762089224E+03  0.62644057461E+03  0.00000000000E+00 0.  1.
        -11    1    3    3    0    0 -0.75206663013E+02 -0.28779260340E+03  0.95735861728E+03  0.10025049361E+04  0.00000000000E+00 0. -1.
          2    1    6    6  502    0  0.19095628008E+03  0.34178740388E+03  0.28710278109E+02  0.39256491237E+03  0.00000000000E+00 0. -1.
          3    1    5    5  503    0 -0.25260269209E+02  0.16213155009E+02  0.75152757873E+03  0.75212675075E+03  0.00000000000E+00 0. -1.
         -4    1    5    5    0  503 -0.31766846951E+02  0.15663175358E+02  0.11179430652E+03  0.11727077470E+03  0.00000000000E+00 0.  1.
         -1    1    6    6    0  502  0.50916745958E+02  0.13037209775E+03  0.56283581054E+02  0.15085503103E+03  0.00000000000E+00 0.  1.
<mgrwt>
<rscale>  0 0.17565781E+04</rscale>
<asrwt>0</asrwt>
<pdfrwt beam="1">  1        2 0.42500446E+00 0.17565781E+04</pdfrwt>
<pdfrwt beam="2">  1       -2 0.42959058E-01 0.17565781E+04</pdfrwt>
<totfact> 0.11887800E+01</totfact>
</mgrwt>
</event>
<event>
12    1  0.1960998E-007  0.1961508E+04  0.7818608E-02  0.8624831E-01
          2   -1    0    0  501    0  0.00000000000E+00  0.00000000000E+00  0.15046233070E+04  0.15046233070E+04  0.00000000000E+00 0. -1.
         -2   -1    0    0    0  501 -0.00000000000E+00 -0.00000000000E+00 -0.63928177672E+03  0.63928177672E+03  0.00000000000E+00 0.  1.
         23    2    1    2    0    0 -0.45999422141E+03 -0.15374624319E+03 -0.31335475160E+03  0.58456584152E+03  0.91068280361E+02 0.  0.
        254    2    1    2    0    0  0.45999422141E+03  0.15374624319E+03  0.11786962819E+04  0.15593392422E+04  0.89832141038E+03 0.  0.
        -24    2    4    4    0    0 -0.18218159257E+03  0.11151118497E+03  0.74647928630E+03  0.78059671228E+03  0.80467541953E+02 0.  0.
         24    2    4    4    0    0  0.64217581398E+03  0.42235058219E+02  0.43221699558E+03  0.77874252993E+03  0.73856756294E+02 0.  0.
         13    1    3    3    0    0 -0.87350181111E+02 -0.62520870173E+02 -0.45467034175E+02  0.11664546517E+03  0.00000000000E+00 0.  1.
        -13    1    3    3    0    0 -0.37264404030E+03 -0.91225373014E+02 -0.26788771743E+03  0.46792037635E+03  0.00000000000E+00 0. -1.
          4    1    6    6  502    0  0.53527001352E+03  0.62044649446E+02  0.35218474799E+03  0.64373723103E+03  0.00000000000E+00 0. -1.
          3    1    5    5  503    0 -0.16911694621E+03  0.67177892742E+02  0.58767770543E+03  0.61520605998E+03  0.00000000000E+00 0. -1.
         -4    1    5    5    0  503 -0.13064646351E+02  0.44333292226E+02  0.15880158086E+03  0.16539065230E+03  0.00000000000E+00 0.  1.
         -3    1    6    6    0  502  0.10690580046E+03 -0.19809591227E+02  0.80032247595E+02  0.13500529890E+03  0.00000000000E+00 0.  1.
<mgrwt>
<rscale>  0 0.19615078E+04</rscale>
<asrwt>0</asrwt>
<pdfrwt beam="1">  1        2 0.23148051E+00 0.19615078E+04</pdfrwt>
<pdfrwt beam="2">  1       -2 0.98351043E-01 0.19615078E+04</pdfrwt>
<totfact> 0.10103492E+01</totfact>
</mgrwt>
</event>
<event>
12    1  0.1960998E-007  0.2910086E+04  0.7818608E-02  0.8269883E-01
         -2   -1    0    0    0  501 -0.00000000000E+00  0.00000000000E+00  0.11749549096E+04  0.11749549096E+04  0.00000000000E+00 0. -1.
          2   -1    0    0  501    0  0.00000000000E+00 -0.00000000000E+00 -0.18018988356E+04  0.18018988356E+04  0.00000000000E+00 0.  1.
         23    2    1    2    0    0 -0.43276477442E+03 -0.10453439123E+04 -0.96587304379E+03  0.14904562582E+04  0.92303173932E+02 0.  0.
        254    2    1    2    0    0  0.43276477442E+03  0.10453439123E+04  0.33892911771E+03  0.14863974870E+04  0.90248285157E+03 0.  0.
        -24    2    4    4    0    0  0.50777163453E+03  0.10544231279E+04  0.46597128113E+02  0.11743112855E+04  0.84826512761E+02 0.  0.
         24    2    4    4    0    0 -0.75006860105E+02 -0.90792155959E+01  0.29233198960E+03  0.31208620150E+03  0.78938861167E+02 0.  0.
         11    1    3    3    0    0 -0.24788382281E+03 -0.68543257940E+03 -0.58226353578E+03  0.93289604759E+03  0.00000000000E+00 0.  1.
        -11    1    3    3    0    0 -0.18488095161E+03 -0.35991133295E+03 -0.38360950801E+03  0.55756021064E+03  0.00000000000E+00 0. -1.
          2    1    6    6  502    0 -0.65993949813E+02 -0.15431301491E+02  0.10852793002E+03  0.12795170210E+03  0.00000000000E+00 0. -1.
          1    1    5    5  503    0  0.25034192461E+03  0.42350288670E+03  0.17487781295E+02  0.49227187280E+03  0.00000000000E+00 0. -1.
         -2    1    5    5    0  503  0.25742970992E+03  0.63092024125E+03  0.29109346818E+02  0.68203941267E+03  0.00000000000E+00 0.  1.
         -1    1    6    6    0  502 -0.90129102917E+01  0.63520858946E+01  0.18380405958E+03  0.18413449939E+03  0.00000000000E+00 0.  1.
<mgrwt>
<rscale>  0 0.29100858E+04</rscale>
<asrwt>0</asrwt>
<pdfrwt beam="1">  1        2 0.27721520E+00 0.29100858E+04</pdfrwt>
<pdfrwt beam="2">  1       -2 0.18076229E+00 0.29100858E+04</pdfrwt>
<totfact> 0.13299517E+00</totfact>
</mgrwt>
</event>
<event>
12    1  0.1960998E-007  0.1994075E+04  0.7818608E-02  0.8609396E-01
         -2   -1    0    0    0  501 -0.00000000000E+00  0.00000000000E+00  0.13958800261E+04  0.13958800261E+04  0.00000000000E+00 0.  1.
          2   -1    0    0  501    0  0.00000000000E+00 -0.00000000000E+00 -0.71215573137E+03  0.71215573137E+03  0.00000000000E+00 0. -1.
         23    2    1    2    0    0 -0.62863657584E+03  0.46995991860E+03  0.42125625430E+03  0.89538117547E+03  0.90577856187E+02 0.  0.
        254    2    1    2    0    0  0.62863657584E+03 -0.46995991860E+03  0.26246804042E+03  0.12126545820E+04  0.88633819358E+03 0.  0.
        -24    2    4    4    0    0 -0.40307569836E+02 -0.15613399773E+03  0.41696482771E+03  0.45329530903E+03  0.74929594999E+02 0.  0.
         24    2    4    4    0    0  0.66894414567E+03 -0.31382592087E+03 -0.15449678729E+03  0.75935927296E+03  0.82366677160E+02 0.  0.
         13    1    3    3    0    0 -0.21635577059E+03  0.13126759300E+03  0.17536464964E+03  0.30788595419E+03  0.00000000000E+00 0. -1.
        -13    1    3    3    0    0 -0.41228080524E+03  0.33869232560E+03  0.24589160466E+03  0.58749522129E+03  0.00000000000E+00 0.  1.
          4    1    6    6  502    0  0.52165888908E+03 -0.23154619994E+03 -0.15199887603E+03  0.59063127040E+03  0.00000000000E+00 0. -1.
          3    1    5    5  503    0 -0.53445370869E+02 -0.14514849600E+03  0.40133517534E+03  0.43010977264E+03  0.00000000000E+00 0. -1.
         -4    1    5    5    0  503  0.13137801033E+02 -0.10985501735E+02  0.15629652372E+02  0.23185536389E+02  0.00000000000E+00 0.  1.
         -3    1    6    6    0  502  0.14728525659E+03 -0.82279720936E+02 -0.24979112593E+01  0.16872800256E+03  0.00000000000E+00 0.  1.
<mgrwt>
<rscale>  0 0.19940752E+04</rscale>
<asrwt>0</asrwt>
<pdfrwt beam="1">  1        2 0.10956242E+00 0.19940752E+04</pdfrwt>
<pdfrwt beam="2">  1       -2 0.21475077E+00 0.19940752E+04</pdfrwt>
<totfact> 0.39748987E+00</totfact>
</mgrwt>
</event>
<event>
12    1  0.1960998E-007  0.2077165E+04  0.7818608E-02  0.8571370E-01
         -1   -1    0    0    0  501 -0.00000000000E+00  0.00000000000E+00  0.49144750963E+03  0.49144750963E+03  0.00000000000E+00 0.  1.
          1   -1    0    0  501    0  0.00000000000E+00 -0.00000000000E+00 -0.21948496132E+04  0.21948496132E+04  0.00000000000E+00 0. -1.
         23    2    1    2    0    0 -0.28441335602E+03  0.21416413380E+03  0.29034708109E+03  0.46988341397E+03  0.98649693031E+02 0.  0.
        254    2    1    2    0    0  0.28441335602E+03 -0.21416413380E+03 -0.19937491847E+04  0.22164137089E+04  0.90038696358E+03 0.  0.
        -24    2    4    4    0    0 -0.18535120160E+03  0.23290641341E+03 -0.52071813681E+03  0.60493161769E+03  0.78704629687E+02 0.  0.
         24    2    4    4    0    0  0.46976455763E+03 -0.44707054722E+03 -0.14730310478E+04  0.16114820912E+04  0.80642720875E+02 0.  0.
         13    1    3    3    0    0 -0.10262951989E+02  0.38065795770E+02  0.11633262513E+02  0.41105544490E+02  0.00000000000E+00 0. -1.
        -13    1    3    3    0    0 -0.27415040403E+03  0.17609833803E+03  0.27871381858E+03  0.42877786948E+03  0.00000000000E+00 0.  1.
          4    1    6    6  502    0  0.37603163336E+03 -0.32519201954E+03 -0.11830624438E+04  0.12832717502E+04  0.00000000000E+00 0. -1.
          1    1    5    5  503    0 -0.67200579247E+02  0.70248613519E+02 -0.10463959362E+03  0.14282937410E+03  0.00000000000E+00 0. -1.
         -2    1    5    5    0  503 -0.11815062236E+03  0.16265779989E+03 -0.41607854319E+03  0.46210224359E+03  0.00000000000E+00 0.  1.
         -3    1    6    6    0  502  0.93732924266E+02 -0.12187852768E+03 -0.28996860402E+03  0.32821034097E+03  0.00000000000E+00 0.  1.
<mgrwt>
<rscale>  0 0.20771648E+04</rscale>
<asrwt>0</asrwt>
<pdfrwt beam="1">  1        1 0.33766917E+00 0.20771648E+04</pdfrwt>
<pdfrwt beam="2">  1       -1 0.75607309E-01 0.20771648E+04</pdfrwt>
<totfact> 0.35576003E+00</totfact>
</mgrwt>
</event>
<event>
12    1  0.1960998E-007  0.2711093E+04  0.7818608E-02  0.8331415E-01
          2   -1    0    0  501    0  0.00000000000E+00  0.00000000000E+00  0.24367594004E+04  0.24367594004E+04  0.00000000000E+00 0. -1.
         -2   -1    0    0    0  501 -0.00000000000E+00 -0.00000000000E+00 -0.75407783745E+03  0.75407783745E+03  0.00000000000E+00 0.  1.
         23    2    1    2    0    0 -0.27727805300E+03 -0.11663620765E+04  0.88659526600E+03  0.14938881569E+04  0.91471566761E+02 0.  0.
        254    2    1    2    0    0  0.27727805300E+03  0.11663620765E+04  0.79608629692E+03  0.16969490809E+04  0.89922142938E+03 0.  0.
        -24    2    4    4    0    0  0.49984633033E+03  0.27754348787E+03  0.34890007331E+03  0.67441770476E+03  0.78938189303E+02 0.  0.
         24    2    4    4    0    0 -0.22256827733E+03  0.88881858859E+03  0.44718622361E+03  0.10225313762E+04  0.77844557776E+02 0.  0.
         13    1    3    3    0    0 -0.10121673002E+03 -0.38594583665E+03  0.24351513932E+03  0.46743837919E+03  0.00000000000E+00 0.  1.
        -13    1    3    3    0    0 -0.17606132299E+03 -0.78041623981E+03  0.64308012668E+03  0.10264497777E+04  0.00000000000E+00 0. -1.
          2    1    6    6  502    0 -0.16545726249E+03  0.59375376094E+03  0.33656128866E+03  0.70227710725E+03  0.00000000000E+00 0. -1.
          1    1    5    5  503    0  0.10912704693E+03  0.74170696457E+02  0.11836322556E+03  0.17725647449E+03  0.00000000000E+00 0. -1.
         -2    1    5    5    0  503  0.39071928341E+03  0.20337279142E+03  0.23053684776E+03  0.49716123028E+03  0.00000000000E+00 0.  1.
         -1    1    6    6    0  502 -0.57111014843E+02  0.29506482764E+03  0.11062493495E+03  0.32025426892E+03  0.00000000000E+00 0.  1.
<mgrwt>
<rscale>  0 0.27110930E+04</rscale>
<asrwt>0</asrwt>
<pdfrwt beam="1">  1        2 0.37488606E+00 0.27110930E+04</pdfrwt>
<pdfrwt beam="2">  1       -2 0.11601198E+00 0.27110930E+04</pdfrwt>
<totfact> 0.19152169E+00</totfact>
</mgrwt>
</event>
<event>
12    1  0.1960998E-007  0.1830000E+04  0.7818608E-02  0.8690507E-01
         -1   -1    0    0    0  501 -0.00000000000E+00  0.00000000000E+00  0.46666440713E+03  0.46666440713E+03  0.00000000000E+00 0.  1.
          1   -1    0    0  501    0  0.00000000000E+00 -0.00000000000E+00 -0.17940616124E+04  0.17940616124E+04  0.00000000000E+00 0. -1.
         23    2    1    2    0    0  0.43734264657E+03  0.35078398009E+03 -0.10000640663E+04  0.11501278026E+04  0.91366484376E+02 0.  0.
        254    2    1    2    0    0 -0.43734264657E+03 -0.35078398009E+03 -0.32733313905E+03  0.11105982170E+04  0.90109013113E+03 0.  0.
        -24    2    4    4    0    0 -0.27072232923E+03 -0.47173934996E+03  0.16123581956E+03  0.57279648486E+03  0.79184782130E+02 0.  0.
         24    2    4    4    0    0 -0.16662031734E+03  0.12095536987E+03 -0.48856895861E+03  0.53780173211E+03  0.90213879693E+02 0.  0.
         13    1    3    3    0    0  0.15605177467E+03  0.12706034604E+03 -0.45139286424E+03  0.49421858099E+03  0.00000000000E+00 0. -1.
        -13    1    3    3    0    0  0.28129087190E+03  0.22372363404E+03 -0.54867120202E+03  0.65590922159E+03  0.00000000000E+00 0.  1.
          2    1    6    6  502    0 -0.18655911945E+02 -0.13517035972E+02 -0.74616871110E+02  0.78092450123E+02  0.00000000000E+00 0. -1.
          3    1    5    5  503    0 -0.49677022614E+02 -0.10723981224E+03  0.68275991645E+02  0.13649100681E+03  0.00000000000E+00 0. -1.
         -4    1    5    5    0  503 -0.22104530662E+03 -0.36449953772E+03  0.92959827919E+02  0.43630547806E+03  0.00000000000E+00 0.  1.
         -1    1    6    6    0  502 -0.14796440539E+03  0.13447240584E+03 -0.41395208750E+03  0.45970928198E+03  0.00000000000E+00 0.  1.
<mgrwt>
<rscale>  0 0.18299997E+04</rscale>
<asrwt>0</asrwt>
<pdfrwt beam="1">  1        1 0.27600948E+00 0.18299997E+04</pdfrwt>
<pdfrwt beam="2">  1       -1 0.71794525E-01 0.18299997E+04</pdfrwt>
<totfact> 0.75783169E+00</totfact>
</mgrwt>
</event>
<event>
12    1  0.1960998E-007  0.2654029E+04  0.7818608E-02  0.8350077E-01
         -2   -1    0    0    0  501 -0.00000000000E+00  0.00000000000E+00  0.52709054193E+03  0.52709054193E+03  0.00000000000E+00 0.  1.
          2   -1    0    0  501    0  0.00000000000E+00 -0.00000000000E+00 -0.33409204681E+04  0.33409204681E+04  0.00000000000E+00 0. -1.
         23    2    1    2    0    0  0.54412947833E+03  0.62601508308E+03 -0.38141339211E+02  0.83470741082E+03  0.85498108087E+02 0.  0.
        254    2    1    2    0    0 -0.54412947833E+03 -0.62601508308E+03 -0.27756885870E+04  0.30333035993E+04  0.89917285311E+03 0.  0.
        -24    2    4    4    0    0 -0.75220516745E+03 -0.64221551773E+03 -0.21465192283E+04  0.23647467324E+04  0.78923545588E+02 0.  0.
         24    2    4    4    0    0  0.20807568912E+03  0.16200434649E+02 -0.62916935873E+03  0.66855686681E+03  0.86926726146E+02 0.  0.
         13    1    3    3    0    0  0.27888535118E+03  0.37030651050E+03 -0.48676715673E+02  0.46612592019E+03  0.00000000000E+00 0. -1.
        -13    1    3    3    0    0  0.26524412715E+03  0.25570857258E+03  0.10535376462E+02  0.36858149063E+03  0.00000000000E+00 0.  1.
          4    1    6    6  502    0 -0.54005738710E+01  0.11264502218E+02 -0.38412192711E+02  0.40392471541E+02  0.00000000000E+00 0. -1.
          1    1    5    5  503    0 -0.26935351505E+03 -0.28059019058E+03 -0.84475651755E+03  0.92999771240E+03  0.00000000000E+00 0. -1.
         -2    1    5    5    0  503 -0.48285165241E+03 -0.36162532715E+03 -0.13017627107E+04  0.14347490200E+04  0.00000000000E+00 0.  1.
         -3    1    6    6    0  502  0.21347626299E+03  0.49359324306E+01 -0.59075716602E+03  0.62816439527E+03  0.00000000000E+00 0.  1.
<mgrwt>
<rscale>  0 0.26540291E+04</rscale>
<asrwt>0</asrwt>
<pdfrwt beam="1">  1        2 0.51398776E+00 0.26540291E+04</pdfrwt>
<pdfrwt beam="2">  1       -2 0.81090854E-01 0.26540291E+04</pdfrwt>
<totfact> 0.12347280E+00</totfact>
</mgrwt>
</event>
<event>
12    1  0.1960998E-007  0.1827895E+04  0.7818608E-02  0.8691604E-01
          1   -1    0    0  501    0  0.00000000000E+00  0.00000000000E+00  0.78805451636E+03  0.78805451636E+03  0.00000000000E+00 0. -1.
         -1   -1    0    0    0  501 -0.00000000000E+00 -0.00000000000E+00 -0.10599525084E+04  0.10599525084E+04  0.00000000000E+00 0.  1.
         23    2    1    2    0    0 -0.21630117962E+03  0.62796668043E+03  0.75712089858E+02  0.67424165703E+03  0.87983745592E+02 0.  0.
        254    2    1    2    0    0  0.21630117962E+03 -0.62796668043E+03 -0.34761008194E+03  0.11737653678E+04  0.90319655529E+03 0.  0.
        -24    2    4    4    0    0  0.48031843963E+03 -0.66772799050E+03 -0.17068048955E+03  0.84386884910E+03  0.80102011306E+02 0.  0.
         24    2    4    4    0    0 -0.26401726001E+03  0.39761310070E+02 -0.17692959238E+03  0.32989651867E+03  0.79003525290E+02 0.  0.
         13    1    3    3    0    0 -0.20629582780E+03  0.62450166861E+03  0.80536911883E+02  0.66260583822E+03  0.00000000000E+00 0. -1.
        -13    1    3    3    0    0 -0.10005351813E+02  0.34650118204E+01 -0.48248220251E+01  0.11635818810E+02  0.00000000000E+00 0.  1.
          2    1    6    6  502    0 -0.80685850595E+02 -0.19471963700E+02 -0.32626781998E+02  0.89184476004E+02  0.00000000000E+00 0. -1.
          1    1    5    5  503    0  0.71018646022E+02 -0.15363539572E+03 -0.38470683551E+02  0.17357268332E+03  0.00000000000E+00 0. -1.
         -4    1    5    5    0  503  0.40929979361E+03 -0.51409259478E+03 -0.13220980600E+03  0.67029616578E+03  0.00000000000E+00 0.  1.
         -1    1    6    6    0  502 -0.18333140942E+03  0.59233273771E+02 -0.14430281039E+03  0.24071204267E+03  0.00000000000E+00 0.  1.
<mgrwt>
<rscale>  0 0.18278954E+04</rscale>
<asrwt>0</asrwt>
<pdfrwt beam="1">  1        1 0.12123916E+00 0.18278954E+04</pdfrwt>
<pdfrwt beam="2">  1       -1 0.16306962E+00 0.18278954E+04</pdfrwt>
<totfact> 0.59073027E+00</totfact>
</mgrwt>
</event>
<event>
12    1  0.1960998E-007  0.1070038E+04  0.7818608E-02  0.9234897E-01
         -2   -1    0    0    0  501 -0.00000000000E+00  0.00000000000E+00  0.29518438343E+03  0.29518438343E+03  0.00000000000E+00 0.  1.
          2   -1    0    0  501    0  0.00000000000E+00 -0.00000000000E+00 -0.96971676622E+03  0.96971676622E+03  0.00000000000E+00 0. -1.
         23    2    1    2    0    0  0.64991509221E+02 -0.10682682725E+03 -0.15242445917E+03  0.21731811165E+03  0.91422527894E+02 0.  0.
        254    2    1    2    0    0 -0.64991509221E+02  0.10682682725E+03 -0.52210792363E+03  0.10475830380E+04  0.89955415084E+03 0.  0.
        -24    2    4    4    0    0  0.18597172960E+03  0.41605498094E+03 -0.12506992538E+03  0.47991677534E+03  0.83608573984E+02 0.  0.
         24    2    4    4    0    0 -0.25096323882E+03 -0.30922815369E+03 -0.39703799825E+03  0.56766626266E+03  0.77467512145E+02 0.  0.
         13    1    3    3    0    0  0.33532349306E+02 -0.64901753875E+02 -0.14759024197E+03  0.16468010089E+03  0.00000000000E+00 0. -1.
        -13    1    3    3    0    0  0.31459159915E+02 -0.41925073373E+02 -0.48342171959E+01  0.52638010751E+02  0.00000000000E+00 0.  1.
          4    1    6    6  502    0 -0.24610985168E+03 -0.26965083234E+03 -0.34692547089E+03  0.50362576664E+03  0.00000000000E+00 0. -1.
          3    1    5    5  503    0  0.14356457690E+03  0.34225846798E+03 -0.67698217292E+02  0.37727270676E+03  0.00000000000E+00 0. -1.
         -4    1    5    5    0  503  0.42407152705E+02  0.73796512958E+02 -0.57371708086E+02  0.10264406858E+03  0.00000000000E+00 0.  1.
         -3    1    6    6    0  502 -0.48533871410E+01 -0.39577321352E+02 -0.50112527358E+02  0.64040496019E+02  0.00000000000E+00 0.  1.
<mgrwt>
<rscale>  0 0.10700378E+04</rscale>
<asrwt>0</asrwt>
<pdfrwt beam="1">  1        2 0.14918720E+00 0.10700378E+04</pdfrwt>
<pdfrwt beam="2">  1       -2 0.45412982E-01 0.10700378E+04</pdfrwt>
<totfact> 0.12046924E+02</totfact>
</mgrwt>
</event>
<event>
12    1  0.1960998E-007  0.1917409E+04  0.7818608E-02  0.8646239E-01
          1   -1    0    0  501    0  0.00000000000E+00  0.00000000000E+00  0.19637628839E+04  0.19637628839E+04  0.00000000000E+00 0. -1.
         -1   -1    0    0    0  501 -0.00000000000E+00 -0.00000000000E+00 -0.46803709185E+03  0.46803709185E+03  0.00000000000E+00 0.  1.
         23    2    1    2    0    0  0.58029082374E+03 -0.43938068474E+03  0.39165773575E+03  0.83127247616E+03  0.88460846750E+02 0.  0.
        254    2    1    2    0    0 -0.58029082374E+03  0.43938068474E+03  0.11040680563E+04  0.16005274996E+04  0.90162585243E+03 0.  0.
        -24    2    4    4    0    0 -0.78336576559E+03  0.33281890784E+03  0.61473707081E+03  0.10529349630E+04  0.79624254911E+02 0.  0.
         24    2    4    4    0    0  0.20307494185E+03  0.10656177690E+03  0.48933098547E+03  0.54759253658E+03  0.88419050375E+02 0.  0.
         11    1    3    3    0    0  0.30266693472E+03 -0.18181170310E+03  0.21505605854E+03  0.41341489701E+03  0.00000000000E+00 0.  1.
        -11    1    3    3    0    0  0.27762388902E+03 -0.25756898164E+03  0.17660167721E+03  0.41785757915E+03  0.00000000000E+00 0. -1.
          2    1    6    6  502    0  0.16228646125E+03  0.49449718162E+02  0.39606251032E+03  0.43086852079E+03  0.00000000000E+00 0. -1.
          1    1    5    5  503    0 -0.61994465404E+03  0.23010906311E+03  0.45967030592E+03  0.80534361930E+03  0.00000000000E+00 0. -1.
         -2    1    5    5    0  503 -0.16342111155E+03  0.10270984472E+03  0.15506676488E+03  0.24759134370E+03  0.00000000000E+00 0.  1.
         -1    1    6    6    0  502  0.40788480598E+02  0.57112058742E+02  0.93268475154E+02  0.11672401578E+03  0.00000000000E+00 0.  1.
<mgrwt>
<rscale>  0 0.19174085E+04</rscale>
<asrwt>0</asrwt>
<pdfrwt beam="1">  1        1 0.30211736E+00 0.19174085E+04</pdfrwt>
<pdfrwt beam="2">  1       -1 0.72005708E-01 0.19174085E+04</pdfrwt>
<totfact> 0.57341245E+00</totfact>
</mgrwt>
</event>
<event>
12    1  0.1960998E-007  0.2252735E+04  0.7818608E-02  0.8496794E-01
         -1   -1    0    0    0  501 -0.00000000000E+00  0.00000000000E+00  0.43435565710E+03  0.43435565710E+03  0.00000000000E+00 0.  1.
          1   -1    0    0  501    0  0.00000000000E+00 -0.00000000000E+00 -0.29208873731E+04  0.29208873731E+04  0.00000000000E+00 0. -1.
         23    2    1    2    0    0  0.10272267325E+03  0.90352536591E+03 -0.67218935403E+03  0.11345936821E+04  0.92489250341E+02 0.  0.
        254    2    1    2    0    0 -0.10272267325E+03 -0.90352536591E+03 -0.18143423620E+04  0.22206493481E+04  0.90140739192E+03 0.  0.
        -24    2    4    4    0    0  0.21060041599E+03 -0.88820436696E+03 -0.15603413105E+04  0.18094617520E+04  0.78913205314E+02 0.  0.
         24    2    4    4    0    0 -0.31332308923E+03 -0.15320998942E+02 -0.25400105144E+03  0.41118759604E+03  0.78438598627E+02 0.  0.
         11    1    3    3    0    0  0.13643200770E+02  0.47929404029E+03 -0.38035116629E+03  0.61202608088E+03  0.00000000000E+00 0.  1.
        -11    1    3    3    0    0  0.89079472477E+02  0.42423132562E+03 -0.29183818775E+03  0.52256760125E+03  0.00000000000E+00 0. -1.
          2    1    6    6  502    0 -0.38375127972E+02 -0.28876605791E+02 -0.35254466047E+02  0.59576725196E+02  0.00000000000E+00 0. -1.
          1    1    5    5  503    0  0.78754972229E+01 -0.98263908499E+01 -0.99850857932E+01  0.16071196344E+02  0.00000000000E+00 0. -1.
         -2    1    5    5    0  503  0.20272491877E+03 -0.87837797611E+03 -0.15503562247E+04  0.17933905557E+04  0.00000000000E+00 0.  1.
         -3    1    6    6    0  502 -0.27494796126E+03  0.13555606849E+02 -0.21874658539E+03  0.35161087085E+03  0.00000000000E+00 0.  1.
<mgrwt>
<rscale>  0 0.22527352E+04</rscale>
<asrwt>0</asrwt>
<pdfrwt beam="1">  1        1 0.44936728E+00 0.22527352E+04</pdfrwt>
<pdfrwt beam="2">  1       -1 0.66823948E-01 0.22527352E+04</pdfrwt>
<totfact> 0.14058045E+00</totfact>
</mgrwt>
</event>
<event>
12    1  0.1960998E-007  0.1450930E+04  0.7818608E-02  0.8917756E-01
          2   -1    0    0  501    0  0.00000000000E+00  0.00000000000E+00  0.23019847699E+04  0.23019847699E+04  0.00000000000E+00 0.  1.
         -2   -1    0    0    0  501 -0.00000000000E+00 -0.00000000000E+00 -0.22862853853E+03  0.22862853853E+03  0.00000000000E+00 0. -1.
         23    2    1    2    0    0 -0.13458679271E+03 -0.10411382898E+03  0.13525349761E+04  0.13660934510E+04  0.88922219563E+02 0.  0.
        254    2    1    2    0    0  0.13458679271E+03  0.10411382898E+03  0.72082125525E+03  0.11645198574E+04  0.89864894264E+03 0.  0.
        -24    2    4    4    0    0 -0.17407531313E+03  0.32663510608E+03  0.40986446842E+02  0.38145149132E+03  0.82659810311E+02 0.  0.
         24    2    4    4    0    0  0.30866210584E+03 -0.22252127709E+03  0.67983480841E+03  0.78306836608E+03  0.78947355230E+02 0.  0.
         13    1    3    3    0    0 -0.11557204606E+03 -0.83956976318E+02  0.78560183661E+03  0.79848351103E+03  0.00000000000E+00 0. -1.
        -13    1    3    3    0    0 -0.19014746655E+02 -0.20156852665E+02  0.56693313950E+03  0.56760993998E+03  0.00000000000E+00 0.  1.
          2    1    6    6  502    0  0.27396592614E+02 -0.54457659181E+02  0.10739472698E+03  0.12349023165E+03  0.00000000000E+00 0. -1.
          3    1    5    5  503    0 -0.34209786752E+02  0.28666655445E+02  0.26636743646E+02  0.51976944467E+02  0.00000000000E+00 0. -1.
         -4    1    5    5    0  503 -0.13986552638E+03  0.29796845063E+03  0.14349703196E+02  0.32947454685E+03  0.00000000000E+00 0.  1.
         -1    1    6    6    0  502  0.28126551323E+03 -0.16806361791E+03  0.57244008143E+03  0.65957813443E+03  0.00000000000E+00 0.  1.
<mgrwt>
<rscale>  0 0.14509299E+04</rscale>
<asrwt>0</asrwt>
<pdfrwt beam="1">  1        2 0.35415149E+00 0.14509299E+04</pdfrwt>
<pdfrwt beam="2">  1       -2 0.35173623E-01 0.14509299E+04</pdfrwt>
<totfact> 0.33336589E+01</totfact>
</mgrwt>
</event>
<event>
12    1  0.1960998E-007  0.1554882E+04  0.7818608E-02  0.8848755E-01
         -2   -1    0    0    0  501 -0.00000000000E+00  0.00000000000E+00  0.46623688202E+03  0.46623688202E+03  0.00000000000E+00 0.  1.
          2   -1    0    0  501    0  0.00000000000E+00 -0.00000000000E+00 -0.12963683376E+04  0.12963683376E+04  0.00000000000E+00 0. -1.
         23    2    1    2    0    0  0.19904874159E+03 -0.39225469470E+03  0.20271031354E+02  0.44929339890E+03  0.89272036699E+02 0.  0.
        254    2    1    2    0    0 -0.19904874159E+03  0.39225469470E+03 -0.85040248690E+03  0.13133118207E+04  0.89895461597E+03 0.  0.
        -24    2    4    4    0    0 -0.44841044153E+02 -0.15429221080E+03 -0.69650262604E+03  0.71927335232E+03  0.80133898684E+02 0.  0.
         24    2    4    4    0    0 -0.15420769744E+03  0.54654690550E+03 -0.15389986085E+03  0.59403846836E+03  0.81871856327E+02 0.  0.
         11    1    3    3    0    0  0.11535011454E+02 -0.82227688204E+02 -0.17978112464E+02  0.84956822707E+02  0.00000000000E+00 0.  1.
        -11    1    3    3    0    0  0.18751373014E+03 -0.31002700650E+03  0.38249143819E+02  0.36433657619E+03  0.00000000000E+00 0. -1.
          4    1    6    6  502    0 -0.16026252516E+03  0.52335903310E+03 -0.13562340391E+03  0.56389933693E+03  0.00000000000E+00 0. -1.
          3    1    5    5  503    0 -0.59418783103E+01 -0.17442982458E+00 -0.15017006687E+03  0.15028767523E+03  0.00000000000E+00 0. -1.
         -4    1    5    5    0  503 -0.38899165843E+02 -0.15411778098E+03 -0.54633255918E+03  0.56898567709E+03  0.00000000000E+00 0.  1.
         -3    1    6    6    0  502  0.60548277193E+01  0.23187872399E+02 -0.18276456942E+02  0.30139131431E+02  0.00000000000E+00 0.  1.
<mgrwt>
<rscale>  0 0.15548823E+04</rscale>
<asrwt>0</asrwt>
<pdfrwt beam="1">  1        2 0.19944128E+00 0.15548823E+04</pdfrwt>
<pdfrwt beam="2">  1       -2 0.71728753E-01 0.15548823E+04</pdfrwt>
<totfact> 0.28167867E+01</totfact>
</mgrwt>
</event>
<event>
12    1  0.1960998E-007  0.2952482E+04  0.7818608E-02  0.8257432E-01
         -2   -1    0    0    0  501 -0.00000000000E+00  0.00000000000E+00  0.10265545893E+04  0.10265545893E+04  0.00000000000E+00 0.  1.
          2   -1    0    0  501    0  0.00000000000E+00 -0.00000000000E+00 -0.21229136608E+04  0.21229136608E+04  0.00000000000E+00 0. -1.
         23    2    1    2    0    0 -0.12290329480E+04 -0.41943511975E+03 -0.87283866915E+03  0.15672305158E+04  0.88973818585E+02 0.  0.
        254    2    1    2    0    0  0.12290329480E+04  0.41943511975E+03 -0.22352040236E+03  0.15822377344E+04  0.87582365280E+03 0.  0.
        -24    2    4    4    0    0  0.13314292854E+04  0.29731103117E+03 -0.28305942736E+03  0.13953958791E+04  0.76871507820E+02 0.  0.
         24    2    4    4    0    0 -0.10239633743E+03  0.12212408857E+03  0.59539024992E+02  0.18684185522E+03  0.77237817398E+02 0.  0.
         13    1    3    3    0    0 -0.86503161641E+03 -0.33182101134E+03 -0.64612514363E+03  0.11295408723E+04  0.00000000000E+00 0.  1.
        -13    1    3    3    0    0 -0.36400133159E+03 -0.87614108407E+02 -0.22671352552E+03  0.43768964352E+03  0.00000000000E+00 0. -1.
          2    1    6    6  502    0 -0.28502222428E+02  0.30424426210E+02  0.54963502636E+02  0.68985571068E+02  0.00000000000E+00 0. -1.
          1    1    5    5  503    0  0.34735259888E+03  0.10715263371E+03 -0.93657874168E+02  0.37537622761E+03  0.00000000000E+00 0. -1.
         -2    1    5    5    0  503  0.98407668655E+03  0.19015839746E+03 -0.18940155319E+03  0.10200196515E+04  0.00000000000E+00 0.  1.
         -1    1    6    6    0  502 -0.73894115007E+02  0.91699662361E+02  0.45755223559E+01  0.11785628415E+03  0.00000000000E+00 0.  1.
<mgrwt>
<rscale>  0 0.29524815E+04</rscale>
<asrwt>0</asrwt>
<pdfrwt beam="1">  1        2 0.32660210E+00 0.29524815E+04</pdfrwt>
<pdfrwt beam="2">  1       -2 0.15793148E+00 0.29524815E+04</pdfrwt>
<totfact> 0.12794300E+00</totfact>
</mgrwt>
</event>
<event>
12    1  0.1960998E-007  0.2847771E+04  0.7818608E-02  0.8288589E-01
         -1   -1    0    0    0  501 -0.00000000000E+00  0.00000000000E+00  0.13848194457E+04  0.13848194457E+04  0.00000000000E+00 0.  1.
          1   -1    0    0  501    0  0.00000000000E+00 -0.00000000000E+00 -0.14640538891E+04  0.14640538891E+04  0.00000000000E+00 0. -1.
         23    2    1    2    0    0  0.73720797044E+03  0.10271779213E+04 -0.23069267414E+03  0.12879943271E+04  0.84499722695E+02 0.  0.
        254    2    1    2    0    0 -0.73720797044E+03 -0.10271779213E+04  0.15145823075E+03  0.15608790076E+04  0.90268134309E+03 0.  0.
        -24    2    4    4    0    0 -0.45586374128E+03 -0.32038252303E+03  0.46916289977E+03  0.73269749005E+03  0.79215362920E+02 0.  0.
         24    2    4    4    0    0 -0.28134422916E+03 -0.70679539826E+03 -0.31770466902E+03  0.82818151759E+03  0.78956057926E+02 0.  0.
         11    1    3    3    0    0  0.21783051430E+03  0.31077362411E+03 -0.10859208781E+03  0.39474373958E+03  0.00000000000E+00 0. -1.
        -11    1    3    3    0    0  0.51937745614E+03  0.71640429718E+03 -0.12210058632E+03  0.89325058754E+03  0.00000000000E+00 0.  1.
          4    1    6    6  502    0 -0.19717351773E+03 -0.39397573042E+03 -0.19475376220E+03  0.48168796969E+03  0.00000000000E+00 0. -1.
          1    1    5    5  503    0 -0.32539654807E+03 -0.26005316324E+03  0.31760014323E+03  0.52381333716E+03  0.00000000000E+00 0. -1.
         -2    1    5    5    0  503 -0.13046719321E+03 -0.60329359790E+02  0.15156275654E+03  0.20888415289E+03  0.00000000000E+00 0.  1.
         -3    1    6    6    0  502 -0.84170711425E+02 -0.31281966783E+03 -0.12295090682E+03  0.34649354790E+03  0.00000000000E+00 0.  1.
<mgrwt>
<rscale>  0 0.28477713E+04</rscale>
<asrwt>0</asrwt>
<pdfrwt beam="1">  1        1 0.22523906E+00 0.28477713E+04</pdfrwt>
<pdfrwt beam="2">  1       -1 0.21304915E+00 0.28477713E+04</pdfrwt>
<totfact> 0.73237000E-01</totfact>
</mgrwt>
</event>
<event>
12    1  0.1960998E-007  0.2163325E+04  0.7818608E-02  0.8533850E-01
          1   -1    0    0  501    0  0.00000000000E+00  0.00000000000E+00  0.10432420598E+04  0.10432420598E+04  0.00000000000E+00 0. -1.
         -1   -1    0    0    0  501 -0.00000000000E+00 -0.00000000000E+00 -0.11214983478E+04  0.11214983478E+04  0.00000000000E+00 0.  1.
         23    2    1    2    0    0 -0.27309781467E+02 -0.85058683345E+03 -0.29918061594E+03  0.90679003067E+03  0.92278563943E+02 0.  0.
        254    2    1    2    0    0  0.27309781467E+02  0.85058683345E+03  0.22092432796E+03  0.12579503769E+04  0.89965982834E+03 0.  0.
        -24    2    4    4    0    0 -0.19109902068E+03  0.15460849552E+03 -0.27108926493E+03  0.37444453131E+03  0.79351716265E+02 0.  0.
         24    2    4    4    0    0  0.21840880215E+03  0.69597833793E+03  0.49201359289E+03  0.88350584562E+03  0.80105879520E+02 0.  0.
         11    1    3    3    0    0 -0.49036415443E+02 -0.55435279903E+03 -0.16203091189E+03  0.57962540682E+03  0.00000000000E+00 0. -1.
        -11    1    3    3    0    0  0.21726633976E+02 -0.29623403443E+03 -0.13714970404E+03  0.32716462385E+03  0.00000000000E+00 0.  1.
          2    1    6    6  502    0  0.30556358463E+02  0.21845914281E+03  0.15472973305E+03  0.26944271824E+03  0.00000000000E+00 0. -1.
          3    1    5    5  503    0 -0.14518556429E+03  0.11802520960E+03 -0.24956783694E+03  0.31191810370E+03  0.00000000000E+00 0. -1.
         -4    1    5    5    0  503 -0.45913456396E+02  0.36583285921E+02 -0.21521427982E+02  0.62526427607E+02  0.00000000000E+00 0.  1.
         -1    1    6    6    0  502  0.18785244369E+03  0.47751919512E+03  0.33728385984E+03  0.61406312739E+03  0.00000000000E+00 0.  1.
<mgrwt>
<rscale>  0 0.21633254E+04</rscale>
<asrwt>0</asrwt>
<pdfrwt beam="1">  1        1 0.16049878E+00 0.21633254E+04</pdfrwt>
<pdfrwt beam="2">  1       -1 0.17253821E+00 0.21633254E+04</pdfrwt>
<totfact> 0.30199736E+00</totfact>
</mgrwt>
</event>
<event>
12    1  0.1960998E-007  0.1196981E+04  0.7818608E-02  0.9115503E-01
         -2   -1    0    0    0  501 -0.00000000000E+00  0.00000000000E+00  0.12443808910E+03  0.12443808910E+03  0.00000000000E+00 0.  1.
          2   -1    0    0  501    0  0.00000000000E+00 -0.00000000000E+00 -0.28784689183E+04  0.28784689183E+04  0.00000000000E+00 0. -1.
         23    2    1    2    0    0  0.14083475486E+03  0.14623794876E+03 -0.24337681843E+03  0.32831714585E+03  0.85673255339E+02 0.  0.
        254    2    1    2    0    0 -0.14083475486E+03 -0.14623794876E+03 -0.25106540108E+04  0.26745898615E+04  0.89934831952E+03 0.  0.
        -24    2    4    4    0    0 -0.27767251486E+03 -0.76797429231E+02 -0.24832210833E+04  0.25010925443E+04  0.77955728766E+02 0.  0.
         24    2    4    4    0    0  0.13683776000E+03 -0.69440519526E+02 -0.27432927419E+02  0.17349731725E+03  0.76172142360E+02 0.  0.
         13    1    3    3    0    0  0.11119929956E+03  0.15275809289E+03 -0.22007997804E+03  0.29006122785E+03  0.00000000000E+00 0.  1.
        -13    1    3    3    0    0  0.29635455296E+02 -0.65201441367E+01 -0.23296840383E+02  0.38255918000E+02  0.00000000000E+00 0. -1.
          2    1    6    6  502    0  0.10105499855E+03 -0.31370993836E+02 -0.49455130466E+02  0.11679923765E+03  0.00000000000E+00 0. -1.
          3    1    5    5  503    0 -0.59711911048E+02 -0.65438288201E+01 -0.30443136697E+03  0.31030112989E+03  0.00000000000E+00 0. -1.
         -4    1    5    5    0  503 -0.21796060381E+03 -0.70253600411E+02 -0.21787897164E+04  0.21907914144E+04  0.00000000000E+00 0.  1.
         -1    1    6    6    0  502  0.35782761456E+02 -0.38069525690E+02  0.22022203047E+02  0.56698079603E+02  0.00000000000E+00 0.  1.
<mgrwt>
<rscale>  0 0.11969815E+04</rscale>
<asrwt>0</asrwt>
<pdfrwt beam="1">  1        2 0.44284134E+00 0.11969815E+04</pdfrwt>
<pdfrwt beam="2">  1       -2 0.19144323E-01 0.11969815E+04</pdfrwt>
<totfact> 0.47765372E+01</totfact>
</mgrwt>
</event>
<event>
12    1  0.1960998E-007  0.2843299E+04  0.7818608E-02  0.8289950E-01
         -2   -1    0    0    0  501 -0.00000000000E+00  0.00000000000E+00  0.52872641491E+03  0.52872641491E+03  0.00000000000E+00 0.  1.
          2   -1    0    0  501    0  0.00000000000E+00 -0.00000000000E+00 -0.38225579321E+04  0.38225579321E+04  0.00000000000E+00 0. -1.
         23    2    1    2    0    0  0.23386819397E+03 -0.11698262036E+04 -0.78704098904E+03  0.14325360935E+04  0.97665049499E+02 0.  0.
        254    2    1    2    0    0 -0.23386819397E+03  0.11698262036E+04 -0.25067905281E+04  0.29187482536E+04  0.90105767682E+03 0.  0.
        -24    2    4    4    0    0  0.29040314572E+03  0.55124523570E+03 -0.14810652960E+04  0.16087296135E+04  0.79064918886E+02 0.  0.
         24    2    4    4    0    0 -0.52427133969E+03  0.61858096787E+03 -0.10257252322E+04  0.13100186401E+04  0.80831516387E+02 0.  0.
         13    1    3    3    0    0  0.19981221919E+03 -0.83554518087E+03 -0.60102985944E+03  0.10484739215E+04  0.00000000000E+00 0. -1.
        -13    1    3    3    0    0  0.34055974779E+02 -0.33428102270E+03 -0.18601112960E+03  0.38406217191E+03  0.00000000000E+00 0.  1.
          4    1    6    6  502    0 -0.44636862441E+03  0.52092575558E+03 -0.81754506640E+03  0.10672340546E+04  0.00000000000E+00 0. -1.
          1    1    5    5  503    0  0.24765375982E+03  0.39665039110E+03 -0.11112340435E+04  0.12056139585E+04  0.00000000000E+00 0. -1.
         -2    1    5    5    0  503  0.42749385895E+02  0.15459484460E+03 -0.36983125246E+03  0.40311565495E+03  0.00000000000E+00 0.  1.
         -3    1    6    6    0  502 -0.77902715276E+02  0.97655212289E+02 -0.20818016577E+03  0.24278458550E+03  0.00000000000E+00 0.  1.
<mgrwt>
<rscale>  0 0.28432990E+04</rscale>
<asrwt>0</asrwt>
<pdfrwt beam="1">  1        2 0.58808583E+00 0.28432990E+04</pdfrwt>
<pdfrwt beam="2">  1       -2 0.81342526E-01 0.28432990E+04</pdfrwt>
<totfact> 0.54495750E-01</totfact>
</mgrwt>
</event>
<event>
12    1  0.1960998E-007  0.2886388E+04  0.7818608E-02  0.8276939E-01
          2   -1    0    0  501    0  0.00000000000E+00  0.00000000000E+00  0.19869729187E+04  0.19869729187E+04  0.00000000000E+00 0. -1.
         -2   -1    0    0    0  501 -0.00000000000E+00 -0.00000000000E+00 -0.10482323979E+04  0.10482323979E+04  0.00000000000E+00 0.  1.
         23    2    1    2    0    0  0.65075043235E+03 -0.19383326075E+03 -0.74490102987E+03  0.10110276044E+04  0.79068416018E+02 0.  0.
        254    2    1    2    0    0 -0.65075043235E+03  0.19383326075E+03  0.16836415507E+04  0.20241777122E+04  0.89532065826E+03 0.  0.
        -24    2    4    4    0    0  0.20222293534E+03 -0.54448203027E+02  0.44447552885E+03  0.49740254421E+03  0.77408480432E+02 0.  0.
         24    2    4    4    0    0 -0.85297336769E+03  0.24828146378E+03  0.12391660219E+04  0.15267751680E+04  0.79389751489E+02 0.  0.
         13    1    3    3    0    0  0.17994912857E+03 -0.56983929043E+02 -0.15700220895E+03  0.24551690503E+03  0.00000000000E+00 0. -1.
        -13    1    3    3    0    0  0.47080130379E+03 -0.13684933171E+03 -0.58789882092E+03  0.76551069938E+03  0.00000000000E+00 0.  1.
          4    1    6    6  502    0 -0.76572758754E+03  0.19709307142E+03  0.11047712867E+04  0.13585668968E+04  0.00000000000E+00 0. -1.
          3    1    5    5  503    0  0.20066916141E+03 -0.54432315192E+02  0.38209745579E+03  0.43500512066E+03  0.00000000000E+00 0. -1.
         -2    1    5    5    0  503  0.15537739228E+01 -0.15887834631E-01  0.62378073064E+02  0.62397423545E+02  0.00000000000E+00 0.  1.
         -3    1    6    6    0  502 -0.87245780151E+02  0.51188392357E+02  0.13439473513E+03  0.16820827119E+03  0.00000000000E+00 0.  1.
<mgrwt>
<rscale>  0 0.28863883E+04</rscale>
<asrwt>0</asrwt>
<pdfrwt beam="1">  1        2 0.30568814E+00 0.28863883E+04</pdfrwt>
<pdfrwt beam="2">  1       -2 0.16126652E+00 0.28863883E+04</pdfrwt>
<totfact> 0.14472247E+00</totfact>
</mgrwt>
</event>
<event>
12    1  0.1960998E-007  0.2439056E+04  0.7818608E-02  0.8425025E-01
          2   -1    0    0  501    0  0.00000000000E+00  0.00000000000E+00  0.32559857977E+04  0.32559857977E+04  0.00000000000E+00 0. -1.
         -2   -1    0    0    0  501 -0.00000000000E+00 -0.00000000000E+00 -0.45677373338E+03  0.45677373338E+03  0.00000000000E+00 0.  1.
         23    2    1    2    0    0 -0.13069132425E+03 -0.93584050107E+03  0.19123114953E+04  0.21349944076E+04  0.91587116230E+02 0.  0.
        254    2    1    2    0    0  0.13069132425E+03  0.93584050107E+03  0.88690056902E+03  0.15777651235E+04  0.89992916377E+03 0.  0.
        -24    2    4    4    0    0 -0.27258080010E+03  0.91924881232E+01  0.12696678327E+03  0.31084120436E+03  0.78210586586E+02 0.  0.
         24    2    4    4    0    0  0.40327212434E+03  0.92664801295E+03  0.75993378575E+03  0.12669239191E+04  0.79321572737E+02 0.  0.
         13    1    3    3    0    0 -0.11424177302E+03 -0.56538436544E+03  0.11005779669E+04  0.12425709334E+04  0.00000000000E+00 0.  1.
        -13    1    3    3    0    0 -0.16449551233E+02 -0.37045613563E+03  0.81173352842E+03  0.89242347421E+03  0.00000000000E+00 0. -1.
          4    1    6    6  502    0  0.23001641189E+03  0.44027145122E+03  0.34986741693E+03  0.60758020864E+03  0.00000000000E+00 0. -1.
          1    1    5    5  503    0 -0.76255546001E+02  0.37633898976E+02  0.44885261536E+02  0.96155630886E+02  0.00000000000E+00 0. -1.
         -2    1    5    5    0  503 -0.19632525409E+03 -0.28441410852E+02  0.82081521733E+02  0.21468557347E+03  0.00000000000E+00 0.  1.
         -3    1    6    6    0  502  0.17325571246E+03  0.48637656173E+03  0.41006636882E+03  0.65934371047E+03  0.00000000000E+00 0.  1.
<mgrwt>
<rscale>  0 0.24390562E+04</rscale>
<asrwt>0</asrwt>
<pdfrwt beam="1">  1        2 0.50092088E+00 0.24390562E+04</pdfrwt>
<pdfrwt beam="2">  1       -2 0.70272884E-01 0.24390562E+04</pdfrwt>
<totfact> 0.19702125E+00</totfact>
</mgrwt>
</event>
<event>
12    1  0.1960998E-007  0.2122670E+04  0.7818608E-02  0.8551322E-01
          2   -1    0    0  501    0  0.00000000000E+00  0.00000000000E+00  0.34275505549E+04  0.34275505549E+04  0.00000000000E+00 0. -1.
         -2   -1    0    0    0  501 -0.00000000000E+00 -0.00000000000E+00 -0.32864063227E+03  0.32864063227E+03  0.00000000000E+00 0.  1.
         23    2    1    2    0    0 -0.48124559804E+03  0.51390870247E+03  0.37586794243E+03  0.80339035195E+03  0.91977537245E+02 0.  0.
        254    2    1    2    0    0  0.48124559804E+03 -0.51390870247E+03  0.27230419802E+04  0.29528008352E+04  0.89909713957E+03 0.  0.
        -24    2    4    4    0    0  0.29292756136E+03 -0.16194650527E+03  0.24232675349E+04  0.24474702951E+04  0.76498843476E+02 0.  0.
         24    2    4    4    0    0  0.18831803669E+03 -0.35196219719E+03  0.29977444532E+03  0.50533054011E+03  0.78442115619E+02 0.  0.
         11    1    3    3    0    0 -0.23470793012E+03  0.19152881518E+03  0.13707721306E+03  0.33250753653E+03  0.00000000000E+00 0.  1.
        -11    1    3    3    0    0 -0.24653766792E+03  0.32237988729E+03  0.23879072937E+03  0.47088281543E+03  0.00000000000E+00 0. -1.
          4    1    6    6  502    0  0.23482563477E+02 -0.35830451862E+02  0.67064511831E+02  0.79579525100E+02  0.00000000000E+00 0. -1.
          3    1    5    5  503    0 -0.22612670205E+01  0.30999731484E+01  0.11932223872E+02  0.12533998907E+02  0.00000000000E+00 0. -1.
         -4    1    5    5    0  503  0.29518882838E+03 -0.16504647842E+03  0.24113353110E+04  0.24349362962E+04  0.00000000000E+00 0.  1.
         -3    1    6    6    0  502  0.16483547321E+03 -0.31613174533E+03  0.23270993349E+03  0.42575101501E+03  0.00000000000E+00 0.  1.
<mgrwt>
<rscale>  0 0.21226704E+04</rscale>
<asrwt>0</asrwt>
<pdfrwt beam="1">  1        2 0.52731544E+00 0.21226704E+04</pdfrwt>
<pdfrwt beam="2">  1       -2 0.50560100E-01 0.21226704E+04</pdfrwt>
<totfact> 0.31177823E+00</totfact>
</mgrwt>
</event>
<event>
12    1  0.1960998E-007  0.2118133E+04  0.7818608E-02  0.8553298E-01
         -1   -1    0    0    0  501 -0.00000000000E+00  0.00000000000E+00  0.10526125334E+04  0.10526125334E+04  0.00000000000E+00 0.  1.
          1   -1    0    0  501    0  0.00000000000E+00 -0.00000000000E+00 -0.10655596156E+04  0.10655596156E+04  0.00000000000E+00 0. -1.
         23    2    1    2    0    0 -0.25894519145E+03 -0.45111017891E+03  0.68590605501E+03  0.86559708308E+03  0.90764465820E+02 0.  0.
        254    2    1    2    0    0  0.25894519145E+03  0.45111017891E+03 -0.69885313711E+03  0.12525750659E+04  0.89999754600E+03 0.  0.
        -24    2    4    4    0    0  0.51900106051E+03  0.40477569351E+03 -0.21812805323E+03  0.69788688890E+03  0.79125212264E+02 0.  0.
         24    2    4    4    0    0 -0.26005586906E+03  0.46334485399E+02 -0.48072508388E+03  0.55468817702E+03  0.82501078073E+02 0.  0.
         11    1    3    3    0    0 -0.25328643932E+03 -0.43603810139E+03  0.68339839932E+03  0.84930360791E+03  0.00000000000E+00 0.  1.
        -11    1    3    3    0    0 -0.56587521318E+01 -0.15072077513E+02  0.25076556872E+01  0.16293475175E+02  0.00000000000E+00 0. -1.
          2    1    6    6  502    0 -0.11718874962E+03  0.62290513370E+02 -0.21866539640E+03  0.25578871491E+03  0.00000000000E+00 0. -1.
          3    1    5    5  503    0  0.20845652031E+03  0.11974970436E+03 -0.60880965421E+02  0.24799315415E+03  0.00000000000E+00 0. -1.
         -4    1    5    5    0  503  0.31054454021E+03  0.28502598914E+03 -0.15724708781E+03  0.44989373475E+03  0.00000000000E+00 0.  1.
         -1    1    6    6    0  502 -0.14286711945E+03 -0.15956027971E+02 -0.26205968748E+03  0.29889946211E+03  0.00000000000E+00 0.  1.
<mgrwt>
<rscale>  0 0.21181326E+04</rscale>
<asrwt>0</asrwt>
<pdfrwt beam="1">  1        1 0.16393225E+00 0.21181326E+04</pdfrwt>
<pdfrwt beam="2">  1       -1 0.16194039E+00 0.21181326E+04</pdfrwt>
<totfact> 0.34934176E+00</totfact>
</mgrwt>
</event>
<event>
12    1  0.1960998E-007  0.1387401E+04  0.7818608E-02  0.8962989E-01
          2   -1    0    0  501    0  0.00000000000E+00  0.00000000000E+00  0.18830874047E+04  0.18830874047E+04  0.00000000000E+00 0. -1.
         -2   -1    0    0    0  501 -0.00000000000E+00 -0.00000000000E+00 -0.25554859924E+03  0.25554859924E+03  0.00000000000E+00 0.  1.
         23    2    1    2    0    0  0.32725733693E+03  0.15819077156E+03  0.23929892902E+03  0.44406395508E+03  0.88357987700E+02 0.  0.
        254    2    1    2    0    0 -0.32725733693E+03 -0.15819077156E+03  0.13882398764E+04  0.16945720489E+04  0.90124513283E+03 0.  0.
        -24    2    4    4    0    0  0.17351460588E+03  0.25174857131E+03  0.39159460099E+03  0.50358005351E+03  0.82230633909E+02 0.  0.
         24    2    4    4    0    0 -0.50077194282E+03 -0.40993934288E+03  0.99664527544E+03  0.11909919953E+04  0.79607313488E+02 0.  0.
         13    1    3    3    0    0  0.26283274702E+03  0.84265079379E+02  0.17601141147E+03  0.32735557652E+03  0.00000000000E+00 0. -1.
        -13    1    3    3    0    0  0.64424589914E+02  0.73925692182E+02  0.63287517550E+02  0.11670837857E+03  0.00000000000E+00 0.  1.
          2    1    6    6  502    0 -0.36529231906E+03 -0.32111963516E+03  0.69006866501E+03  0.84424585334E+03  0.00000000000E+00 0. -1.
          1    1    5    5  503    0  0.68884527147E+02  0.13044900142E+03  0.24743776149E+03  0.28807545168E+03  0.00000000000E+00 0. -1.
         -2    1    5    5    0  503  0.10463007874E+03  0.12129956989E+03  0.14415683950E+03  0.21550460183E+03  0.00000000000E+00 0.  1.
         -1    1    6    6    0  502 -0.13547962376E+03 -0.88819707717E+02  0.30657661043E+03  0.34674614200E+03  0.00000000000E+00 0.  1.
<mgrwt>
<rscale>  0 0.13874009E+04</rscale>
<asrwt>0</asrwt>
<pdfrwt beam="1">  1        2 0.28970575E+00 0.13874009E+04</pdfrwt>
<pdfrwt beam="2">  1       -2 0.39315170E-01 0.13874009E+04</pdfrwt>
<totfact> 0.46255286E+01</totfact>
</mgrwt>
</event>
<event>
12    1  0.1960998E-007  0.1080321E+04  0.7818608E-02  0.9224587E-01
          2   -1    0    0  501    0  0.00000000000E+00  0.00000000000E+00  0.23252476652E+04  0.23252476652E+04  0.00000000000E+00 0. -1.
         -2   -1    0    0    0  501 -0.00000000000E+00 -0.00000000000E+00 -0.12548059411E+03  0.12548059411E+03  0.00000000000E+00 0.  1.
         23    2    1    2    0    0  0.49855768586E+02 -0.10531849761E+03  0.15601234943E+03  0.21503192717E+03  0.91221121061E+02 0.  0.
        254    2    1    2    0    0 -0.49855768586E+02  0.10531849761E+03  0.20437547217E+04  0.22356963321E+04  0.89879204694E+03 0.  0.
        -24    2    4    4    0    0 -0.16080787233E+03  0.47000104466E+03  0.13398909499E+04  0.14312628112E+04  0.80282769765E+02 0.  0.
         24    2    4    4    0    0  0.11095210374E+03 -0.36468254704E+03  0.70386377172E+03  0.80443352098E+03  0.79908391818E+02 0.  0.
         13    1    3    3    0    0  0.13529199422E+02 -0.51857273682E+02  0.13783770505E+03  0.14788998954E+03  0.00000000000E+00 0. -1.
        -13    1    3    3    0    0  0.36326569164E+02 -0.53461223929E+02  0.18174644380E+02  0.67141937637E+02  0.00000000000E+00 0.  1.
          4    1    6    6  502    0  0.11739948222E+03 -0.31892783418E+03  0.64986548454E+03  0.73336399546E+03  0.00000000000E+00 0. -1.
          3    1    5    5  503    0 -0.16095177717E+03  0.44962532537E+03  0.12291971539E+04  0.13187092367E+04  0.00000000000E+00 0. -1.
         -4    1    5    5    0  503  0.14390484209E+00  0.20375719287E+02  0.11069379604E+03  0.11255357447E+03  0.00000000000E+00 0.  1.
         -3    1    6    6    0  502 -0.64473784824E+01 -0.45754712860E+02  0.53998287188E+02  0.71069525518E+02  0.00000000000E+00 0.  1.
<mgrwt>
<rscale>  0 0.10803212E+04</rscale>
<asrwt>0</asrwt>
<pdfrwt beam="1">  1        2 0.35773038E+00 0.10803212E+04</pdfrwt>
<pdfrwt beam="2">  1       -2 0.19304709E-01 0.10803212E+04</pdfrwt>
<totfact> 0.99813247E+01</totfact>
</mgrwt>
</event>
<event>
12    1  0.1960998E-007  0.2237142E+04  0.7818608E-02  0.8503126E-01
         -1   -1    0    0    0  501 -0.00000000000E+00  0.00000000000E+00  0.82653058927E+03  0.82653058927E+03  0.00000000000E+00 0.  1.
          1   -1    0    0  501    0  0.00000000000E+00 -0.00000000000E+00 -0.15137984146E+04  0.15137984146E+04  0.00000000000E+00 0. -1.
         23    2    1    2    0    0  0.50634465016E+03  0.74058811222E+03 -0.56081640594E+03  0.10620502124E+04  0.92628050454E+02 0.  0.
        254    2    1    2    0    0 -0.50634465016E+03 -0.74058811222E+03 -0.12645141943E+03  0.12782787915E+04  0.90174888451E+03 0.  0.
        -24    2    4    4    0    0 -0.61358804969E+03 -0.64245266360E+03  0.19835937048E+03  0.91399435340E+03  0.82483443827E+02 0.  0.
         24    2    4    4    0    0  0.10724339953E+03 -0.98135448627E+02 -0.32481078992E+03  0.36428443814E+03  0.77906287311E+02 0.  0.
         13    1    3    3    0    0  0.42274568433E+03  0.65828414000E+03 -0.46130345930E+03  0.90821407397E+03  0.00000000000E+00 0.  1.
        -13    1    3    3    0    0  0.83598965834E+02  0.82303972220E+02 -0.99512946634E+02  0.15383613841E+03  0.00000000000E+00 0. -1.
          4    1    6    6  502    0  0.91499749620E+01  0.13505940519E+02 -0.32101324247E+02  0.36008714077E+02  0.00000000000E+00 0. -1.
          1    1    5    5  503    0 -0.12575903959E+03 -0.18247268724E+03  0.55418005765E+02  0.22843548978E+03  0.00000000000E+00 0. -1.
         -2    1    5    5    0  503 -0.48782901010E+03 -0.45997997635E+03  0.14294136472E+03  0.68555886362E+03  0.00000000000E+00 0.  1.
         -3    1    6    6    0  502  0.98093424567E+02 -0.11164138915E+03 -0.29270946567E+03  0.32827572406E+03  0.00000000000E+00 0.  1.
<mgrwt>
<rscale>  0 0.22371417E+04</rscale>
<asrwt>0</asrwt>
<pdfrwt beam="1">  1        1 0.23289206E+00 0.22371417E+04</pdfrwt>
<pdfrwt beam="2">  1       -1 0.12715855E+00 0.22371417E+04</pdfrwt>
<totfact> 0.31181225E+00</totfact>
</mgrwt>
</event>
<event>
12    1  0.1960998E-007  0.4635375E+04  0.7818608E-02  0.7887356E-01
          1   -1    0    0  501    0  0.00000000000E+00  0.00000000000E+00  0.21073590765E+04  0.21073590765E+04  0.00000000000E+00 0. -1.
         -1   -1    0    0    0  501 -0.00000000000E+00 -0.00000000000E+00 -0.25490077927E+04  0.25490077927E+04  0.00000000000E+00 0.  1.
         23    2    1    2    0    0 -0.50280911389E+03  0.21719696615E+04 -0.25460523182E+03  0.22457495603E+04  0.91093620377E+02 0.  0.
        254    2    1    2    0    0  0.50280911389E+03 -0.21719696615E+04 -0.18704348431E+03  0.24106173089E+04  0.89767551459E+03 0.  0.
        -24    2    4    4    0    0  0.67556370050E+03 -0.14543400426E+04  0.11473992585E+03  0.16096213063E+04  0.78893765491E+02 0.  0.
         24    2    4    4    0    0 -0.17275458662E+03 -0.71762961896E+03 -0.30178341016E+03  0.80099600264E+03  0.75398623232E+02 0.  0.
         13    1    3    3    0    0 -0.32206121331E+03  0.12719874905E+04 -0.18588542215E+03  0.13252279017E+04  0.00000000000E+00 0. -1.
        -13    1    3    3    0    0 -0.18074790058E+03  0.89998217099E+03 -0.68719809667E+02  0.92052165858E+03  0.00000000000E+00 0.  1.
          4    1    6    6  502    0 -0.59332310877E+02 -0.24585085826E+03 -0.14254352937E+03  0.29031297833E+03  0.00000000000E+00 0. -1.
          3    1    5    5  503    0  0.44037578193E+03 -0.10294479426E+04  0.91733289670E+02  0.11234361986E+04  0.00000000000E+00 0. -1.
         -4    1    5    5    0  503  0.23518791857E+03 -0.42489209995E+03  0.23006636178E+02  0.48618510770E+03  0.00000000000E+00 0.  1.
         -3    1    6    6    0  502 -0.11342227574E+03 -0.47177876070E+03 -0.15923988079E+03  0.51068302431E+03  0.00000000000E+00 0.  1.
<mgrwt>
<rscale>  0 0.46353747E+04</rscale>
<asrwt>0</asrwt>
<pdfrwt beam="1">  1        1 0.32420909E+00 0.46353747E+04</pdfrwt>
<pdfrwt beam="2">  1       -1 0.39215505E+00 0.46353747E+04</pdfrwt>
<totfact> 0.15151166E-02</totfact>
</mgrwt>
</event>
<event>
12    1  0.1960998E-007  0.4102769E+04  0.7818608E-02  0.7984130E-01
         -2   -1    0    0    0  501 -0.00000000000E+00  0.00000000000E+00  0.16364642388E+04  0.16364642388E+04  0.00000000000E+00 0.  1.
          2   -1    0    0  501    0  0.00000000000E+00 -0.00000000000E+00 -0.25715061824E+04  0.25715061824E+04  0.00000000000E+00 0. -1.
         23    2    1    2    0    0  0.17578044378E+04  0.84802682386E+03 -0.43377095660E+03  0.20014076245E+04  0.91920081580E+02 0.  0.
        254    2    1    2    0    0 -0.17578044378E+04 -0.84802682386E+03 -0.50127098697E+03  0.22065627966E+04  0.89923347227E+03 0.  0.
        -24    2    4    4    0    0 -0.88529925590E+03 -0.25889898801E+03  0.19041017408E+03  0.94446049794E+03  0.70470839965E+02 0.  0.
         24    2    4    4    0    0 -0.87250518186E+03 -0.58912783585E+03 -0.69168116105E+03  0.12621022987E+04  0.78374003577E+02 0.  0.
         13    1    3    3    0    0  0.58674716274E+03  0.28106905692E+03 -0.18911275604E+03  0.67752172086E+03  0.00000000000E+00 0.  1.
        -13    1    3    3    0    0  0.11710572750E+04  0.56695776694E+03 -0.24465820057E+03  0.13238859037E+04  0.00000000000E+00 0. -1.
          2    1    6    6  502    0 -0.63211578339E+03 -0.46093462117E+03 -0.48953823642E+03  0.92286443941E+03  0.00000000000E+00 0. -1.
          1    1    5    5  503    0 -0.47439654600E+03 -0.10218767787E+03  0.10279962213E+03  0.49604653680E+03  0.00000000000E+00 0. -1.
         -2    1    5    5    0  503 -0.41090270990E+03 -0.15671131013E+03  0.87610551953E+02  0.44841396113E+03  0.00000000000E+00 0.  1.
         -1    1    6    6    0  502 -0.24038939846E+03 -0.12819321468E+03 -0.20214292463E+03  0.33923785927E+03  0.00000000000E+00 0.  1.
<mgrwt>
<rscale>  0 0.41027688E+04</rscale>
<asrwt>0</asrwt>
<pdfrwt beam="1">  1        2 0.39561634E+00 0.41027688E+04</pdfrwt>
<pdfrwt beam="2">  1       -2 0.25176373E+00 0.41027688E+04</pdfrwt>
<totfact> 0.15507768E-01</totfact>
</mgrwt>
</event>
<event>
12    1  0.1960998E-007  0.3452820E+04  0.7818608E-02  0.8125063E-01
         -1   -1    0    0    0  501 -0.00000000000E+00  0.00000000000E+00  0.21075333774E+04  0.21075333774E+04  0.00000000000E+00 0.  1.
          1   -1    0    0  501    0  0.00000000000E+00 -0.00000000000E+00 -0.14142087422E+04  0.14142087422E+04  0.00000000000E+00 0. -1.
         23    2    1    2    0    0 -0.40856891438E+03  0.98493302930E+03 -0.90389846372E+03  0.14008121987E+04  0.90668370011E+02 0.  0.
        254    2    1    2    0    0  0.40856891438E+03 -0.98493302930E+03  0.15972230990E+04  0.21209299209E+04  0.90011136618E+03 0.  0.
        -24    2    4    4    0    0 -0.19330452030E+03 -0.37992922319E+03  0.19064019596E+03  0.47377839740E+03  0.80058936554E+02 0.  0.
         24    2    4    4    0    0  0.60187343468E+03 -0.60500380611E+03  0.14065829030E+04  0.16471515235E+04  0.79695932014E+02 0.  0.
         13    1    3    3    0    0 -0.20347228059E+03  0.59497058291E+03 -0.55719488784E+03  0.84015302566E+03  0.00000000000E+00 0. -1.
        -13    1    3    3    0    0 -0.20509663380E+03  0.38996244638E+03 -0.34670357588E+03  0.56065917304E+03  0.00000000000E+00 0.  1.
          4    1    6    6  502    0  0.71722009861E+02 -0.48183991987E+02  0.11168058099E+03  0.14120303096E+03  0.00000000000E+00 0. -1.
          3    1    5    5  503    0 -0.93271281973E+02 -0.11409828541E+03  0.88725906158E+02  0.17201813043E+03  0.00000000000E+00 0. -1.
         -4    1    5    5    0  503 -0.10003323833E+03 -0.26583093778E+03  0.10191428980E+03  0.30176026697E+03  0.00000000000E+00 0.  1.
         -3    1    6    6    0  502  0.53015142482E+03 -0.55681981412E+03  0.12949023220E+04  0.15059484925E+04  0.00000000000E+00 0.  1.
<mgrwt>
<rscale>  0 0.34528204E+04</rscale>
<asrwt>0</asrwt>
<pdfrwt beam="1">  1        1 0.21757058E+00 0.34528204E+04</pdfrwt>
<pdfrwt beam="2">  1       -1 0.32423590E+00 0.34528204E+04</pdfrwt>
<totfact> 0.14118351E-01</totfact>
</mgrwt>
</event>
<event>
12    1  0.1960998E-007  0.2154335E+04  0.7818608E-02  0.8537679E-01
          1   -1    0    0  501    0  0.00000000000E+00  0.00000000000E+00  0.85824413857E+03  0.85824413857E+03  0.00000000000E+00 0. -1.
         -1   -1    0    0    0  501 -0.00000000000E+00 -0.00000000000E+00 -0.13519340364E+04  0.13519340364E+04  0.00000000000E+00 0.  1.
         23    2    1    2    0    0 -0.63372255386E+03  0.54916165874E+03 -0.49793858778E+03  0.97961506781E+03  0.92304069240E+02 0.  0.
        254    2    1    2    0    0  0.63372255386E+03 -0.54916165874E+03  0.42486899453E+01  0.12305631072E+04  0.90060241319E+03 0.  0.
        -24    2    4    4    0    0  0.25230464359E+03 -0.54088700521E+03 -0.35629844386E+03  0.69967497675E+03  0.79875568326E+02 0.  0.
         24    2    4    4    0    0  0.38141791027E+03 -0.82746535234E+01  0.36054713380E+03  0.53088813041E+03  0.79371778012E+02 0.  0.
         13    1    3    3    0    0 -0.38927625926E+03  0.35285751462E+03 -0.26110062493E+03  0.58670091869E+03  0.00000000000E+00 0. -1.
        -13    1    3    3    0    0 -0.24444629459E+03  0.19630414412E+03 -0.23683796285E+03  0.39291414913E+03  0.00000000000E+00 0.  1.
          4    1    6    6  502    0  0.38079211619E+03 -0.46114689357E+01  0.34160118055E+03  0.51158114504E+03  0.00000000000E+00 0. -1.
          1    1    5    5  503    0  0.10233323955E+03 -0.15752410722E+03 -0.14272674215E+03  0.23591705999E+03  0.00000000000E+00 0. -1.
         -2    1    5    5    0  503  0.14997140404E+03 -0.38336289799E+03 -0.21357170171E+03  0.46375791676E+03  0.00000000000E+00 0.  1.
         -3    1    6    6    0  502  0.62579407968E+00 -0.36631845877E+01  0.18945953250E+02  0.19306985371E+02  0.00000000000E+00 0.  1.
<mgrwt>
<rscale>  0 0.21543347E+04</rscale>
<asrwt>0</asrwt>
<pdfrwt beam="1">  1        1 0.13203756E+00 0.21543347E+04</pdfrwt>
<pdfrwt beam="2">  1       -1 0.20798985E+00 0.21543347E+04</pdfrwt>
<totfact> 0.23933506E+00</totfact>
</mgrwt>
</event>
<event>
12    1  0.1960998E-007  0.2214647E+04  0.7818608E-02  0.8512356E-01
         -1   -1    0    0    0  501 -0.00000000000E+00  0.00000000000E+00  0.53686840851E+03  0.53686840851E+03  0.00000000000E+00 0.  1.
          1   -1    0    0  501    0  0.00000000000E+00 -0.00000000000E+00 -0.22839224934E+04  0.22839224934E+04  0.00000000000E+00 0. -1.
         23    2    1    2    0    0  0.43203486379E+03  0.73024621413E+03 -0.11886559040E+04  0.14633021614E+04  0.91851514635E+02 0.  0.
        254    2    1    2    0    0 -0.43203486379E+03 -0.73024621413E+03 -0.55839818086E+03  0.13574887405E+04  0.90058508499E+03 0.  0.
        -24    2    4    4    0    0 -0.58996440967E+03 -0.83264889628E+03 -0.40275119120E+03  0.10996167260E+04  0.74741106344E+02 0.  0.
         24    2    4    4    0    0  0.15792954588E+03  0.10240268215E+03 -0.15564698966E+03  0.25787201444E+03  0.82728106862E+02 0.  0.
         13    1    3    3    0    0  0.29031887891E+02  0.40050779178E+02 -0.11183054557E+03  0.12228240409E+03  0.00000000000E+00 0. -1.
        -13    1    3    3    0    0  0.40300297590E+03  0.69019543495E+03 -0.10768253584E+04  0.13410197573E+04  0.00000000000E+00 0.  1.
          2    1    6    6  502    0  0.92113708821E+02  0.10134153058E+03 -0.84378824023E+02  0.16085654204E+03  0.00000000000E+00 0. -1.
          3    1    5    5  503    0 -0.41116160826E+03 -0.63512470284E+03 -0.30679600366E+03  0.81643189803E+03  0.00000000000E+00 0. -1.
         -4    1    5    5    0  503 -0.17880280142E+03 -0.19752419344E+03 -0.95955187549E+02  0.28318482800E+03  0.00000000000E+00 0.  1.
         -1    1    6    6    0  502  0.65815837060E+02  0.10611515652E+01 -0.71268165637E+02  0.97015472394E+02  0.00000000000E+00 0.  1.
<mgrwt>
<rscale>  0 0.22146475E+04</rscale>
<asrwt>0</asrwt>
<pdfrwt beam="1">  1        1 0.35137269E+00 0.22146475E+04</pdfrwt>
<pdfrwt beam="2">  1       -1 0.82595140E-01 0.22146475E+04</pdfrwt>
<totfact> 0.25318162E+00</totfact>
</mgrwt>
</event>
<event>
12    1  0.1960998E-007  0.2468652E+04  0.7818608E-02  0.8414239E-01
          1   -1    0    0  501    0  0.00000000000E+00  0.00000000000E+00  0.23680592201E+04  0.23680592201E+04  0.00000000000E+00 0. -1.
         -1   -1    0    0    0  501 -0.00000000000E+00 -0.00000000000E+00 -0.64337947840E+03  0.64337947840E+03  0.00000000000E+00 0.  1.
         23    2    1    2    0    0 -0.46129914799E+02  0.99788989843E+03  0.28781635086E+03  0.10436975905E+04  0.92488865372E+02 0.  0.
        254    2    1    2    0    0  0.46129914799E+02 -0.99788989843E+03  0.14368633909E+04  0.19677411080E+04  0.89973131859E+03 0.  0.
        -24    2    4    4    0    0  0.36166030442E+03 -0.95302455856E+02  0.36095589524E+03  0.52611221817E+03  0.81389028202E+02 0.  0.
         24    2    4    4    0    0 -0.31553038962E+03 -0.90258744258E+03  0.10759074956E+04  0.14416288898E+04  0.80581626710E+02 0.  0.
         13    1    3    3    0    0 -0.61600224751E+02  0.65274399402E+03  0.22033349066E+03  0.69167633799E+03  0.00000000000E+00 0. -1.
        -13    1    3    3    0    0  0.15470309952E+02  0.34514590441E+03  0.67482860200E+02  0.35202125254E+03  0.00000000000E+00 0.  1.
          4    1    6    6  502    0 -0.17753733805E+03 -0.41918151384E+03  0.46987088957E+03  0.65422572619E+03  0.00000000000E+00 0. -1.
          1    1    5    5  503    0  0.28895303731E+03 -0.95469135170E+02  0.32417084420E+03  0.44462900239E+03  0.00000000000E+00 0. -1.
         -2    1    5    5    0  503  0.72707267116E+02  0.16667931430E+00  0.36785051040E+02  0.81483215777E+02  0.00000000000E+00 0.  1.
         -3    1    6    6    0  502 -0.13799305158E+03 -0.48340592873E+03  0.60603660605E+03  0.78740316362E+03  0.00000000000E+00 0.  1.
<mgrwt>
<rscale>  0 0.24686520E+04</rscale>
<asrwt>0</asrwt>
<pdfrwt beam="1">  1        1 0.36431680E+00 0.24686520E+04</pdfrwt>
<pdfrwt beam="2">  1       -1 0.98981459E-01 0.24686520E+04</pdfrwt>
<totfact> 0.14521553E+00</totfact>
</mgrwt>
</event>
<event>
12    1  0.1960998E-007  0.1622818E+04  0.7818608E-02  0.8806651E-01
         -2   -1    0    0    0  501 -0.00000000000E+00  0.00000000000E+00  0.21505477854E+03  0.21505477854E+03  0.00000000000E+00 0.  1.
          2   -1    0    0  501    0  0.00000000000E+00 -0.00000000000E+00 -0.30614732644E+04  0.30614732644E+04  0.00000000000E+00 0. -1.
         23    2    1    2    0    0 -0.34680109556E+03  0.36587780552E+03 -0.50804042263E+03  0.72023237788E+03  0.80573188238E+02 0.  0.
        254    2    1    2    0    0  0.34680109556E+03 -0.36587780552E+03 -0.23383780632E+04  0.25562956651E+04  0.90138670510E+03 0.  0.
        -24    2    4    4    0    0  0.17313212785E+03 -0.63706431149E+03 -0.18497173051E+04  0.19656309986E+04  0.80158861330E+02 0.  0.
         24    2    4    4    0    0  0.17366896771E+03  0.27118650597E+03 -0.48866075810E+03  0.59066466646E+03  0.79952362939E+02 0.  0.
         11    1    3    3    0    0 -0.15913886296E+03  0.20841216875E+03 -0.30353563748E+03  0.40111680719E+03  0.00000000000E+00 0. -1.
        -11    1    3    3    0    0 -0.18766223260E+03  0.15746563677E+03 -0.20450478514E+03  0.31911557068E+03  0.00000000000E+00 0.  1.
          2    1    6    6  502    0  0.43175772623E+02  0.14038521673E+03 -0.22579200795E+03  0.26935884480E+03  0.00000000000E+00 0. -1.
          1    1    5    5  503    0  0.32278284637E+02 -0.49864179238E+02 -0.12861534751E+03  0.14166944499E+03  0.00000000000E+00 0. -1.
         -2    1    5    5    0  503  0.14085384321E+03 -0.58720013225E+03 -0.17211019576E+04  0.18239615536E+04  0.00000000000E+00 0.  1.
         -1    1    6    6    0  502  0.13049319509E+03  0.13080128924E+03 -0.26286875015E+03  0.32130582166E+03  0.00000000000E+00 0.  1.
<mgrwt>
<rscale>  0 0.16228179E+04</rscale>
<asrwt>0</asrwt>
<pdfrwt beam="1">  1        2 0.47099587E+00 0.16228179E+04</pdfrwt>
<pdfrwt beam="2">  1       -2 0.33085352E-01 0.16228179E+04</pdfrwt>
<totfact> 0.13081770E+01</totfact>
</mgrwt>
</event>
<event>
12    1  0.2089639E-007  0.2625907E+04  0.7818608E-02  0.8359454E-01
         -2   -1    0    0    0  501 -0.00000000000E+00  0.00000000000E+00  0.13899053382E+04  0.13899053382E+04  0.00000000000E+00 0.  1.
          2   -1    0    0  501    0  0.00000000000E+00 -0.00000000000E+00 -0.12402623097E+04  0.12402623097E+04  0.00000000000E+00 0. -1.
         23    2    1    2    0    0  0.21828004071E+03 -0.78974235038E+03 -0.74493223392E+03  0.11111067721E+04  0.91077273277E+02 0.  0.
        254    2    1    2    0    0 -0.21828004071E+03  0.78974235038E+03  0.89457526241E+03  0.15190608758E+04  0.91429857713E+03 0.  0.
        -24    2    4    4    0    0  0.28818266775E+03  0.29471713603E+03  0.63335634939E+03  0.75992783540E+03  0.80265867296E+02 0.  0.
         24    2    4    4    0    0 -0.50646270845E+03  0.49502521435E+03  0.26121891302E+03  0.75913304040E+03  0.80580485320E+02 0.  0.
         11    1    3    3    0    0  0.67259465870E+02 -0.40994293739E+03 -0.36175801048E+03  0.55085924319E+03  0.00000000000E+00 0.  1.
        -11    1    3    3    0    0  0.15102057484E+03 -0.37979941299E+03 -0.38317422344E+03  0.56024752890E+03  0.00000000000E+00 0. -1.
          4    1    6    6  502    0 -0.20136985346E+01 -0.87937724330E+00  0.71942026115E+01  0.75222893683E+01  0.00000000000E+00 0. -1.
          3    1    5    5  503    0  0.30054571334E+02  0.63062208017E+02  0.14487888782E+03  0.16084157259E+03  0.00000000000E+00 0. -1.
         -4    1    5    5    0  503  0.25812809641E+03  0.23165492801E+03  0.48847746157E+03  0.59908626282E+03  0.00000000000E+00 0.  1.
         -3    1    6    6    0  502 -0.50444900992E+03  0.49590459160E+03  0.25402471041E+03  0.75161075103E+03  0.00000000000E+00 0.  1.
<mgrwt>
<rscale>  0 0.26259072E+04</rscale>
<asrwt>0</asrwt>
<pdfrwt beam="1">  1        2 0.19080959E+00 0.26259072E+04</pdfrwt>
<pdfrwt beam="2">  1       -2 0.21383159E+00 0.26259072E+04</pdfrwt>
<totfact> 0.17117672E+00</totfact>
</mgrwt>
</event>
<event>
12    1  0.1960998E-007  0.1665999E+04  0.7818608E-02  0.8780997E-01
          2   -1    0    0  501    0  0.00000000000E+00  0.00000000000E+00  0.71839915411E+03  0.71839915411E+03  0.00000000000E+00 0. -1.
         -2   -1    0    0    0  501 -0.00000000000E+00 -0.00000000000E+00 -0.96588134739E+03  0.96588134739E+03  0.00000000000E+00 0.  1.
         23    2    1    2    0    0 -0.36178251990E+03  0.42363141678E+03  0.94885694732E+02  0.57259014146E+03  0.92228011173E+02 0.  0.
        254    2    1    2    0    0  0.36178251990E+03 -0.42363141678E+03 -0.34236788802E+03  0.11116903600E+04  0.89904922938E+03 0.  0.
        -24    2    4    4    0    0  0.57026675475E+03 -0.80511470508E+02 -0.38890823943E+03  0.69953795923E+03  0.80109108408E+02 0.  0.
         24    2    4    4    0    0 -0.20848423484E+03 -0.34311994627E+03  0.46540351413E+02  0.41215240081E+03  0.80663644048E+02 0.  0.
         11    1    3    3    0    0 -0.74490815470E+02  0.47023362653E+02  0.36401569864E+02  0.95316066396E+02  0.00000000000E+00 0. -1.
        -11    1    3    3    0    0 -0.28729170443E+03  0.37660805413E+03  0.58484124868E+02  0.47727407507E+03  0.00000000000E+00 0.  1.
          2    1    6    6  502    0 -0.20833197264E+03 -0.34716166605E+03  0.48292642929E+02  0.40774454326E+03  0.00000000000E+00 0. -1.
          3    1    5    5  503    0  0.44255979209E+03 -0.93166250958E+02 -0.28669505448E+03  0.53547471851E+03  0.00000000000E+00 0. -1.
         -4    1    5    5    0  503  0.12770696266E+03  0.12654780450E+02 -0.10221318495E+03  0.16406324072E+03  0.00000000000E+00 0.  1.
         -1    1    6    6    0  502 -0.15226220557E+00  0.40417197795E+01 -0.17522915163E+01  0.44078575423E+01  0.00000000000E+00 0.  1.
<mgrwt>
<rscale>  0 0.16659992E+04</rscale>
<asrwt>0</asrwt>
<pdfrwt beam="1">  1        2 0.11052295E+00 0.16659992E+04</pdfrwt>
<pdfrwt beam="2">  1       -2 0.14859713E+00 0.16659992E+04</pdfrwt>
<totfact> 0.11611335E+01</totfact>
</mgrwt>
</event>
<event>
12    1  0.1960998E-007  0.1636320E+04  0.7818608E-02  0.8798541E-01
         -2   -1    0    0    0  501 -0.00000000000E+00  0.00000000000E+00  0.78232084559E+03  0.78232084559E+03  0.00000000000E+00 0. -1.
          2   -1    0    0  501    0  0.00000000000E+00 -0.00000000000E+00 -0.85564119951E+03  0.85564119951E+03  0.00000000000E+00 0.  1.
         23    2    1    2    0    0 -0.48475385495E+03  0.13134961159E+03  0.23431281034E+03  0.56160337308E+03  0.90867129427E+02 0.  0.
        254    2    1    2    0    0  0.48475385495E+03 -0.13134961159E+03 -0.30763316426E+03  0.10763586720E+04  0.90092774778E+03 0.  0.
        -24    2    4    4    0    0 -0.10459784766E+03 -0.36756445865E+03 -0.13650872893E+03  0.41372453218E+03  0.80554419228E+02 0.  0.
         24    2    4    4    0    0  0.58935170261E+03  0.23621484706E+03 -0.17112443533E+03  0.66263413983E+03  0.81655052305E+02 0.  0.
         11    1    3    3    0    0 -0.39594384995E+03  0.12255709905E+03  0.22569830078E+03  0.47194438000E+03  0.00000000000E+00 0. -1.
        -11    1    3    3    0    0 -0.88810005006E+02  0.87925125484E+01  0.86145095642E+01  0.89658993086E+02  0.00000000000E+00 0.  1.
          4    1    6    6  502    0  0.46769347591E+03  0.15816056748E+03 -0.11071726554E+03  0.50597456992E+03  0.00000000000E+00 0. -1.
          3    1    5    5  503    0 -0.10259260097E+03 -0.36656348429E+03 -0.14317967881E+03  0.40668716505E+03  0.00000000000E+00 0. -1.
         -4    1    5    5    0  503 -0.20052466895E+01 -0.10009743624E+01  0.66709498786E+01  0.70373671386E+01  0.00000000000E+00 0.  1.
         -3    1    6    6    0  502  0.12165822669E+03  0.78054279578E+02 -0.60407169792E+02  0.15665956991E+03  0.00000000000E+00 0.  1.
<mgrwt>
<rscale>  0 0.16363202E+04</rscale>
<asrwt>0</asrwt>
<pdfrwt beam="1">  1        2 0.13163711E+00 0.16363202E+04</pdfrwt>
<pdfrwt beam="2">  1       -2 0.12035705E+00 0.16363202E+04</pdfrwt>
<totfact> 0.15852739E+01</totfact>
</mgrwt>
</event>
<event>
12    1  0.1960998E-007  0.1166943E+04  0.7818608E-02  0.9142293E-01
          2   -1    0    0  501    0  0.00000000000E+00  0.00000000000E+00  0.35775131921E+03  0.35775131921E+03  0.00000000000E+00 0. -1.
         -2   -1    0    0    0  501 -0.00000000000E+00 -0.00000000000E+00 -0.95160871311E+03  0.95160871311E+03  0.00000000000E+00 0.  1.
         23    2    1    2    0    0  0.19724725090E+03 -0.89402786099E+02 -0.65071763696E+02  0.24269192810E+03  0.88123217066E+02 0.  0.
        254    2    1    2    0    0 -0.19724725090E+03  0.89402786099E+02 -0.52878563020E+03  0.10666681042E+04  0.90070376134E+03 0.  0.
        -24    2    4    4    0    0 -0.52395341232E+02 -0.38468628819E+03 -0.10661540824E+03  0.41071856596E+03  0.81203959589E+02 0.  0.
         24    2    4    4    0    0 -0.14485190967E+03  0.47408907428E+03 -0.42217022196E+03  0.65594953825E+03  0.79369857827E+02 0.  0.
         13    1    3    3    0    0  0.11151577769E+03 -0.95011260801E+02 -0.53671382181E+02  0.15602411871E+03  0.00000000000E+00 0.  1.
        -13    1    3    3    0    0  0.85731473203E+02  0.56084747023E+01 -0.11400381515E+02  0.86667809391E+02  0.00000000000E+00 0. -1.
          4    1    6    6  502    0 -0.10756718956E+03  0.42276695840E+03 -0.38839084620E+03  0.58408051739E+03  0.00000000000E+00 0. -1.
          1    1    5    5  503    0 -0.68917169170E+02 -0.23234390066E+03 -0.50671574324E+02  0.24759013071E+03  0.00000000000E+00 0. -1.
         -2    1    5    5    0  503  0.16521827938E+02 -0.15234238752E+03 -0.55943833918E+02  0.16312843525E+03  0.00000000000E+00 0.  1.
         -3    1    6    6    0  502 -0.37284720109E+02  0.51322115888E+02 -0.33779375757E+02  0.71869020860E+02  0.00000000000E+00 0.  1.
<mgrwt>
<rscale>  0 0.11669435E+04</rscale>
<asrwt>0</asrwt>
<pdfrwt beam="1">  1        2 0.55038665E-01 0.11669435E+04</pdfrwt>
<pdfrwt beam="2">  1       -2 0.14640134E+00 0.11669435E+04</pdfrwt>
<totfact> 0.28455934E+01</totfact>
</mgrwt>
</event>
<event>
12    1  0.1960998E-007  0.1767160E+04  0.7818608E-02  0.8723961E-01
         -1   -1    0    0    0  501 -0.00000000000E+00  0.00000000000E+00  0.37367868258E+03  0.37367868258E+03  0.00000000000E+00 0.  1.
          1   -1    0    0  501    0  0.00000000000E+00 -0.00000000000E+00 -0.20892653426E+04  0.20892653426E+04  0.00000000000E+00 0. -1.
         23    2    1    2    0    0  0.22539869567E+03 -0.48874273196E+03 -0.13193317046E+03  0.56144085131E+03  0.90196662937E+02 0.  0.
        254    2    1    2    0    0 -0.22539869567E+03  0.48874273196E+03 -0.15836534895E+04  0.19015031739E+04  0.90447880860E+03 0.  0.
        -24    2    4    4    0    0 -0.17009638286E+03  0.54490699740E+03 -0.37468360938E+03  0.68753719695E+03  0.80393872723E+02 0.  0.
         24    2    4    4    0    0 -0.55302312812E+02 -0.56164265444E+02 -0.12089698802E+04  0.12139659769E+04  0.76762304839E+02 0.  0.
         11    1    3    3    0    0  0.22640892113E+02 -0.10521369265E+03 -0.54943687142E+02  0.12083600405E+03  0.00000000000E+00 0. -1.
        -11    1    3    3    0    0  0.20275780356E+03 -0.38352903930E+03 -0.76989483322E+02  0.44060484727E+03  0.00000000000E+00 0.  1.
          4    1    6    6  502    0  0.89507500808E+01 -0.37308437470E+02 -0.28470525244E+03  0.28727881266E+03  0.00000000000E+00 0. -1.
          3    1    5    5  503    0 -0.68451695662E+02  0.23159945574E+03 -0.20623787922E+03  0.31758149405E+03  0.00000000000E+00 0. -1.
         -4    1    5    5    0  503 -0.10164468720E+03  0.31330754167E+03 -0.16844573016E+03  0.36995570290E+03  0.00000000000E+00 0.  1.
         -3    1    6    6    0  502 -0.64253062892E+02 -0.18855827974E+02 -0.92426462771E+03  0.92668716425E+03  0.00000000000E+00 0.  1.
<mgrwt>
<rscale>  0 0.17671603E+04</rscale>
<asrwt>0</asrwt>
<pdfrwt beam="1">  1        1 0.32142543E+00 0.17671603E+04</pdfrwt>
<pdfrwt beam="2">  1       -1 0.57489030E-01 0.17671603E+04</pdfrwt>
<totfact> 0.75171178E+00</totfact>
</mgrwt>
</event>
<event>
12    1  0.1960998E-007  0.4057285E+04  0.7818608E-02  0.7993089E-01
         -2   -1    0    0    0  501 -0.00000000000E+00  0.00000000000E+00  0.16958299114E+04  0.16958299114E+04  0.00000000000E+00 0.  1.
          2   -1    0    0  501    0  0.00000000000E+00 -0.00000000000E+00 -0.24267705300E+04  0.24267705300E+04  0.00000000000E+00 0. -1.
         23    2    1    2    0    0 -0.16215258016E+04  0.16826112992E+03  0.69768497494E+03  0.17756531125E+04  0.92314237484E+02 0.  0.
        254    2    1    2    0    0  0.16215258016E+04 -0.16826112992E+03 -0.14286255935E+04  0.23469473290E+04  0.89974048770E+03 0.  0.
        -24    2    4    4    0    0  0.11109434094E+04  0.27808192249E+03 -0.68270848376E+03  0.13355539135E+04  0.78029275156E+02 0.  0.
         24    2    4    4    0    0  0.51058239229E+03 -0.44634305241E+03 -0.74591710975E+03  0.10113934154E+04  0.81288414698E+02 0.  0.
         11    1    3    3    0    0 -0.43022745522E+03  0.31540837796E+02  0.14308874656E+03  0.45449408914E+03  0.00000000000E+00 0. -1.
        -11    1    3    3    0    0 -0.11912983464E+04  0.13672029212E+03  0.55459622837E+03  0.13211590234E+04  0.00000000000E+00 0.  1.
          4    1    6    6  502    0  0.50486091074E+03 -0.44284152272E+03 -0.71981168260E+03  0.98443994832E+03  0.00000000000E+00 0. -1.
          3    1    5    5  503    0  0.10872631967E+04  0.26669874469E+03 -0.65353823040E+03  0.12962953745E+04  0.00000000000E+00 0. -1.
         -4    1    5    5    0  503  0.23680212667E+02  0.11383177797E+02 -0.29170253361E+02  0.39258539069E+02  0.00000000000E+00 0.  1.
         -3    1    6    6    0  502  0.57214815493E+01 -0.35015296830E+01 -0.26105427157E+02  0.26953467092E+02  0.00000000000E+00 0.  1.
<mgrwt>
<rscale>  0 0.40572848E+04</rscale>
<asrwt>0</asrwt>
<pdfrwt beam="1">  1        2 0.37334931E+00 0.40572848E+04</pdfrwt>
<pdfrwt beam="2">  1       -2 0.26089691E+00 0.40572848E+04</pdfrwt>
<totfact> 0.16600803E-01</totfact>
</mgrwt>
</event>
<event>
12    1  0.1960998E-007  0.2491494E+04  0.7818608E-02  0.8406022E-01
          1   -1    0    0  501    0  0.00000000000E+00  0.00000000000E+00  0.16222212467E+04  0.16222212467E+04  0.00000000000E+00 0. -1.
         -1   -1    0    0    0  501 -0.00000000000E+00 -0.00000000000E+00 -0.95664215465E+03  0.95664215465E+03  0.00000000000E+00 0.  1.
         23    2    1    2    0    0 -0.62339320740E+03  0.19528444976E+03 -0.60272962659E+03  0.89350787679E+03  0.91204252955E+02 0.  0.
        254    2    1    2    0    0  0.62339320740E+03 -0.19528444976E+03  0.12683087186E+04  0.16853555245E+04  0.89725198860E+03 0.  0.
        -24    2    4    4    0    0 -0.78288882910E+02  0.13561447064E+03  0.69685478781E+03  0.71900010829E+03  0.82668776466E+02 0.  0.
         24    2    4    4    0    0  0.70168209031E+03 -0.33089892041E+03  0.57145393081E+03  0.96635541625E+03  0.73697653208E+02 0.  0.
         11    1    3    3    0    0 -0.19647380180E+03  0.10230073995E+03 -0.22816092525E+03  0.31800126415E+03  0.00000000000E+00 0. -1.
        -11    1    3    3    0    0 -0.42691940560E+03  0.92983709814E+02 -0.37456870134E+03  0.57550661264E+03  0.00000000000E+00 0.  1.
          4    1    6    6  502    0  0.33122624741E+03 -0.18964828901E+03  0.25423785805E+03  0.45860024963E+03  0.00000000000E+00 0. -1.
          1    1    5    5  503    0  0.11542781484E+02  0.53452069016E+02  0.18850534142E+03  0.19627690448E+03  0.00000000000E+00 0. -1.
         -2    1    5    5    0  503 -0.89831664394E+02  0.82162401628E+02  0.50834944639E+03  0.52272320382E+03  0.00000000000E+00 0.  1.
         -3    1    6    6    0  502  0.37045584291E+03 -0.14125063140E+03  0.31721607276E+03  0.50775516662E+03  0.00000000000E+00 0.  1.
<mgrwt>
<rscale>  0 0.24914937E+04</rscale>
<asrwt>0</asrwt>
<pdfrwt beam="1">  1        1 0.24957250E+00 0.24914937E+04</pdfrwt>
<pdfrwt beam="2">  1       -1 0.14717572E+00 0.24914937E+04</pdfrwt>
<totfact> 0.17587843E+00</totfact>
</mgrwt>
</event>
<event>
12    1  0.1960998E-007  0.1900259E+04  0.7818608E-02  0.8654727E-01
         -1   -1    0    0    0  501 -0.00000000000E+00  0.00000000000E+00  0.50859116633E+03  0.50859116633E+03  0.00000000000E+00 0.  1.
          1   -1    0    0  501    0  0.00000000000E+00 -0.00000000000E+00 -0.17749937182E+04  0.17749937182E+04  0.00000000000E+00 0. -1.
         23    2    1    2    0    0  0.51001753246E+02 -0.73056219508E+03 -0.42600074739E+03  0.85268895988E+03  0.96330295337E+02 0.  0.
        254    2    1    2    0    0 -0.51001753246E+02  0.73056219508E+03 -0.84040180446E+03  0.14308959246E+04  0.89714305130E+03 0.  0.
        -24    2    4    4    0    0 -0.11698451388E+03  0.46026243146E+03  0.59992515308E+02  0.48523766703E+03  0.79558841829E+02 0.  0.
         24    2    4    4    0    0  0.65982760634E+02  0.27029976363E+03 -0.90039431977E+03  0.94565825761E+03  0.78383175483E+02 0.  0.
         11    1    3    3    0    0  0.15879941219E+02 -0.49373377234E+03 -0.33348084007E+03  0.59601567192E+03  0.00000000000E+00 0. -1.
        -11    1    3    3    0    0  0.35121812028E+02 -0.23682842274E+03 -0.92519907319E+02  0.25667328796E+03  0.00000000000E+00 0.  1.
          4    1    6    6  502    0  0.59906107241E+02  0.20262862138E+03 -0.77200832714E+03  0.80040237197E+03  0.00000000000E+00 0. -1.
          3    1    5    5  503    0 -0.87713935828E+02  0.43176315038E+03  0.57342977846E+02  0.44429873922E+03  0.00000000000E+00 0. -1.
         -4    1    5    5    0  503 -0.29270578052E+02  0.28499281076E+02  0.26495374621E+01  0.40938927809E+02  0.00000000000E+00 0.  1.
         -1    1    6    6    0  502  0.60766533931E+01  0.67671142241E+02 -0.12838599263E+03  0.14525588563E+03  0.00000000000E+00 0.  1.
<mgrwt>
<rscale>  0 0.19002591E+04</rscale>
<asrwt>0</asrwt>
<pdfrwt beam="1">  1        1 0.27307596E+00 0.19002591E+04</pdfrwt>
<pdfrwt beam="2">  1       -1 0.78244794E-01 0.19002591E+04</pdfrwt>
<totfact> 0.64813912E+00</totfact>
</mgrwt>
</event>
<event>
12    1  0.1960998E-007  0.1607785E+04  0.7818608E-02  0.8815780E-01
         -4   -1    0    0    0  501 -0.00000000000E+00  0.00000000000E+00  0.15491173137E+04  0.15491173137E+04  0.00000000000E+00 0.  1.
          4   -1    0    0  501    0  0.00000000000E+00 -0.00000000000E+00 -0.41716869556E+03  0.41716869556E+03  0.00000000000E+00 0. -1.
         23    2    1    2    0    0  0.27862448983E+03 -0.24781626573E+03 -0.10046334961E+03  0.39659316781E+03  0.90270417352E+02 0.  0.
        254    2    1    2    0    0 -0.27862448983E+03  0.24781626573E+03  0.12324119677E+04  0.15696928414E+04  0.89780390418E+03 0.  0.
        -24    2    4    4    0    0  0.20596394965E+02  0.53879191923E+03  0.73995584083E+03  0.91922977729E+03  0.82023126896E+02 0.  0.
         24    2    4    4    0    0 -0.29922088479E+03 -0.29097565351E+03  0.49245612689E+03  0.65046306415E+03  0.79932421948E+02 0.  0.
         13    1    3    3    0    0  0.11714635069E+03 -0.10216850328E+03  0.36773985929E+01  0.15548374128E+03  0.00000000000E+00 0.  1.
        -13    1    3    3    0    0  0.16147813914E+03 -0.14564776245E+03 -0.10414074820E+03  0.24110942653E+03  0.00000000000E+00 0. -1.
          4    1    6    6  502    0 -0.23467210506E+03 -0.26841650271E+03  0.41660740581E+03  0.54834309186E+03  0.00000000000E+00 0. -1.
          1    1    5    5  503    0  0.15993090280E+02  0.48828465572E+03  0.70461350010E+03  0.85741347579E+03  0.00000000000E+00 0. -1.
         -2    1    5    5    0  503  0.46033046848E+01  0.50507263515E+02  0.35342340738E+02  0.61816301496E+02  0.00000000000E+00 0.  1.
         -3    1    6    6    0  502 -0.64548779737E+02 -0.22559150803E+02  0.75848721081E+02  0.10211997229E+03  0.00000000000E+00 0.  1.
<mgrwt>
<rscale>  0 0.16077851E+04</rscale>
<asrwt>0</asrwt>
<pdfrwt beam="1">  1        4 0.64179800E-01 0.16077851E+04</pdfrwt>
<pdfrwt beam="2">  1       -4 0.23832574E+00 0.16077851E+04</pdfrwt>
<totfact> 0.32486669E-01</totfact>
</mgrwt>
</event>
<event>
12    1  0.1960998E-007  0.1377408E+04  0.7818608E-02  0.8970336E-01
          2   -1    0    0  501    0  0.00000000000E+00  0.00000000000E+00  0.15871465255E+04  0.15871465255E+04  0.00000000000E+00 0. -1.
         -2   -1    0    0    0  501 -0.00000000000E+00 -0.00000000000E+00 -0.29884658224E+03  0.29884658224E+03  0.00000000000E+00 0.  1.
         23    2    1    2    0    0  0.24934407110E+03 -0.29897902579E+03  0.35796135516E+03  0.53628791689E+03  0.88923980768E+02 0.  0.
        254    2    1    2    0    0 -0.24934407110E+03  0.29897902579E+03  0.93033858806E+03  0.13497051908E+04  0.89700239131E+03 0.  0.
        -24    2    4    4    0    0  0.32413565940E+03  0.81021342902E+02  0.22122169457E+03  0.40897945980E+03  0.81833835860E+02 0.  0.
         24    2    4    4    0    0 -0.57347973050E+03  0.21795768289E+03  0.70911689349E+03  0.94072573101E+03  0.75720403684E+02 0.  0.
         11    1    3    3    0    0  0.21504114018E+02 -0.80748812332E+02  0.66939655464E+02  0.10706874001E+03  0.00000000000E+00 0. -1.
        -11    1    3    3    0    0  0.22783995708E+03 -0.21823021346E+03  0.29102169970E+03  0.42921917688E+03  0.00000000000E+00 0.  1.
          4    1    6    6  502    0 -0.82733322995E+02  0.48526848602E+02  0.78867868508E+02  0.12417648107E+03  0.00000000000E+00 0. -1.
          3    1    5    5  503    0  0.19447145852E+03  0.39929160902E+02  0.17693578012E+03  0.26593186412E+03  0.00000000000E+00 0. -1.
         -2    1    5    5    0  503  0.12966420088E+03  0.41092181999E+02  0.44285914456E+02  0.14304759569E+03  0.00000000000E+00 0.  1.
         -3    1    6    6    0  502 -0.49074640750E+03  0.16943083429E+03  0.63024902498E+03  0.81654924994E+03  0.00000000000E+00 0.  1.
<mgrwt>
<rscale>  0 0.13774082E+04</rscale>
<asrwt>0</asrwt>
<pdfrwt beam="1">  1        2 0.24417638E+00 0.13774082E+04</pdfrwt>
<pdfrwt beam="2">  1       -2 0.45976398E-01 0.13774082E+04</pdfrwt>
<totfact> 0.49571465E+01</totfact>
</mgrwt>
</event>
<event>
12    1  0.1960998E-007  0.3329805E+04  0.7818608E-02  0.8155353E-01
          1   -1    0    0  501    0  0.00000000000E+00  0.00000000000E+00  0.18569384873E+04  0.18569384873E+04  0.00000000000E+00 0. -1.
         -1   -1    0    0    0  501 -0.00000000000E+00 -0.00000000000E+00 -0.14927260636E+04  0.14927260636E+04  0.00000000000E+00 0.  1.
         23    2    1    2    0    0  0.14880855199E+03 -0.94841050384E+03  0.13824235235E+04  0.16854594132E+04  0.89733863620E+02 0.  0.
        254    2    1    2    0    0 -0.14880855199E+03  0.94841050384E+03 -0.10182110998E+04  0.16642051378E+04  0.90066554724E+03 0.  0.
        -24    2    4    4    0    0 -0.44879876078E+03  0.67465680741E+03 -0.36872998519E+03  0.89415268326E+03  0.83457075972E+02 0.  0.
         24    2    4    4    0    0  0.29999020879E+03  0.27375369643E+03 -0.64948111457E+03  0.77005245452E+03  0.78866043692E+02 0.  0.
         11    1    3    3    0    0  0.88609209523E+02 -0.77847054765E+03  0.11427117657E+04  0.13855172915E+04  0.00000000000E+00 0. -1.
        -11    1    3    3    0    0  0.60199342464E+02 -0.16993995619E+03  0.23971175775E+03  0.29994212167E+03  0.00000000000E+00 0.  1.
          4    1    6    6  502    0  0.26980976124E+03  0.25849142502E+03 -0.54948082640E+03  0.66448800038E+03  0.00000000000E+00 0. -1.
          1    1    5    5  503    0 -0.38903746172E+03  0.61072679841E+03 -0.35168035623E+03  0.80499468437E+03  0.00000000000E+00 0. -1.
         -2    1    5    5    0  503 -0.59761299063E+02  0.63930009005E+02 -0.17049628963E+02  0.89157998884E+02  0.00000000000E+00 0.  1.
         -3    1    6    6    0  502  0.30180447551E+02  0.15262271404E+02 -0.10000028817E+03  0.10556445414E+03  0.00000000000E+00 0.  1.
<mgrwt>
<rscale>  0 0.33298051E+04</rscale>
<asrwt>0</asrwt>
<pdfrwt beam="1">  1        1 0.28568284E+00 0.33298051E+04</pdfrwt>
<pdfrwt beam="2">  1       -1 0.22965016E+00 0.33298051E+04</pdfrwt>
<totfact> 0.29269296E-01</totfact>
</mgrwt>
</event>
<event>
12    1  0.1960998E-007  0.2327788E+04  0.7818608E-02  0.8467044E-01
         -1   -1    0    0    0  501 -0.00000000000E+00  0.00000000000E+00  0.83306485562E+03  0.83306485562E+03  0.00000000000E+00 0.  1.
          1   -1    0    0  501    0  0.00000000000E+00 -0.00000000000E+00 -0.16261034876E+04  0.16261034876E+04  0.00000000000E+00 0. -1.
         23    2    1    2    0    0 -0.47754657055E+03  0.85571543908E+02  0.57115827610E+03  0.75518927167E+03  0.93358682015E+02 0.  0.
        254    2    1    2    0    0  0.47754657055E+03 -0.85571543908E+02 -0.13641969081E+04  0.17039790716E+04  0.89840873554E+03 0.  0.
        -24    2    4    4    0    0 -0.82290966640E+02  0.25133548172E+03 -0.13098801542E+03  0.30622824825E+03  0.81710172441E+02 0.  0.
         24    2    4    4    0    0  0.55983753719E+03 -0.33690702563E+03 -0.12332088927E+04  0.13977508233E+04  0.77322565365E+02 0.  0.
         11    1    3    3    0    0 -0.29390690995E+03  0.16310580671E+02  0.38540537481E+03  0.48495835872E+03  0.00000000000E+00 0.  1.
        -11    1    3    3    0    0 -0.18363966060E+03  0.69260963237E+02  0.18575290129E+03  0.27023091294E+03  0.00000000000E+00 0. -1.
          4    1    6    6  502    0  0.47636496414E+03 -0.26745052375E+03 -0.10751295400E+04  0.12059672008E+04  0.00000000000E+00 0. -1.
          1    1    5    5  503    0 -0.73136917866E+02  0.22416737658E+03 -0.82337213025E+02  0.24975875986E+03  0.00000000000E+00 0. -1.
         -2    1    5    5    0  503 -0.91540487741E+01  0.27168105145E+02 -0.48650802390E+02  0.56469488392E+02  0.00000000000E+00 0.  1.
         -3    1    6    6    0  502  0.83472573050E+02 -0.69456501880E+02 -0.15807935266E+03  0.19178362246E+03  0.00000000000E+00 0.  1.
<mgrwt>
<rscale>  0 0.23277884E+04</rscale>
<asrwt>0</asrwt>
<pdfrwt beam="1">  1        1 0.25016976E+00 0.23277884E+04</pdfrwt>
<pdfrwt beam="2">  1       -1 0.12816383E+00 0.23277884E+04</pdfrwt>
<totfact> 0.25380328E+00</totfact>
</mgrwt>
</event>
<event>
12    1  0.1976547E-007  0.2043176E+04  0.7818608E-02  0.8586696E-01
         -2   -1    0    0    0  501 -0.00000000000E+00  0.00000000000E+00  0.79228817232E+03  0.79228817232E+03  0.00000000000E+00 0.  1.
          2   -1    0    0  501    0  0.00000000000E+00 -0.00000000000E+00 -0.13172507870E+04  0.13172507870E+04  0.00000000000E+00 0. -1.
         23    2    1    2    0    0 -0.60111455126E+03  0.54104095927E+03 -0.35175512167E+03  0.88658859439E+03  0.90794530334E+02 0.  0.
        254    2    1    2    0    0  0.60111455126E+03 -0.54104095927E+03 -0.17320749304E+03  0.12229503650E+04  0.90085666793E+03 0.  0.
        -24    2    4    4    0    0  0.82130634003E+03 -0.51251867125E+03 -0.96776635088E+02  0.97617791694E+03  0.79612284649E+02 0.  0.
         24    2    4    4    0    0 -0.22019178877E+03 -0.28522288018E+02 -0.76430857948E+02  0.24677244802E+03  0.75875030793E+02 0.  0.
         11    1    3    3    0    0 -0.34199146758E+03  0.36285892361E+03 -0.23387966768E+03  0.55074900027E+03  0.00000000000E+00 0. -1.
        -11    1    3    3    0    0 -0.25912308368E+03  0.17818203566E+03 -0.11787545399E+03  0.33583959412E+03  0.00000000000E+00 0.  1.
          2    1    6    6  502    0  0.57524221904E+01  0.62989781997E+00  0.15291012324E+01  0.59854225331E+01  0.00000000000E+00 0. -1.
          1    1    5    5  503    0  0.21113094712E+03 -0.17102323125E+03 -0.40039461504E+02  0.27464227813E+03  0.00000000000E+00 0. -1.
         -2    1    5    5    0  503  0.61017539290E+03 -0.34149544000E+03 -0.56737173584E+02  0.70153563881E+03  0.00000000000E+00 0.  1.
         -1    1    6    6    0  502 -0.22594421096E+03 -0.29152185838E+02 -0.77959959180E+02  0.24078702548E+03  0.00000000000E+00 0.  1.
<mgrwt>
<rscale>  0 0.20431762E+04</rscale>
<asrwt>0</asrwt>
<pdfrwt beam="1">  1        2 0.20265397E+00 0.20431762E+04</pdfrwt>
<pdfrwt beam="2">  1       -2 0.12189049E+00 0.20431762E+04</pdfrwt>
<totfact> 0.76389330E+00</totfact>
</mgrwt>
</event>
<event>
12    1  0.1960998E-007  0.2310770E+04  0.7818608E-02  0.8473687E-01
         -2   -1    0    0    0  501 -0.00000000000E+00  0.00000000000E+00  0.38586863582E+03  0.38586863582E+03  0.00000000000E+00 0.  1.
          2   -1    0    0  501    0  0.00000000000E+00 -0.00000000000E+00 -0.34595061632E+04  0.34595061632E+04  0.00000000000E+00 0. -1.
         23    2    1    2    0    0  0.72057912275E+03 -0.44243688388E+02 -0.20888327402E+03  0.75717991000E+03  0.92181439727E+02 0.  0.
        254    2    1    2    0    0 -0.72057912275E+03  0.44243688388E+02 -0.28647542534E+04  0.30881948890E+04  0.89941034260E+03 0.  0.
        -24    2    4    4    0    0 -0.26352646806E+03 -0.20136885634E+03 -0.25386548424E+03  0.42509077942E+03  0.79113026646E+02 0.  0.
         24    2    4    4    0    0 -0.45705265469E+03  0.24561254473E+03 -0.26108887691E+04  0.26631041096E+04  0.78490015932E+02 0.  0.
         13    1    3    3    0    0  0.30407945785E+03 -0.59819466429E+02 -0.10970014793E+03  0.32875037294E+03  0.00000000000E+00 0. -1.
        -13    1    3    3    0    0  0.41649966490E+03  0.15575778040E+02 -0.99183126087E+02  0.42842953705E+03  0.00000000000E+00 0.  1.
          4    1    6    6  502    0 -0.46010614957E+03  0.24586937559E+03 -0.25934863200E+04  0.26454339362E+04  0.00000000000E+00 0. -1.
          3    1    5    5  503    0 -0.25874707241E+03 -0.18038980796E+03 -0.25155946598E+03  0.40345098242E+03  0.00000000000E+00 0. -1.
         -2    1    5    5    0  503 -0.47793956571E+01 -0.20979048380E+02 -0.23060182605E+01  0.21639796996E+02  0.00000000000E+00 0.  1.
         -3    1    6    6    0  502  0.30534948880E+01 -0.25683085885E+00 -0.17402449145E+02  0.17670173439E+02  0.00000000000E+00 0.  1.
<mgrwt>
<rscale>  0 0.23107704E+04</rscale>
<asrwt>0</asrwt>
<pdfrwt beam="1">  1        2 0.53223172E+00 0.23107704E+04</pdfrwt>
<pdfrwt beam="2">  1       -2 0.59364405E-01 0.23107704E+04</pdfrwt>
<totfact> 0.20867377E+00</totfact>
</mgrwt>
</event>
<event>
12    1  0.1960998E-007  0.1598562E+04  0.7818608E-02  0.8821432E-01
          1   -1    0    0  501    0  0.00000000000E+00  0.00000000000E+00  0.78884881545E+03  0.78884881545E+03  0.00000000000E+00 0. -1.
         -1   -1    0    0    0  501 -0.00000000000E+00 -0.00000000000E+00 -0.80985108587E+03  0.80985108587E+03  0.00000000000E+00 0.  1.
         23    2    1    2    0    0 -0.37239904355E+03  0.14985655707E+03  0.35365689864E+03  0.54316169709E+03  0.93879667108E+02 0.  0.
        254    2    1    2    0    0  0.37239904355E+03 -0.14985655707E+03 -0.37465916907E+03  0.10555382042E+04  0.90147289049E+03 0.  0.
        -24    2    4    4    0    0  0.53371120975E+03 -0.39289299297E+03 -0.16600811144E+03  0.68803716558E+03  0.81387276799E+02 0.  0.
         24    2    4    4    0    0 -0.16131216620E+03  0.24303643590E+03 -0.20865105763E+03  0.36750103865E+03  0.80208636800E+02 0.  0.
         11    1    3    3    0    0 -0.48501600605E+02  0.46961930128E+02  0.92715451494E+02  0.11469081519E+03  0.00000000000E+00 0. -1.
        -11    1    3    3    0    0 -0.32389744295E+03  0.10289462694E+03  0.26094144715E+03  0.42847088190E+03  0.00000000000E+00 0.  1.
          2    1    6    6  502    0 -0.11234035880E+03  0.14457869073E+03 -0.84498249175E+02  0.20165145212E+03  0.00000000000E+00 0. -1.
          3    1    5    5  503    0  0.18119813623E+02 -0.34592552768E+02 -0.17806450251E+02  0.42919017036E+02  0.00000000000E+00 0. -1.
         -2    1    5    5    0  503  0.51559139612E+03 -0.35830044020E+03 -0.14820166119E+03  0.64511814855E+03  0.00000000000E+00 0.  1.
         -1    1    6    6    0  502 -0.48971807397E+02  0.98457745174E+02 -0.12415280845E+03  0.16584958653E+03  0.00000000000E+00 0.  1.
<mgrwt>
<rscale>  0 0.15985619E+04</rscale>
<asrwt>0</asrwt>
<pdfrwt beam="1">  1        1 0.12136136E+00 0.15985619E+04</pdfrwt>
<pdfrwt beam="2">  1       -1 0.12459247E+00 0.15985619E+04</pdfrwt>
<totfact> 0.12246348E+01</totfact>
</mgrwt>
</event>
<event>
12    1  0.1960998E-007  0.2427425E+04  0.7818608E-02  0.8429307E-01
          2   -1    0    0  501    0  0.00000000000E+00  0.00000000000E+00  0.28576895654E+04  0.28576895654E+04  0.00000000000E+00 0. -1.
         -2   -1    0    0    0  501 -0.00000000000E+00 -0.00000000000E+00 -0.51548560498E+03  0.51548560498E+03  0.00000000000E+00 0.  1.
         23    2    1    2    0    0  0.70910446190E+02 -0.66850921222E+03  0.21207298201E+04  0.22266471046E+04  0.92355294807E+02 0.  0.
        254    2    1    2    0    0 -0.70910446190E+02  0.66850921222E+03  0.22147414034E+03  0.11465280658E+04  0.90196615931E+03 0.  0.
        -24    2    4    4    0    0 -0.32263441116E+03  0.41092978620E+03 -0.21894093213E+03  0.57205564500E+03  0.79726261457E+02 0.  0.
         24    2    4    4    0    0  0.25172396497E+03  0.25757942602E+03  0.44041507247E+03  0.57447242076E+03  0.79630464665E+02 0.  0.
         13    1    3    3    0    0  0.56545944566E+02 -0.31703844109E+03  0.88262558687E+03  0.93954177320E+03  0.00000000000E+00 0.  1.
        -13    1    3    3    0    0  0.14364501624E+02 -0.35147077113E+03  0.12381042332E+04  0.12871053314E+04  0.00000000000E+00 0. -1.
          4    1    6    6  502    0  0.10014264967E+03  0.74850835018E+02  0.10348498275E+03  0.16229707157E+03  0.00000000000E+00 0. -1.
          1    1    5    5  503    0 -0.10608527485E+02 -0.18025505168E+01 -0.16977115542E+01  0.10893680200E+02  0.00000000000E+00 0. -1.
         -2    1    5    5    0  503 -0.31202588368E+03  0.41273233672E+03 -0.21724322057E+03  0.56116196480E+03  0.00000000000E+00 0.  1.
         -3    1    6    6    0  502  0.15158131530E+03  0.18272859100E+03  0.33693008971E+03  0.41217534918E+03  0.00000000000E+00 0.  1.
<mgrwt>
<rscale>  0 0.24274248E+04</rscale>
<asrwt>0</asrwt>
<pdfrwt beam="1">  1        2 0.43964454E+00 0.24274248E+04</pdfrwt>
<pdfrwt beam="2">  1       -2 0.79305479E-01 0.24274248E+04</pdfrwt>
<totfact> 0.26979925E+00</totfact>
</mgrwt>
</event>
<event>
12    1  0.1960998E-007  0.1005784E+04  0.7818608E-02  0.9302223E-01
          1   -1    0    0  501    0  0.00000000000E+00  0.00000000000E+00  0.91388266704E+03  0.91388266704E+03  0.00000000000E+00 0. -1.
         -1   -1    0    0    0  501 -0.00000000000E+00 -0.00000000000E+00 -0.27673202695E+03  0.27673202695E+03  0.00000000000E+00 0.  1.
         23    2    1    2    0    0  0.29179319200E+02 -0.23276309429E+02  0.88888513788E+02  0.13397956988E+03  0.93038368501E+02 0.  0.
        254    2    1    2    0    0 -0.29179319200E+02  0.23276309429E+02  0.54826212631E+03  0.10566351241E+04  0.90249277399E+03 0.  0.
        -24    2    4    4    0    0  0.39635075434E+03 -0.13038487114E+03  0.15849003982E+03  0.45424660838E+03  0.84420100789E+02 0.  0.
         24    2    4    4    0    0 -0.42553007354E+03  0.15366118057E+03  0.38977208648E+03  0.60238851572E+03  0.79133068763E+02 0.  0.
         11    1    3    3    0    0 -0.53418285746E+01 -0.84287528580E+01 -0.18053161164E+02  0.20627545547E+02  0.00000000000E+00 0.  1.
        -11    1    3    3    0    0  0.34521147775E+02 -0.14847556571E+02  0.10694167495E+03  0.11335202434E+03  0.00000000000E+00 0. -1.
          2    1    6    6  502    0 -0.11962144169E+03  0.56570690006E+02  0.71572764191E+02  0.15043999752E+03  0.00000000000E+00 0. -1.
          3    1    5    5  503    0  0.48605034617E+02  0.10488627465E+01  0.43166980142E+02  0.65014903505E+02  0.00000000000E+00 0. -1.
         -4    1    5    5    0  503  0.34774571972E+03 -0.13143373388E+03  0.11532305968E+03  0.38923170488E+03  0.00000000000E+00 0.  1.
         -1    1    6    6    0  502 -0.30590863185E+03  0.97090490560E+02  0.31819932229E+03  0.45194851820E+03  0.00000000000E+00 0.  1.
<mgrwt>
<rscale>  0 0.10057845E+04</rscale>
<asrwt>0</asrwt>
<pdfrwt beam="1">  1        1 0.14059733E+00 0.10057845E+04</pdfrwt>
<pdfrwt beam="2">  1       -1 0.42574158E-01 0.10057845E+04</pdfrwt>
<totfact> 0.96390897E+01</totfact>
</mgrwt>
</event>
<event>
12    1  0.1960998E-007  0.1108277E+04  0.7818608E-02  0.9197162E-01
         -2   -1    0    0    0  501 -0.00000000000E+00  0.00000000000E+00  0.70603558167E+03  0.70603558167E+03  0.00000000000E+00 0.  1.
          2   -1    0    0  501    0  0.00000000000E+00 -0.00000000000E+00 -0.43492099253E+03  0.43492099253E+03  0.00000000000E+00 0. -1.
         23    2    1    2    0    0  0.15491991974E+03 -0.37155490701E+01 -0.30674903482E+02  0.18070468249E+03  0.87745345926E+02 0.  0.
        254    2    1    2    0    0 -0.15491991974E+03  0.37155490701E+01  0.30178949263E+03  0.96025189171E+03  0.89832778585E+03 0.  0.
        -24    2    4    4    0    0  0.96828036698E+02  0.40548325063E+03  0.19528388546E+03  0.46742663879E+03  0.80990934706E+02 0.  0.
         24    2    4    4    0    0 -0.25174795644E+03 -0.40176770156E+03  0.10650560717E+03  0.49282525292E+03  0.82091205184E+02 0.  0.
         13    1    3    3    0    0  0.60538290282E+02  0.38023254791E+02  0.46176450673E+01  0.71637805250E+02  0.00000000000E+00 0. -1.
        -13    1    3    3    0    0  0.94381629458E+02 -0.41738803861E+02 -0.35292548549E+02  0.10906687724E+03  0.00000000000E+00 0.  1.
          2    1    6    6  502    0 -0.14889326618E+03 -0.16098657431E+03  0.44519509675E+02  0.22375850501E+03  0.00000000000E+00 0. -1.
          3    1    5    5  503    0  0.26959366166E+02  0.58778226640E+02  0.61658681813E+02  0.89350323972E+02  0.00000000000E+00 0. -1.
         -4    1    5    5    0  503  0.69868670532E+02  0.34670502399E+03  0.13362520364E+03  0.37807631482E+03  0.00000000000E+00 0.  1.
         -1    1    6    6    0  502 -0.10285469025E+03 -0.24078112725E+03  0.61986097496E+02  0.26906674791E+03  0.00000000000E+00 0.  1.
<mgrwt>
<rscale>  0 0.11082774E+04</rscale>
<asrwt>0</asrwt>
<pdfrwt beam="1">  1        2 0.66910922E-01 0.11082774E+04</pdfrwt>
<pdfrwt beam="2">  1       -2 0.10862086E+00 0.11082774E+04</pdfrwt>
<totfact> 0.48610125E+01</totfact>
</mgrwt>
</event>
<event>
12    1  0.2127671E-007  0.2360102E+04  0.7818608E-02  0.8454594E-01
          2   -1    0    0  501    0  0.00000000000E+00  0.00000000000E+00  0.17170948528E+04  0.17170948528E+04  0.00000000000E+00 0. -1.
         -2   -1    0    0    0  501 -0.00000000000E+00 -0.00000000000E+00 -0.81097440453E+03  0.81097440453E+03  0.00000000000E+00 0.  1.
         23    2    1    2    0    0  0.96350462016E+03  0.72182879474E+02  0.88756751081E+02  0.97484818159E+03  0.94338195496E+02 0.  0.
        254    2    1    2    0    0 -0.96350462016E+03 -0.72182879474E+02  0.81736369715E+03  0.15532210757E+04  0.90047808157E+03 0.  0.
        -24    2    4    4    0    0 -0.60121454419E+03  0.39489953595E+03  0.43512609125E+03  0.84461873392E+03  0.81495513811E+02 0.  0.
         24    2    4    4    0    0 -0.36229007597E+03 -0.46708241542E+03  0.38223760590E+03  0.70860234177E+03  0.81188727383E+02 0.  0.
         11    1    3    3    0    0  0.38058333854E+03  0.36177333434E+02  0.80890322672E+02  0.39076299893E+03  0.00000000000E+00 0. -1.
        -11    1    3    3    0    0  0.58292128162E+03  0.36005546040E+02  0.78664284089E+01  0.58408518266E+03  0.00000000000E+00 0.  1.
          2    1    6    6  502    0 -0.30346468841E+02 -0.81561945790E+02  0.70055615629E+02  0.11171861283E+03  0.00000000000E+00 0. -1.
          1    1    5    5  503    0 -0.19355435748E+03  0.85273430602E+02  0.14148820150E+03  0.25446759800E+03  0.00000000000E+00 0. -1.
         -2    1    5    5    0  503 -0.40766018671E+03  0.30962610535E+03  0.29363788974E+03  0.59015113592E+03  0.00000000000E+00 0.  1.
         -1    1    6    6    0  502 -0.33194360713E+03 -0.38552046963E+03  0.31218199027E+03  0.59688372894E+03  0.00000000000E+00 0.  1.
<mgrwt>
<rscale>  0 0.23601017E+04</rscale>
<asrwt>0</asrwt>
<pdfrwt beam="1">  1        2 0.26416844E+00 0.23601017E+04</pdfrwt>
<pdfrwt beam="2">  1       -2 0.12476529E+00 0.23601017E+04</pdfrwt>
<totfact> 0.41704397E+00</totfact>
</mgrwt>
</event>
<event>
12    1  0.1960998E-007  0.1520817E+04  0.7818608E-02  0.8870726E-01
          1   -1    0    0  501    0  0.00000000000E+00  0.00000000000E+00  0.72380738362E+03  0.72380738362E+03  0.00000000000E+00 0. -1.
         -1   -1    0    0    0  501 -0.00000000000E+00 -0.00000000000E+00 -0.79886078470E+03  0.79886078470E+03  0.00000000000E+00 0.  1.
         23    2    1    2    0    0 -0.45426008767E+03 -0.14042007793E+03 -0.13697339394E+03  0.50258280610E+03  0.88078038096E+02 0.  0.
        254    2    1    2    0    0  0.45426008767E+03  0.14042007793E+03  0.61919992865E+02  0.10200853622E+04  0.90037216481E+03 0.  0.
        -24    2    4    4    0    0  0.25832002044E+03 -0.20733012328E+03  0.37490818090E+03  0.50674602359E+03  0.80748841105E+02 0.  0.
         24    2    4    4    0    0  0.19594006723E+03  0.34775020122E+03 -0.31298818803E+03  0.51333933863E+03  0.78949087040E+02 0.  0.
         13    1    3    3    0    0 -0.39765649685E+03 -0.10684100845E+03 -0.14441291472E+03  0.43634937895E+03  0.00000000000E+00 0.  1.
        -13    1    3    3    0    0 -0.56603590823E+02 -0.33579069487E+02  0.74395207809E+01  0.66233427143E+02  0.00000000000E+00 0. -1.
          4    1    6    6  502    0  0.45957898350E+01  0.36803654411E+01 -0.24661869211E+02  0.25354963360E+02  0.00000000000E+00 0. -1.
          1    1    5    5  503    0  0.39869117324E+00  0.59726708144E+01  0.94332472580E+01  0.11172193390E+02  0.00000000000E+00 0. -1.
         -2    1    5    5    0  503  0.25792132927E+03 -0.21330279410E+03  0.36547493364E+03  0.49557383020E+03  0.00000000000E+00 0.  1.
         -3    1    6    6    0  502  0.19134427740E+03  0.34406983578E+03 -0.28832631882E+03  0.48798437527E+03  0.00000000000E+00 0.  1.
<mgrwt>
<rscale>  0 0.15208173E+04</rscale>
<asrwt>0</asrwt>
<pdfrwt beam="1">  1        1 0.11135498E+00 0.15208173E+04</pdfrwt>
<pdfrwt beam="2">  1       -1 0.12290166E+00 0.15208173E+04</pdfrwt>
<totfact> 0.14593272E+01</totfact>
</mgrwt>
</event>
<event>
12    1  0.1960998E-007  0.1409098E+04  0.7818608E-02  0.8947259E-01
         -1   -1    0    0    0  501 -0.00000000000E+00  0.00000000000E+00  0.40844266652E+03  0.40844266652E+03  0.00000000000E+00 0.  1.
          1   -1    0    0  501    0  0.00000000000E+00 -0.00000000000E+00 -0.12153223005E+04  0.12153223005E+04  0.00000000000E+00 0. -1.
         23    2    1    2    0    0 -0.82784154951E+02  0.33002547278E+03  0.24773438907E+02  0.35258819919E+03  0.89076854143E+02 0.  0.
        254    2    1    2    0    0  0.82784154951E+02 -0.33002547278E+03 -0.83165307284E+03  0.12711767678E+04  0.89915155141E+03 0.  0.
        -24    2    4    4    0    0 -0.20500937707E+03  0.11688541333E+03 -0.66231717094E+03  0.70762366390E+03  0.79850925225E+02 0.  0.
         24    2    4    4    0    0  0.28779353202E+03 -0.44691088611E+03 -0.16933590191E+03  0.56355310389E+03  0.79768389924E+02 0.  0.
         11    1    3    3    0    0 -0.54379824073E+02  0.11543442632E+03 -0.26061956266E+02  0.13023631448E+03  0.00000000000E+00 0. -1.
        -11    1    3    3    0    0 -0.28404330878E+02  0.21459104646E+03  0.50835395173E+02  0.22235188471E+03  0.00000000000E+00 0.  1.
          4    1    6    6  502    0  0.11205086183E+02 -0.52057793791E+02 -0.32643661100E+02  0.62459398499E+02  0.00000000000E+00 0. -1.
          3    1    5    5  503    0  0.91179572255E+00 -0.66975080084E+01 -0.40134805071E+02  0.40700006917E+02  0.00000000000E+00 0. -1.
         -4    1    5    5    0  503 -0.20592117279E+03  0.12358292134E+03 -0.62218236587E+03  0.66692365699E+03  0.00000000000E+00 0.  1.
         -3    1    6    6    0  502  0.27658844584E+03 -0.39485309231E+03 -0.13669224081E+03  0.50109370539E+03  0.00000000000E+00 0.  1.
<mgrwt>
<rscale>  0 0.14090983E+04</rscale>
<asrwt>0</asrwt>
<pdfrwt beam="1">  1        1 0.18697266E+00 0.14090983E+04</pdfrwt>
<pdfrwt beam="2">  1       -1 0.62837334E-01 0.14090983E+04</pdfrwt>
<totfact> 0.26063946E+01</totfact>
</mgrwt>
</event>
<event>
12    1  0.1960998E-007  0.2864939E+04  0.7818608E-02  0.8283386E-01
          1   -1    0    0  501    0  0.00000000000E+00  0.00000000000E+00  0.16813692211E+04  0.16813692211E+04  0.00000000000E+00 0. -1.
         -1   -1    0    0    0  501 -0.00000000000E+00 -0.00000000000E+00 -0.12204155601E+04  0.12204155601E+04  0.00000000000E+00 0.  1.
         23    2    1    2    0    0 -0.27267120157E+03  0.10828991612E+04  0.85829458006E+03  0.14114527114E+04  0.92244201912E+02 0.  0.
        254    2    1    2    0    0  0.27267120157E+03 -0.10828991612E+04 -0.39734091897E+03  0.14903320698E+04  0.90343217502E+03 0.  0.
        -24    2    4    4    0    0 -0.29488128274E+02  0.13294492684E+03  0.34739413494E+02  0.16267346019E+03  0.81926335931E+02 0.  0.
         24    2    4    4    0    0  0.30215932984E+03 -0.12158440881E+04 -0.43208033246E+03  0.13276586096E+04  0.80042881630E+02 0.  0.
         11    1    3    3    0    0 -0.11451442422E+03  0.64011182623E+03  0.49191840407E+03  0.81537747069E+03  0.00000000000E+00 0. -1.
        -11    1    3    3    0    0 -0.15815677734E+03  0.44278733499E+03  0.36637617599E+03  0.59607524070E+03  0.00000000000E+00 0.  1.
          2    1    6    6  502    0  0.22557005531E+03 -0.92479038614E+03 -0.29191068820E+03  0.99565604404E+03  0.00000000000E+00 0. -1.
          3    1    5    5  503    0 -0.27194165997E+02  0.13791297946E+03  0.14045755199E+02  0.14126852376E+03  0.00000000000E+00 0. -1.
         -4    1    5    5    0  503 -0.22939622774E+01 -0.49680526199E+01  0.20693658295E+02  0.21404936426E+02  0.00000000000E+00 0.  1.
         -1    1    6    6    0  502  0.76589274527E+02 -0.29105370192E+03 -0.14016964426E+03  0.33200256557E+03  0.00000000000E+00 0.  1.
<mgrwt>
<rscale>  0 0.28649392E+04</rscale>
<asrwt>0</asrwt>
<pdfrwt beam="1">  1        1 0.25867219E+00 0.28649392E+04</pdfrwt>
<pdfrwt beam="2">  1       -1 0.18775624E+00 0.28649392E+04</pdfrwt>
<totfact> 0.77430166E-01</totfact>
</mgrwt>
</event>
<event>
12    1  0.1960998E-007  0.1364633E+04  0.7818608E-02  0.8979824E-01
          1   -1    0    0  501    0  0.00000000000E+00  0.00000000000E+00  0.15303490520E+04  0.15303490520E+04  0.00000000000E+00 0. -1.
         -1   -1    0    0    0  501 -0.00000000000E+00 -0.00000000000E+00 -0.30421541532E+03  0.30421541532E+03  0.00000000000E+00 0.  1.
         23    2    1    2    0    0  0.83864556993E+02  0.29879986218E+03  0.61808246823E+03  0.69773528061E+03  0.92162697010E+02 0.  0.
        254    2    1    2    0    0 -0.83864556993E+02 -0.29879986218E+03  0.60805116847E+03  0.11368291867E+04  0.90903231777E+03 0.  0.
        -24    2    4    4    0    0 -0.26286441034E+03 -0.46373620078E+03  0.73900579078E+02  0.54436827637E+03  0.82015624076E+02 0.  0.
         24    2    4    4    0    0  0.17899985335E+03  0.16493633860E+03  0.53415058939E+03  0.59246091036E+03  0.80300279380E+02 0.  0.
         11    1    3    3    0    0  0.81474079541E+02  0.15579954766E+03  0.40005847827E+03  0.43698776953E+03  0.00000000000E+00 0. -1.
        -11    1    3    3    0    0  0.23904774519E+01  0.14300031452E+03  0.21802398997E+03  0.26074751108E+03  0.00000000000E+00 0.  1.
          2    1    6    6  502    0  0.17370757537E+03  0.15901129924E+03  0.53493496846E+03  0.58447783149E+03  0.00000000000E+00 0. -1.
          3    1    5    5  503    0 -0.21696572057E+03 -0.31366060365E+03  0.67385401536E+02  0.38729561129E+03  0.00000000000E+00 0. -1.
         -4    1    5    5    0  503 -0.45898689766E+02 -0.15007559713E+03  0.65151775417E+01  0.15707266507E+03  0.00000000000E+00 0.  1.
         -1    1    6    6    0  502  0.52922779812E+01  0.59250393566E+01 -0.78437907185E+00  0.79830788632E+01  0.00000000000E+00 0.  1.
<mgrwt>
<rscale>  0 0.13646330E+04</rscale>
<asrwt>0</asrwt>
<pdfrwt beam="1">  1        1 0.23543831E+00 0.13646330E+04</pdfrwt>
<pdfrwt beam="2">  1       -1 0.46802373E-01 0.13646330E+04</pdfrwt>
<totfact> 0.27720857E+01</totfact>
</mgrwt>
</event>
<event>
12    1  0.1960998E-007  0.1485488E+04  0.7818608E-02  0.8894161E-01
         -2   -1    0    0    0  501 -0.00000000000E+00  0.00000000000E+00  0.48571286882E+03  0.48571286882E+03  0.00000000000E+00 0. -1.
          2   -1    0    0  501    0  0.00000000000E+00 -0.00000000000E+00 -0.11357912007E+04  0.11357912007E+04  0.00000000000E+00 0.  1.
         23    2    1    2    0    0  0.44989982393E+03 -0.28053374150E+02 -0.79838466503E+02  0.46699163405E+03  0.92250540174E+02 0.  0.
        254    2    1    2    0    0 -0.44989982393E+03  0.28053374150E+02 -0.57023986537E+03  0.11545124355E+04  0.89695519187E+03 0.  0.
        -24    2    4    4    0    0 -0.33089239358E+03 -0.52279928006E+02 -0.80046588536E+03  0.87136905415E+03  0.79469666498E+02 0.  0.
         24    2    4    4    0    0 -0.11900743035E+03  0.80333302156E+02  0.23022602000E+03  0.28314338132E+03  0.80931737840E+02 0.  0.
         13    1    3    3    0    0  0.35537309291E+03 -0.24561513562E+02 -0.23727757688E+02  0.35701023739E+03  0.00000000000E+00 0. -1.
        -13    1    3    3    0    0  0.94526731016E+02 -0.34918605879E+01 -0.56110708815E+02  0.10998139666E+03  0.00000000000E+00 0.  1.
          2    1    6    6  502    0 -0.58035028195E+02  0.76744604398E+02  0.17985372769E+03  0.20397343495E+03  0.00000000000E+00 0. -1.
          3    1    5    5  503    0 -0.13586699466E+03  0.29013495282E+00 -0.24249456386E+03  0.27796319526E+03  0.00000000000E+00 0. -1.
         -4    1    5    5    0  503 -0.19502539891E+03 -0.52570062958E+02 -0.55797132150E+03  0.59340585888E+03  0.00000000000E+00 0.  1.
         -1    1    6    6    0  502 -0.60972402156E+02  0.35886977576E+01  0.50372292305E+02  0.79169946370E+02  0.00000000000E+00 0.  1.
<mgrwt>
<rscale>  0 0.14854877E+04</rscale>
<asrwt>0</asrwt>
<pdfrwt beam="1">  1        2 0.17473711E+00 0.14854877E+04</pdfrwt>
<pdfrwt beam="2">  1       -2 0.74725057E-01 0.14854877E+04</pdfrwt>
<totfact> 0.32254642E+01</totfact>
</mgrwt>
</event>
<event>
12    1  0.1960998E-007  0.2378968E+04  0.7818608E-02  0.8447420E-01
         -1   -1    0    0    0  501 -0.00000000000E+00  0.00000000000E+00  0.12539336749E+04  0.12539336749E+04  0.00000000000E+00 0.  1.
          1   -1    0    0  501    0  0.00000000000E+00 -0.00000000000E+00 -0.11283467950E+04  0.11283467950E+04  0.00000000000E+00 0. -1.
         23    2    1    2    0    0  0.66711997036E+03  0.75259006315E+03  0.16939298126E+03  0.10240368823E+04  0.92285947996E+02 0.  0.
        254    2    1    2    0    0 -0.66711997036E+03 -0.75259006315E+03 -0.43806101358E+02  0.13582435876E+04  0.91184747122E+03 0.  0.
        -24    2    4    4    0    0  0.14863653530E+03 -0.33201710037E+03  0.17484582070E+03  0.41128529173E+03  0.79097127694E+02 0.  0.
         24    2    4    4    0    0 -0.81575650566E+03 -0.42057296278E+03 -0.21865192206E+03  0.94695829589E+03  0.81123717736E+02 0.  0.
         13    1    3    3    0    0  0.47623262067E+03  0.58173685663E+03  0.15382230863E+03  0.76738294351E+03  0.00000000000E+00 0. -1.
        -13    1    3    3    0    0  0.19088734969E+03  0.17085320652E+03  0.15570672622E+02  0.25665393879E+03  0.00000000000E+00 0.  1.
          4    1    6    6  502    0 -0.69743289697E+03 -0.37561145817E+03 -0.16328488218E+03  0.80880069612E+03  0.00000000000E+00 0. -1.
          1    1    5    5  503    0  0.70575903573E+02 -0.13191017238E+03  0.31020601505E+02  0.15278589418E+03  0.00000000000E+00 0. -1.
         -2    1    5    5    0  503  0.78060631729E+02 -0.20010692799E+03  0.14382521920E+03  0.25849939755E+03  0.00000000000E+00 0.  1.
         -3    1    6    6    0  502 -0.11832360869E+03 -0.44961504606E+02 -0.55367039874E+02  0.13815759977E+03  0.00000000000E+00 0.  1.
<mgrwt>
<rscale>  0 0.23789679E+04</rscale>
<asrwt>0</asrwt>
<pdfrwt beam="1">  1        1 0.17359181E+00 0.23789679E+04</pdfrwt>
<pdfrwt beam="2">  1       -1 0.19291287E+00 0.23789679E+04</pdfrwt>
<totfact> 0.18271490E+00</totfact>
</mgrwt>
</event>
<event>
12    1  0.1960998E-007  0.1362828E+04  0.7818608E-02  0.8981174E-01
         -2   -1    0    0    0  501 -0.00000000000E+00  0.00000000000E+00  0.83620039934E+03  0.83620039934E+03  0.00000000000E+00 0.  1.
          2   -1    0    0  501    0  0.00000000000E+00 -0.00000000000E+00 -0.55527957112E+03  0.55527957112E+03  0.00000000000E+00 0. -1.
         23    2    1    2    0    0 -0.30147290030E+03  0.35425629259E+02  0.31321250536E+03  0.44565592440E+03  0.91467177780E+02 0.  0.
        254    2    1    2    0    0  0.30147290030E+03 -0.35425629259E+02 -0.32291677141E+02  0.94582404607E+03  0.89520918722E+03 0.  0.
        -24    2    4    4    0    0  0.57460231106E+03  0.11376825715E+03 -0.13891477449E+03  0.60730936494E+03  0.80101922349E+02 0.  0.
         24    2    4    4    0    0 -0.27312941076E+03 -0.14919388641E+03  0.10662309735E+03  0.33851468113E+03  0.79782289336E+02 0.  0.
         13    1    3    3    0    0 -0.29173315204E+03  0.14603435457E+02  0.27570735116E+03  0.40166657293E+03  0.00000000000E+00 0. -1.
        -13    1    3    3    0    0 -0.97397482658E+01  0.20822193802E+02  0.37505154203E+02  0.43989351471E+02  0.00000000000E+00 0.  1.
          2    1    6    6  502    0 -0.21742010782E+03 -0.78518258935E+02  0.81031529849E+02  0.24495454496E+03  0.00000000000E+00 0. -1.
          3    1    5    5  503    0  0.36220428633E+03  0.33931138857E+02 -0.73245369180E+02  0.37109048941E+03  0.00000000000E+00 0. -1.
         -4    1    5    5    0  503  0.21239802473E+03  0.79837118290E+02 -0.65669405310E+02  0.23621887553E+03  0.00000000000E+00 0.  1.
         -1    1    6    6    0  502 -0.55709302941E+02 -0.70675627470E+02  0.25591567499E+02  0.93560136167E+02  0.00000000000E+00 0.  1.
<mgrwt>
<rscale>  0 0.13628279E+04</rscale>
<asrwt>0</asrwt>
<pdfrwt beam="1">  1        2 0.85427626E-01 0.13628279E+04</pdfrwt>
<pdfrwt beam="2">  1       -2 0.12864622E+00 0.13628279E+04</pdfrwt>
<totfact> 0.23678458E+01</totfact>
</mgrwt>
</event>
<event>
12    1  0.1960998E-007  0.2069227E+04  0.7818608E-02  0.8574922E-01
         -2   -1    0    0    0  501 -0.00000000000E+00  0.00000000000E+00  0.61182127183E+03  0.61182127183E+03  0.00000000000E+00 0.  1.
          2   -1    0    0  501    0  0.00000000000E+00 -0.00000000000E+00 -0.17495712865E+04  0.17495712865E+04  0.00000000000E+00 0. -1.
         23    2    1    2    0    0 -0.77261565185E+03 -0.19716329767E+03 -0.17501888886E+03  0.82147864804E+03  0.91581910375E+02 0.  0.
        254    2    1    2    0    0  0.77261565185E+03  0.19716329767E+03 -0.96273112580E+03  0.15399139103E+04  0.89926376502E+03 0.  0.
        -24    2    4    4    0    0  0.28071977096E+03 -0.15943967345E+03  0.69121539980E+02  0.33984879712E+03  0.80590435762E+02 0.  0.
         24    2    4    4    0    0  0.49189588088E+03  0.35660297112E+03 -0.10318526658E+04  0.12000651132E+04  0.79429939609E+02 0.  0.
         13    1    3    3    0    0 -0.47038514891E+03 -0.10131455520E+03 -0.14725356399E+03  0.50320019825E+03  0.00000000000E+00 0. -1.
        -13    1    3    3    0    0 -0.30223050294E+03 -0.95848742464E+02 -0.27765324866E+02  0.31827844980E+03  0.00000000000E+00 0.  1.
          4    1    6    6  502    0  0.32914785537E+03  0.24798310878E+03 -0.76793541141E+03  0.87152666570E+03  0.00000000000E+00 0. -1.
          1    1    5    5  503    0  0.16391494232E+03 -0.48087628468E+02  0.45256481004E+02  0.17671637558E+03  0.00000000000E+00 0. -1.
         -2    1    5    5    0  503  0.11680482865E+03 -0.11135204499E+03  0.23865058976E+02  0.16313242154E+03  0.00000000000E+00 0.  1.
         -3    1    6    6    0  502  0.16274802552E+03  0.10861986234E+03 -0.26391725438E+03  0.32853844746E+03  0.00000000000E+00 0.  1.
<mgrwt>
<rscale>  0 0.20692268E+04</rscale>
<asrwt>0</asrwt>
<pdfrwt beam="1">  1        2 0.26916482E+00 0.20692268E+04</pdfrwt>
<pdfrwt beam="2">  1       -2 0.94126349E-01 0.20692268E+04</pdfrwt>
<totfact> 0.80977022E+00</totfact>
</mgrwt>
</event>
<event>
12    1  0.1960998E-007  0.2141041E+04  0.7818608E-02  0.8543377E-01
          1   -1    0    0  501    0  0.00000000000E+00  0.00000000000E+00  0.11983848510E+04  0.11983848510E+04  0.00000000000E+00 0. -1.
         -1   -1    0    0    0  501 -0.00000000000E+00 -0.00000000000E+00 -0.95629912053E+03  0.95629912053E+03  0.00000000000E+00 0.  1.
         23    2    1    2    0    0  0.53478864290E+03 -0.17657821451E+03 -0.57782109117E+03  0.81192105818E+03  0.90331793455E+02 0.  0.
        254    2    1    2    0    0 -0.53478864290E+03  0.17657821451E+03  0.81990682165E+03  0.13427629134E+04  0.90199018114E+03 0.  0.
        -24    2    4    4    0    0 -0.47297471558E+03  0.11696351870E+03 -0.20608196185E+02  0.49404351024E+03  0.79175412678E+02 0.  0.
         24    2    4    4    0    0 -0.61813927318E+02  0.59614695807E+02  0.84051501784E+03  0.84871940312E+03  0.80524880932E+02 0.  0.
         11    1    3    3    0    0  0.47917926617E+03 -0.14309923557E+03 -0.54323244937E+03  0.73837094633E+03  0.00000000000E+00 0. -1.
        -11    1    3    3    0    0  0.55609376732E+02 -0.33478978939E+02 -0.34588641802E+02  0.73550111849E+02  0.00000000000E+00 0.  1.
          2    1    6    6  502    0 -0.62400673714E+02  0.54592718032E+02  0.83947247505E+03  0.84355690105E+03  0.00000000000E+00 0. -1.
          3    1    5    5  503    0 -0.42250463239E+03  0.10286661227E+03 -0.43183412838E+02  0.43698571081E+03  0.00000000000E+00 0. -1.
         -4    1    5    5    0  503 -0.50470083190E+02  0.14096906435E+02  0.22575216653E+02  0.57057799425E+02  0.00000000000E+00 0.  1.
         -1    1    6    6    0  502  0.58674639605E+00  0.50219777750E+01  0.10425427853E+01  0.51625020644E+01  0.00000000000E+00 0.  1.
<mgrwt>
<rscale>  0 0.21410412E+04</rscale>
<asrwt>0</asrwt>
<pdfrwt beam="1">  1        1 0.18436690E+00 0.21410412E+04</pdfrwt>
<pdfrwt beam="2">  1       -1 0.14712294E+00 0.21410412E+04</pdfrwt>
<totfact> 0.36093062E+00</totfact>
</mgrwt>
</event>
<event>
12    1  0.1960998E-007  0.1735359E+04  0.7818608E-02  0.8741451E-01
          1   -1    0    0  501    0  0.00000000000E+00  0.00000000000E+00  0.98697523850E+03  0.98697523850E+03  0.00000000000E+00 0. -1.
         -1   -1    0    0    0  501 -0.00000000000E+00 -0.00000000000E+00 -0.76280341603E+03  0.76280341603E+03  0.00000000000E+00 0.  1.
         23    2    1    2    0    0  0.62892397281E+03  0.36589025162E+02  0.45976592854E+02  0.63829745313E+03  0.91791455187E+02 0.  0.
        254    2    1    2    0    0 -0.62892397281E+03 -0.36589025162E+02  0.17819522962E+03  0.11114812014E+04  0.89819418885E+03 0.  0.
        -24    2    4    4    0    0 -0.45295959666E+03 -0.42164667226E+03  0.25597514162E+03  0.67464154313E+03  0.81606532597E+02 0.  0.
         24    2    4    4    0    0 -0.17596437615E+03  0.38505764710E+03 -0.77779911997E+02  0.43683965827E+03  0.74473613205E+02 0.  0.
         13    1    3    3    0    0  0.17653448278E+03 -0.22675406799E+02  0.37877899411E+02  0.18197069255E+03  0.00000000000E+00 0. -1.
        -13    1    3    3    0    0  0.45238949003E+03  0.59264431961E+02  0.80986934435E+01  0.45632676058E+03  0.00000000000E+00 0.  1.
          2    1    6    6  502    0 -0.16186417391E+03  0.38271150790E+03 -0.74233243484E+02  0.42211216935E+03  0.00000000000E+00 0. -1.
          3    1    5    5  503    0 -0.44623980124E+03 -0.41390805031E+03  0.23716517657E+03  0.65322060232E+03  0.00000000000E+00 0. -1.
         -4    1    5    5    0  503 -0.67197954198E+01 -0.77386219467E+01  0.18809965045E+02  0.21420940808E+02  0.00000000000E+00 0.  1.
         -1    1    6    6    0  502 -0.14100202238E+02  0.23461391967E+01 -0.35466685124E+01  0.14727488917E+02  0.00000000000E+00 0.  1.
<mgrwt>
<rscale>  0 0.17353594E+04</rscale>
<asrwt>0</asrwt>
<pdfrwt beam="1">  1        1 0.15184235E+00 0.17353594E+04</pdfrwt>
<pdfrwt beam="2">  1       -1 0.11735437E+00 0.17353594E+04</pdfrwt>
<totfact> 0.96095712E+00</totfact>
</mgrwt>
</event>
<event>
12    1  0.1960998E-007  0.1597443E+04  0.7818608E-02  0.8822120E-01
         -1   -1    0    0    0  501 -0.00000000000E+00  0.00000000000E+00  0.30942182586E+03  0.30942182586E+03  0.00000000000E+00 0.  1.
          1   -1    0    0  501    0  0.00000000000E+00 -0.00000000000E+00 -0.20617677103E+04  0.20617677103E+04  0.00000000000E+00 0. -1.
         23    2    1    2    0    0 -0.95056927622E+02 -0.48752412708E+03 -0.90935940821E+03  0.10403536275E+04  0.93196260563E+02 0.  0.
        254    2    1    2    0    0  0.95056927622E+02  0.48752412708E+03 -0.84298647625E+03  0.13308359087E+04  0.90209889852E+03 0.  0.
        -24    2    4    4    0    0  0.24275345422E+03  0.37618954693E+03  0.95454010290E+01  0.45478590315E+03  0.79317641588E+02 0.  0.
         24    2    4    4    0    0 -0.14769652660E+03  0.11133458015E+03 -0.85253187727E+03  0.87605000553E+03  0.80270528240E+02 0.  0.
         13    1    3    3    0    0 -0.23459498751E+02 -0.28328670419E+03 -0.58522274291E+03  0.65060538245E+03  0.00000000000E+00 0. -1.
        -13    1    3    3    0    0 -0.71597428871E+02 -0.20423742290E+03 -0.32413666530E+03  0.38974824506E+03  0.00000000000E+00 0.  1.
          4    1    6    6  502    0 -0.71279918926E+02  0.25045952871E+02 -0.48555789977E+03  0.49140065184E+03  0.00000000000E+00 0. -1.
          1    1    5    5  503    0  0.15726093921E+03  0.26630440504E+03 -0.28142751349E+02  0.31054959925E+03  0.00000000000E+00 0. -1.
         -2    1    5    5    0  503  0.85492515012E+02  0.10988514189E+03  0.37688152378E+02  0.14423630390E+03  0.00000000000E+00 0.  1.
         -3    1    6    6    0  502 -0.76416607676E+02  0.86288627284E+02 -0.36697397750E+03  0.38464935369E+03  0.00000000000E+00 0.  1.
<mgrwt>
<rscale>  0 0.15974429E+04</rscale>
<asrwt>0</asrwt>
<pdfrwt beam="1">  1        1 0.31719504E+00 0.15974429E+04</pdfrwt>
<pdfrwt beam="2">  1       -1 0.47603357E-01 0.15974429E+04</pdfrwt>
<totfact> 0.11447683E+01</totfact>
</mgrwt>
</event>
<event>
12    1  0.1960998E-007  0.3334415E+04  0.7818608E-02  0.8154193E-01
         -2   -1    0    0    0  501 -0.00000000000E+00  0.00000000000E+00  0.20978192796E+04  0.20978192796E+04  0.00000000000E+00 0.  1.
          2   -1    0    0  501    0  0.00000000000E+00 -0.00000000000E+00 -0.13249859535E+04  0.13249859535E+04  0.00000000000E+00 0. -1.
         23    2    1    2    0    0  0.14476281945E+04  0.47998082161E+03  0.60896122942E+03  0.16447418490E+04  0.91285225441E+02 0.  0.
        254    2    1    2    0    0 -0.14476281945E+04 -0.47998082161E+03  0.16387209668E+03  0.17780633840E+04  0.89924766059E+03 0.  0.
        -24    2    4    4    0    0 -0.91486210720E+03 -0.28729403911E+03 -0.33504937981E+03  0.10187442571E+04  0.77918125445E+02 0.  0.
         24    2    4    4    0    0 -0.53276608725E+03 -0.19268678250E+03  0.49892147649E+03  0.75931912698E+03  0.81700654897E+02 0.  0.
         11    1    3    3    0    0  0.65399180228E+03  0.20539663620E+03  0.32124520274E+03  0.75702809452E+03  0.00000000000E+00 0.  1.
        -11    1    3    3    0    0  0.79363639218E+03  0.27458418542E+03  0.28771602668E+03  0.88771375447E+03  0.00000000000E+00 0. -1.
          2    1    6    6  502    0 -0.35958140732E+02  0.64227619644E+01  0.41259392866E+02  0.55105147271E+02  0.00000000000E+00 0. -1.
          1    1    5    5  503    0 -0.12223240831E+03 -0.19406972749E+02 -0.23676608797E+02  0.12600783323E+03  0.00000000000E+00 0. -1.
         -4    1    5    5    0  503 -0.79262969890E+03 -0.26788706636E+03 -0.31137277101E+03  0.89273642382E+03  0.00000000000E+00 0.  1.
         -1    1    6    6    0  502 -0.49680794652E+03 -0.19910954447E+03  0.45766208363E+03  0.70421397970E+03  0.00000000000E+00 0.  1.
<mgrwt>
<rscale>  0 0.33344151E+04</rscale>
<asrwt>0</asrwt>
<pdfrwt beam="1">  1        2 0.20384399E+00 0.33344151E+04</pdfrwt>
<pdfrwt beam="2">  1       -2 0.32274143E+00 0.33344151E+04</pdfrwt>
<totfact> 0.30653174E-01</totfact>
</mgrwt>
</event>
<event>
12    1  0.1960998E-007  0.1304915E+04  0.7818608E-02  0.9025677E-01
          2   -1    0    0  501    0  0.00000000000E+00  0.00000000000E+00  0.71663813645E+03  0.71663813645E+03  0.00000000000E+00 0. -1.
         -2   -1    0    0    0  501 -0.00000000000E+00 -0.00000000000E+00 -0.59402454981E+03  0.59402454981E+03  0.00000000000E+00 0.  1.
         23    2    1    2    0    0 -0.16696375245E+03  0.23535111841E+03  0.19398535797E+03  0.35964181955E+03  0.91896004751E+02 0.  0.
        254    2    1    2    0    0  0.16696375245E+03 -0.23535111841E+03 -0.71371771326E+02  0.95102086671E+03  0.90337130550E+03 0.  0.
        -24    2    4    4    0    0 -0.18870029541E+03  0.11096967213E+03 -0.31529504308E+03  0.39197577889E+03  0.79447954195E+02 0.  0.
         24    2    4    4    0    0  0.35566404787E+03 -0.34632079054E+03  0.24392327175E+03  0.55904508782E+03  0.81227106319E+02 0.  0.
         11    1    3    3    0    0 -0.13874763826E+03  0.13075970787E+03  0.15054705979E+03  0.24292679049E+03  0.00000000000E+00 0. -1.
        -11    1    3    3    0    0 -0.28216114194E+02  0.10459141055E+03  0.43438298176E+02  0.11671502906E+03  0.00000000000E+00 0.  1.
          4    1    6    6  502    0  0.19454607680E+03 -0.15612501945E+03  0.85483186983E+02  0.26368650507E+03  0.00000000000E+00 0. -1.
          3    1    5    5  503    0 -0.76697844671E+02  0.23033488020E+01 -0.10924728766E+03  0.13350218970E+03  0.00000000000E+00 0. -1.
         -2    1    5    5    0  503 -0.11200245074E+03  0.10866632333E+03 -0.20604775542E+03  0.25847358920E+03  0.00000000000E+00 0.  1.
         -3    1    6    6    0  502  0.16111797106E+03 -0.19019577109E+03  0.15844008477E+03  0.29535858275E+03  0.00000000000E+00 0.  1.
<mgrwt>
<rscale>  0 0.13049148E+04</rscale>
<asrwt>0</asrwt>
<pdfrwt beam="1">  1        2 0.11025202E+00 0.13049148E+04</pdfrwt>
<pdfrwt beam="2">  1       -2 0.91388392E-01 0.13049148E+04</pdfrwt>
<totfact> 0.39758911E+01</totfact>
</mgrwt>
</event>
<event>
12    1  0.1960998E-007  0.2167938E+04  0.7818608E-02  0.8531893E-01
          1   -1    0    0  501    0  0.00000000000E+00  0.00000000000E+00  0.23308211847E+04  0.23308211847E+04  0.00000000000E+00 0. -1.
         -1   -1    0    0    0  501 -0.00000000000E+00 -0.00000000000E+00 -0.50410929752E+03  0.50410929752E+03  0.00000000000E+00 0.  1.
         23    2    1    2    0    0 -0.71998547609E+03  0.47116651549E+03  0.10749715152E+04  0.13801812570E+04  0.94655019195E+02 0.  0.
        254    2    1    2    0    0  0.71998547609E+03 -0.47116651549E+03  0.75174037193E+03  0.14547492252E+04  0.90044697246E+03 0.  0.
        -24    2    4    4    0    0  0.24266180283E+03 -0.45673610407E+03  0.81332423568E+03  0.96721970608E+03  0.80777646547E+02 0.  0.
         24    2    4    4    0    0  0.47732367326E+03 -0.14430411418E+02 -0.61583863751E+02  0.48752951907E+03  0.76461322661E+02 0.  0.
         11    1    3    3    0    0 -0.27505748733E+03  0.12771843521E+03  0.35912693113E+03  0.47004337320E+03  0.00000000000E+00 0. -1.
        -11    1    3    3    0    0 -0.44492798876E+03  0.34344808028E+03  0.71584458409E+03  0.91013788384E+03  0.00000000000E+00 0.  1.
          4    1    6    6  502    0  0.28298477659E+03 -0.37735919641E+02 -0.60327837474E+02  0.29179415928E+03  0.00000000000E+00 0. -1.
          1    1    5    5  503    0 -0.11529703177E+01  0.12829995309E+01  0.14950477017E+02  0.15049657518E+02  0.00000000000E+00 0. -1.
         -2    1    5    5    0  503  0.24381477314E+03 -0.45801910360E+03  0.79837375866E+03  0.95217004857E+03  0.00000000000E+00 0.  1.
         -3    1    6    6    0  502  0.19433889667E+03  0.23305508222E+02 -0.12560262771E+01  0.19573535980E+03  0.00000000000E+00 0.  1.
<mgrwt>
<rscale>  0 0.21679378E+04</rscale>
<asrwt>0</asrwt>
<pdfrwt beam="1">  1        1 0.35858787E+00 0.21679378E+04</pdfrwt>
<pdfrwt beam="2">  1       -1 0.77555278E-01 0.21679378E+04</pdfrwt>
<totfact> 0.27002831E+00</totfact>
</mgrwt>
</event>
<event>
12    1  0.1960998E-007  0.2093508E+04  0.7818608E-02  0.8564108E-01
          2   -1    0    0  501    0  0.00000000000E+00  0.00000000000E+00  0.16103795402E+04  0.16103795402E+04  0.00000000000E+00 0. -1.
         -2   -1    0    0    0  501 -0.00000000000E+00 -0.00000000000E+00 -0.68039514789E+03  0.68039514789E+03  0.00000000000E+00 0.  1.
         23    2    1    2    0    0  0.35135260467E+03  0.77164806041E+03  0.46789455424E+03  0.97275970568E+03  0.91906197629E+02 0.  0.
        254    2    1    2    0    0 -0.35135260467E+03 -0.77164806041E+03  0.46208983806E+03  0.13180149824E+04  0.89707697186E+03 0.  0.
        -24    2    4    4    0    0 -0.16482348932E+03 -0.94739111611E+03  0.33784332611E+03  0.10222967749E+04  0.78967546967E+02 0.  0.
         24    2    4    4    0    0 -0.18652911535E+03  0.17574305571E+03  0.12424651195E+03  0.29571820748E+03  0.79582221652E+02 0.  0.
         13    1    3    3    0    0  0.16397264285E+03  0.39857464199E+03  0.28678666553E+03  0.51768268695E+03  0.00000000000E+00 0. -1.
        -13    1    3    3    0    0  0.18737996183E+03  0.37307341841E+03  0.18110788871E+03  0.45507701873E+03  0.00000000000E+00 0.  1.
          4    1    6    6  502    0 -0.52290273101E+02  0.49305568247E+02 -0.25643548979E+01  0.71915837179E+02  0.00000000000E+00 0. -1.
          3    1    5    5  503    0 -0.78721480297E+01 -0.15947227812E+02  0.17311791512E+02  0.24819003099E+02  0.00000000000E+00 0. -1.
         -4    1    5    5    0  503 -0.15695134129E+03 -0.93144388830E+03  0.32053153460E+03  0.99747777181E+03  0.00000000000E+00 0.  1.
         -3    1    6    6    0  502 -0.13423884225E+03  0.12643748746E+03  0.12681086684E+03  0.22380237030E+03  0.00000000000E+00 0.  1.
<mgrwt>
<rscale>  0 0.20935085E+04</rscale>
<asrwt>0</asrwt>
<pdfrwt beam="1">  1        2 0.24775070E+00 0.20935085E+04</pdfrwt>
<pdfrwt beam="2">  1       -2 0.10467618E+00 0.20935085E+04</pdfrwt>
<totfact> 0.75142619E+00</totfact>
</mgrwt>
</event>
<event>
12    1  0.1960998E-007  0.1651561E+04  0.7818608E-02  0.8789484E-01
          1   -1    0    0  501    0  0.00000000000E+00  0.00000000000E+00  0.47507556723E+03  0.47507556723E+03  0.00000000000E+00 0. -1.
         -1   -1    0    0    0  501 -0.00000000000E+00 -0.00000000000E+00 -0.14353782113E+04  0.14353782113E+04  0.00000000000E+00 0.  1.
         23    2    1    2    0    0 -0.45750220520E+03  0.15457573445E+03 -0.69895324142E+03  0.85445010799E+03  0.91364259485E+02 0.  0.
        254    2    1    2    0    0  0.45750220520E+03 -0.15457573445E+03 -0.26134940265E+03  0.10560036705E+04  0.90201902224E+03 0.  0.
        -24    2    4    4    0    0  0.55513169459E+03 -0.48857961785E+02 -0.50881800987E+03  0.75917547168E+03  0.83026085448E+02 0.  0.
         24    2    4    4    0    0 -0.97629489394E+02 -0.10571777267E+03  0.24746860722E+03  0.29682819886E+03  0.78476132808E+02 0.  0.
         11    1    3    3    0    0 -0.29643141559E+03  0.78167747627E+02 -0.50701696237E+03  0.59249302194E+03  0.00000000000E+00 0.  1.
        -11    1    3    3    0    0 -0.16107078961E+03  0.76407986826E+02 -0.19193627904E+03  0.26195708605E+03  0.00000000000E+00 0. -1.
          4    1    6    6  502    0 -0.48431920009E+02 -0.94798536551E+01  0.42590248934E+02  0.65187788775E+02  0.00000000000E+00 0. -1.
          1    1    5    5  503    0  0.85975999304E+02  0.16540095726E+02 -0.10504413128E+03  0.13674690761E+03  0.00000000000E+00 0. -1.
         -2    1    5    5    0  503  0.46915569529E+03 -0.65398057511E+02 -0.40377387858E+03  0.62242856407E+03  0.00000000000E+00 0.  1.
         -3    1    6    6    0  502 -0.49197569384E+02 -0.96237919013E+02  0.20487835829E+03  0.23164041008E+03  0.00000000000E+00 0.  1.
<mgrwt>
<rscale>  0 0.16515606E+04</rscale>
<asrwt>0</asrwt>
<pdfrwt beam="1">  1        1 0.73088550E-01 0.16515606E+04</pdfrwt>
<pdfrwt beam="2">  1       -1 0.22082741E+00 0.16515606E+04</pdfrwt>
<totfact> 0.49364093E+00</totfact>
</mgrwt>
</event>
<event>
12    1  0.1960998E-007  0.3687268E+04  0.7818608E-02  0.8070789E-01
         -2   -1    0    0    0  501 -0.00000000000E+00  0.00000000000E+00  0.10654972437E+04  0.10654972437E+04  0.00000000000E+00 0.  1.
          2   -1    0    0  501    0  0.00000000000E+00 -0.00000000000E+00 -0.31900466519E+04  0.31900466519E+04  0.00000000000E+00 0. -1.
         23    2    1    2    0    0  0.51776374415E+03  0.16520603972E+04 -0.12180770437E+04  0.21188458920E+04  0.91724473027E+02 0.  0.
        254    2    1    2    0    0 -0.51776374415E+03 -0.16520603972E+04 -0.90647236448E+03  0.21366980036E+04  0.86394638731E+03 0.  0.
        -24    2    4    4    0    0 -0.46013198459E+03 -0.10184293594E+04 -0.98322515166E+03  0.14906405977E+04  0.79736373195E+02 0.  0.
         24    2    4    4    0    0 -0.57631759561E+02 -0.63363103778E+03  0.76752787178E+02  0.64605740590E+03  0.81789177941E+02 0.  0.
         13    1    3    3    0    0  0.27740599820E+03  0.90611633300E+03 -0.72181116276E+03  0.11912230066E+04  0.00000000000E+00 0.  1.
        -13    1    3    3    0    0  0.24035774595E+03  0.74594406421E+03 -0.49626588092E+03  0.92762288541E+03  0.00000000000E+00 0. -1.
          4    1    6    6  502    0 -0.36975776739E+02 -0.42743947763E+03  0.12939684070E+02  0.42923088254E+03  0.00000000000E+00 0. -1.
          1    1    5    5  503    0 -0.20203865755E+03 -0.50485815690E+03 -0.52061710665E+03  0.75282371740E+03  0.00000000000E+00 0. -1.
         -2    1    5    5    0  503 -0.25809332704E+03 -0.51357120254E+03 -0.46260804500E+03  0.73781688029E+03  0.00000000000E+00 0.  1.
         -3    1    6    6    0  502 -0.20655982822E+02 -0.20619156015E+03  0.63813103108E+02  0.21682652336E+03  0.00000000000E+00 0.  1.
<mgrwt>
<rscale>  0 0.36872678E+04</rscale>
<asrwt>0</asrwt>
<pdfrwt beam="1">  1        2 0.49077641E+00 0.36872678E+04</pdfrwt>
<pdfrwt beam="2">  1       -2 0.16392265E+00 0.36872678E+04</pdfrwt>
<totfact> 0.25084363E-01</totfact>
</mgrwt>
</event>
<event>
12    1  0.1960998E-007  0.4048326E+04  0.7818608E-02  0.7994868E-01
         -1   -1    0    0    0  501 -0.00000000000E+00  0.00000000000E+00  0.16234975402E+04  0.16234975402E+04  0.00000000000E+00 0.  1.
          1   -1    0    0  501    0  0.00000000000E+00 -0.00000000000E+00 -0.25237090954E+04  0.25237090954E+04  0.00000000000E+00 0. -1.
         23    2    1    2    0    0 -0.16718650273E+04  0.34291848223E+03  0.46807955657E+03  0.17722660593E+04  0.95408377590E+02 0.  0.
        254    2    1    2    0    0  0.16718650273E+04 -0.34291848223E+03 -0.13682911118E+04  0.23749405764E+04  0.92487643492E+03 0.  0.
        -24    2    4    4    0    0  0.11537588031E+04 -0.24027052706E+03 -0.14086684368E+04  0.18384333367E+04  0.81246949745E+02 0.  0.
         24    2    4    4    0    0  0.51810622426E+03 -0.10264795517E+03  0.40377324981E+02  0.53650723974E+03  0.85082475305E+02 0.  0.
         13    1    3    3    0    0 -0.75502800645E+03  0.15897395795E+03  0.26074127051E+03  0.81444829177E+03  0.00000000000E+00 0.  1.
        -13    1    3    3    0    0 -0.91683702089E+03  0.18394452428E+03  0.20733828606E+03  0.95781776751E+03  0.00000000000E+00 0. -1.
          2    1    6    6  502    0  0.41765911164E+03 -0.47470925804E+02  0.34180212542E+02  0.42173559165E+03  0.00000000000E+00 0. -1.
          1    1    5    5  503    0  0.56747383338E+03 -0.78806777851E+02 -0.66347232312E+03  0.87660286524E+03  0.00000000000E+00 0. -1.
         -2    1    5    5    0  503  0.58628496970E+03 -0.16146374921E+03 -0.74519611364E+03  0.96183047143E+03  0.00000000000E+00 0.  1.
         -1    1    6    6    0  502  0.10044711262E+03 -0.55177029368E+02  0.61971124392E+01  0.11477164809E+03  0.00000000000E+00 0.  1.
<mgrwt>
<rscale>  0 0.40483258E+04</rscale>
<asrwt>0</asrwt>
<pdfrwt beam="1">  1        1 0.38826293E+00 0.40483258E+04</pdfrwt>
<pdfrwt beam="2">  1       -1 0.24976886E+00 0.40483258E+04</pdfrwt>
<totfact> 0.71137411E-02</totfact>
</mgrwt>
</event>
<event>
12    1  0.1960998E-007  0.1816740E+04  0.7818608E-02  0.8697448E-01
          1   -1    0    0  501    0  0.00000000000E+00  0.00000000000E+00  0.80067882193E+03  0.80067882193E+03  0.00000000000E+00 0. -1.
         -1   -1    0    0    0  501 -0.00000000000E+00 -0.00000000000E+00 -0.10305455295E+04  0.10305455295E+04  0.00000000000E+00 0.  1.
         23    2    1    2    0    0 -0.30515532000E+03  0.38574305650E+03  0.39039922298E+03  0.63410846001E+03  0.88116461570E+02 0.  0.
        254    2    1    2    0    0  0.30515532000E+03 -0.38574305650E+03 -0.62026593057E+03  0.11971158914E+04  0.89801957547E+03 0.  0.
        -24    2    4    4    0    0  0.24012292978E+03 -0.61273880470E+02  0.18731386197E+03  0.32065372682E+03  0.79491004544E+02 0.  0.
         24    2    4    4    0    0  0.65032390213E+02 -0.32446917603E+03 -0.80757979254E+03  0.87646216460E+03  0.80568894088E+02 0.  0.
         13    1    3    3    0    0 -0.17737845724E+03  0.29005120141E+03  0.27006511670E+03  0.43419809280E+03  0.00000000000E+00 0. -1.
        -13    1    3    3    0    0 -0.12777686276E+03  0.95691855091E+02  0.12033410628E+03  0.19991036722E+03  0.00000000000E+00 0.  1.
          4    1    6    6  502    0  0.10012202253E+01 -0.11553051560E+03 -0.20265475670E+03  0.23327505844E+03  0.00000000000E+00 0. -1.
          1    1    5    5  503    0  0.42123264026E+02  0.76207156080E+01  0.65325642421E+02  0.78101755654E+02  0.00000000000E+00 0. -1.
         -2    1    5    5    0  503  0.19799966576E+03 -0.68894596078E+02  0.12198821955E+03  0.24255197117E+03  0.00000000000E+00 0.  1.
         -3    1    6    6    0  502  0.64031169988E+02 -0.20893866043E+03 -0.60492503584E+03  0.64318710617E+03  0.00000000000E+00 0.  1.
<mgrwt>
<rscale>  0 0.18167399E+04</rscale>
<asrwt>0</asrwt>
<pdfrwt beam="1">  1        1 0.12318136E+00 0.18167399E+04</pdfrwt>
<pdfrwt beam="2">  1       -1 0.15854547E+00 0.18167399E+04</pdfrwt>
<totfact> 0.62369118E+00</totfact>
</mgrwt>
</event>
<event>
12    1  0.1960998E-007  0.2463911E+04  0.7818608E-02  0.8415956E-01
         -2   -1    0    0    0  501 -0.00000000000E+00  0.00000000000E+00  0.66544416094E+03  0.66544416094E+03  0.00000000000E+00 0.  1.
          2   -1    0    0  501    0  0.00000000000E+00 -0.00000000000E+00 -0.22807537099E+04  0.22807537099E+04  0.00000000000E+00 0. -1.
         23    2    1    2    0    0  0.98483943550E+03  0.40599651798E+03 -0.74030824833E+03  0.13003623515E+04  0.90244425253E+02 0.  0.
        254    2    1    2    0    0 -0.98483943550E+03 -0.40599651798E+03 -0.87500130058E+03  0.16458355193E+04  0.89911367149E+03 0.  0.
        -24    2    4    4    0    0 -0.59893809018E+03 -0.26622295785E+03 -0.10104720728E+04  0.12072076808E+04  0.81823441217E+02 0.  0.
         24    2    4    4    0    0 -0.38590134532E+03 -0.13977356013E+03  0.13547077225E+03  0.43862783848E+03  0.74736564806E+02 0.  0.
         11    1    3    3    0    0  0.78882985564E+03  0.30411231020E+03 -0.62352266682E+03  0.10504843428E+04  0.00000000000E+00 0.  1.
        -11    1    3    3    0    0  0.19600957985E+03  0.10188420779E+03 -0.11678558151E+03  0.24987800872E+03  0.00000000000E+00 0. -1.
          4    1    6    6  502    0 -0.37198773149E+01  0.67540921854E+01  0.88747183011E+00  0.77616270676E+01  0.00000000000E+00 0. -1.
          1    1    5    5  503    0 -0.15688691467E+03 -0.69241800449E+02 -0.33394352323E+03  0.37540139535E+03  0.00000000000E+00 0. -1.
         -2    1    5    5    0  503 -0.44205117550E+03 -0.19698115740E+03 -0.67652854961E+03  0.83180628548E+03  0.00000000000E+00 0.  1.
         -3    1    6    6    0  502 -0.38218146801E+03 -0.14652765232E+03  0.13458330042E+03  0.43086621141E+03  0.00000000000E+00 0.  1.
<mgrwt>
<rscale>  0 0.24639109E+04</rscale>
<asrwt>0</asrwt>
<pdfrwt beam="1">  1        2 0.35088518E+00 0.24639109E+04</pdfrwt>
<pdfrwt beam="2">  1       -2 0.10237603E+00 0.24639109E+04</pdfrwt>
<totfact> 0.32476390E+00</totfact>
</mgrwt>
</event>
<event>
12    1  0.1960998E-007  0.2030532E+04  0.7818608E-02  0.8592478E-01
          1   -1    0    0  501    0  0.00000000000E+00  0.00000000000E+00  0.17793070944E+04  0.17793070944E+04  0.00000000000E+00 0. -1.
         -1   -1    0    0    0  501 -0.00000000000E+00 -0.00000000000E+00 -0.57930703823E+03  0.57930703823E+03  0.00000000000E+00 0.  1.
         23    2    1    2    0    0  0.73250411199E+03  0.92030085647E+02  0.87066706488E+03  0.11451757070E+04  0.91293215711E+02 0.  0.
        254    2    1    2    0    0 -0.73250411199E+03 -0.92030085647E+02  0.32933299125E+03  0.12134384256E+04  0.90495347001E+03 0.  0.
        -24    2    4    4    0    0 -0.61220407843E+03 -0.36431308952E+03 -0.56621829394E+02  0.71942011806E+03  0.82712839731E+02 0.  0.
         24    2    4    4    0    0 -0.12030003356E+03  0.27228300387E+03  0.38595482064E+03  0.49401830756E+03  0.80516037882E+02 0.  0.
         13    1    3    3    0    0  0.14058607101E+02  0.81237215401E+01  0.47956462040E+01  0.16930372347E+02  0.00000000000E+00 0.  1.
        -13    1    3    3    0    0  0.71844550489E+03  0.83906364107E+02  0.86587141868E+03  0.11282453346E+04  0.00000000000E+00 0. -1.
          2    1    6    6  502    0 -0.64571630234E+02  0.22374796468E+03  0.27047424286E+03  0.35691590492E+03  0.00000000000E+00 0. -1.
          1    1    5    5  503    0 -0.22223158460E+02  0.53484008087E+00  0.56933412850E+01  0.22947090466E+02  0.00000000000E+00 0. -1.
         -2    1    5    5    0  503 -0.58998091997E+03 -0.36484792960E+03 -0.62315170679E+02  0.69647302759E+03  0.00000000000E+00 0.  1.
         -1    1    6    6    0  502 -0.55728403322E+02  0.48535039185E+02  0.11548057777E+03  0.13710240264E+03  0.00000000000E+00 0.  1.
<mgrwt>
<rscale>  0 0.20305321E+04</rscale>
<asrwt>0</asrwt>
<pdfrwt beam="1">  1        1 0.27373955E+00 0.20305321E+04</pdfrwt>
<pdfrwt beam="2">  1       -1 0.89124160E-01 0.20305321E+04</pdfrwt>
<totfact> 0.48052168E+00</totfact>
</mgrwt>
</event>
<event>
12    1  0.1960998E-007  0.1212692E+04  0.7818608E-02  0.9101819E-01
          1   -1    0    0  501    0  0.00000000000E+00  0.00000000000E+00  0.53309767832E+03  0.53309767832E+03  0.00000000000E+00 0. -1.
         -1   -1    0    0    0  501 -0.00000000000E+00 -0.00000000000E+00 -0.68965886213E+03  0.68965886213E+03  0.00000000000E+00 0.  1.
         23    2    1    2    0    0  0.26008900818E+03 -0.75039989899E+01 -0.45507806799E+02  0.27860900079E+03  0.88596911138E+02 0.  0.
        254    2    1    2    0    0 -0.26008900818E+03  0.75039989899E+01 -0.11105337702E+03  0.94414753966E+03  0.90076585299E+03 0.  0.
        -24    2    4    4    0    0 -0.24481731304E+03 -0.31556819705E+03  0.22911538653E+03  0.46732799335E+03  0.79892360506E+02 0.  0.
         24    2    4    4    0    0 -0.15271695140E+02  0.32307219604E+03 -0.34016876354E+03  0.47681954631E+03  0.83864316183E+02 0.  0.
         11    1    3    3    0    0  0.22163898051E+03  0.25492282046E+02 -0.27275608166E+02  0.22476132436E+03  0.00000000000E+00 0.  1.
        -11    1    3    3    0    0  0.38450027669E+02 -0.32996281036E+02 -0.18232198633E+02  0.53847676430E+02  0.00000000000E+00 0. -1.
          4    1    6    6  502    0  0.17524694966E+02  0.20520625566E+03 -0.16896372979E+03  0.26639343888E+03  0.00000000000E+00 0. -1.
          1    1    5    5  503    0 -0.11191216715E+02 -0.41527238731E+01  0.25118735421E+02  0.27810776981E+02  0.00000000000E+00 0. -1.
         -2    1    5    5    0  503 -0.23362609632E+03 -0.31141547318E+03  0.20399665110E+03  0.43951721636E+03  0.00000000000E+00 0.  1.
         -3    1    6    6    0  502 -0.32796390105E+02  0.11786594038E+03 -0.17120503375E+03  0.21042610743E+03  0.00000000000E+00 0.  1.
<mgrwt>
<rscale>  0 0.12126921E+04</rscale>
<asrwt>0</asrwt>
<pdfrwt beam="1">  1        1 0.82015027E-01 0.12126921E+04</pdfrwt>
<pdfrwt beam="2">  1       -1 0.10610136E+00 0.12126921E+04</pdfrwt>
<totfact> 0.33320257E+01</totfact>
</mgrwt>
</event>
<event>
12    1  0.1960998E-007  0.3398275E+04  0.7818608E-02  0.8138330E-01
         -1   -1    0    0    0  501 -0.00000000000E+00  0.00000000000E+00  0.57828669896E+03  0.57828669896E+03  0.00000000000E+00 0.  1.
          1   -1    0    0  501    0  0.00000000000E+00 -0.00000000000E+00 -0.49924503615E+04  0.49924503615E+04  0.00000000000E+00 0. -1.
         23    2    1    2    0    0  0.79663612878E+03 -0.10348466763E+04 -0.35066273784E+04  0.37431672061E+04  0.96583626912E+02 0.  0.
        254    2    1    2    0    0 -0.79663612878E+03  0.10348466763E+04 -0.90753628416E+03  0.18275698544E+04  0.90047359788E+03 0.  0.
        -24    2    4    4    0    0 -0.24889356872E+03  0.99773598321E+03 -0.60460616246E+03  0.11955611543E+04  0.79954745477E+02 0.  0.
         24    2    4    4    0    0 -0.54774256006E+03  0.37110693052E+02 -0.30293012171E+03  0.63200870004E+03  0.79178422860E+02 0.  0.
         13    1    3    3    0    0  0.56763079208E+03 -0.79914685962E+03 -0.26773444877E+04  0.28511425649E+04  0.00000000000E+00 0. -1.
        -13    1    3    3    0    0  0.22900533670E+03 -0.23569981664E+03 -0.82928289064E+03  0.89202464120E+03  0.00000000000E+00 0.  1.
          2    1    6    6  502    0 -0.19930478891E+03 -0.22950927085E+02 -0.97096465466E+02  0.22288308043E+03  0.00000000000E+00 0. -1.
          1    1    5    5  503    0 -0.14330014898E+03  0.43161606520E+03 -0.24421103880E+03  0.51620382787E+03  0.00000000000E+00 0. -1.
         -2    1    5    5    0  503 -0.10559341973E+03  0.56611991801E+03 -0.36039512366E+03  0.67935732646E+03  0.00000000000E+00 0.  1.
         -3    1    6    6    0  502 -0.34843777116E+03  0.60061620137E+02 -0.20583365624E+03  0.40912561961E+03  0.00000000000E+00 0.  1.
<mgrwt>
<rscale>  0 0.33982746E+04</rscale>
<asrwt>0</asrwt>
<pdfrwt beam="1">  1        1 0.76806931E+00 0.33982746E+04</pdfrwt>
<pdfrwt beam="2">  1       -1 0.88967181E-01 0.33982746E+04</pdfrwt>
<totfact> 0.89686686E-03</totfact>
</mgrwt>
</event>
<event>
12    1  0.1960998E-007  0.1210904E+04  0.7818608E-02  0.9103365E-01
          1   -1    0    0  501    0  0.00000000000E+00  0.00000000000E+00  0.18554255047E+04  0.18554255047E+04  0.00000000000E+00 0. -1.
         -1   -1    0    0    0  501 -0.00000000000E+00 -0.00000000000E+00 -0.19756773686E+03  0.19756773686E+03  0.00000000000E+00 0.  1.
         23    2    1    2    0    0 -0.18335304437E+03  0.18481228387E+03  0.36195414584E+03  0.45375426905E+03  0.84310223803E+02 0.  0.
        254    2    1    2    0    0  0.18335304437E+03 -0.18481228387E+03  0.12959036220E+04  0.15992389725E+04  0.90023617710E+03 0.  0.
        -24    2    4    4    0    0  0.37535146376E+02 -0.18543579125E+03  0.13921017213E+04  0.14070228438E+04  0.77270697326E+02 0.  0.
         24    2    4    4    0    0  0.14581789799E+03  0.62350737912E+00 -0.96198099324E+02  0.19221612869E+03  0.80185520368E+02 0.  0.
         11    1    3    3    0    0 -0.37157414352E+02  0.24476871991E+02  0.12391953323E+03  0.13166564251E+03  0.00000000000E+00 0. -1.
        -11    1    3    3    0    0 -0.14619563002E+03  0.16033541188E+03  0.23803461262E+03  0.32208862653E+03  0.00000000000E+00 0.  1.
          4    1    6    6  502    0  0.47475026133E+02 -0.36687460429E+02 -0.23908263647E+02  0.64586786030E+02  0.00000000000E+00 0. -1.
          1    1    5    5  503    0  0.47748144821E+01 -0.14040422349E+03  0.11527230730E+04  0.11612521810E+04  0.00000000000E+00 0. -1.
         -2    1    5    5    0  503  0.32760331894E+02 -0.45031567757E+02  0.23937864828E+03  0.24577066280E+03  0.00000000000E+00 0.  1.
         -3    1    6    6    0  502  0.98342871860E+02  0.37310967808E+02 -0.72289835678E+02  0.12762934266E+03  0.00000000000E+00 0.  1.
<mgrwt>
<rscale>  0 0.12109042E+04</rscale>
<asrwt>0</asrwt>
<pdfrwt beam="1">  1        1 0.28545007E+00 0.12109042E+04</pdfrwt>
<pdfrwt beam="2">  1       -1 0.30395038E-01 0.12109042E+04</pdfrwt>
<totfact> 0.36874840E+01</totfact>
</mgrwt>
</event>
<event>
12    1  0.1960998E-007  0.1553255E+04  0.7818608E-02  0.8849791E-01
         -2   -1    0    0    0  501 -0.00000000000E+00  0.00000000000E+00  0.27097305743E+03  0.27097305743E+03  0.00000000000E+00 0.  1.
          2   -1    0    0  501    0  0.00000000000E+00 -0.00000000000E+00 -0.22258691612E+04  0.22258691612E+04  0.00000000000E+00 0. -1.
         23    2    1    2    0    0 -0.34102853230E+03 -0.37460725426E+03 -0.56119200649E+03  0.76142426280E+03  0.90550455775E+02 0.  0.
        254    2    1    2    0    0  0.34102853230E+03  0.37460725426E+03 -0.13937040973E+04  0.17354179558E+04  0.90146176618E+03 0.  0.
        -24    2    4    4    0    0  0.18415170377E+03  0.34145720361E+03 -0.73179918468E+02  0.40276063542E+03  0.79724256546E+02 0.  0.
         24    2    4    4    0    0  0.15687682853E+03  0.33150050654E+02 -0.13205241788E+04  0.13326573204E+04  0.80511872607E+02 0.  0.
         11    1    3    3    0    0 -0.25074902358E+03 -0.24812890186E+03 -0.44239093096E+03  0.56582043138E+03  0.00000000000E+00 0. -1.
        -11    1    3    3    0    0 -0.90279508719E+02 -0.12647835240E+03 -0.11880107553E+03  0.19560383142E+03  0.00000000000E+00 0.  1.
          2    1    6    6  502    0  0.15097850142E+03  0.49666215046E+02 -0.10980766565E+04  0.11095195286E+04  0.00000000000E+00 0. -1.
          1    1    5    5  503    0  0.50405846100E+02  0.61404372550E+02  0.13385922065E+02  0.80563200028E+02  0.00000000000E+00 0. -1.
         -2    1    5    5    0  503  0.13374585767E+03  0.28005283106E+03 -0.86565840532E+02  0.32219743540E+03  0.00000000000E+00 0.  1.
         -1    1    6    6    0  502  0.58983271071E+01 -0.16516164392E+02 -0.22244752228E+03  0.22313779177E+03  0.00000000000E+00 0.  1.
<mgrwt>
<rscale>  0 0.15532554E+04</rscale>
<asrwt>0</asrwt>
<pdfrwt beam="1">  1        2 0.34244142E+00 0.15532554E+04</pdfrwt>
<pdfrwt beam="2">  1       -2 0.41688161E-01 0.15532554E+04</pdfrwt>
<totfact> 0.26225834E+01</totfact>
</mgrwt>
</event>
<event>
12    1  0.1960998E-007  0.2735147E+04  0.7818608E-02  0.8323690E-01
         -3   -1    0    0    0  501 -0.00000000000E+00  0.00000000000E+00  0.18083979800E+04  0.18083979800E+04  0.00000000000E+00 0.  1.
          3   -1    0    0  501    0  0.00000000000E+00 -0.00000000000E+00 -0.10342064452E+04  0.10342064452E+04  0.00000000000E+00 0. -1.
         23    2    1    2    0    0 -0.11111902733E+04  0.21349887776E+03  0.81386271967E+03  0.13967544849E+04  0.90691621325E+02 0.  0.
        254    2    1    2    0    0  0.11111902733E+04 -0.21349887776E+03 -0.39671184816E+02  0.14458499403E+04  0.89921224007E+03 0.  0.
        -24    2    4    4    0    0  0.29752684830E+03 -0.49221490082E+03 -0.30619180489E+02  0.58142206837E+03  0.79475488849E+02 0.  0.
         24    2    4    4    0    0  0.81366342503E+03  0.27871602306E+03 -0.90520043270E+01  0.86442787195E+03  0.86155767573E+02 0.  0.
         11    1    3    3    0    0 -0.37436643549E+03  0.31819952717E+02  0.24944508551E+03  0.45098291331E+03  0.00000000000E+00 0. -1.
        -11    1    3    3    0    0 -0.73682383784E+03  0.18167892504E+03  0.56441763416E+03  0.94577157155E+03  0.00000000000E+00 0.  1.
          4    1    6    6  502    0  0.72567521039E+02  0.50885889520E+02 -0.91544354971E+01  0.89102315073E+02  0.00000000000E+00 0. -1.
          1    1    5    5  503    0  0.12771834643E+03 -0.14068168976E+03 -0.17341569362E+02  0.19079843782E+03  0.00000000000E+00 0. -1.
         -2    1    5    5    0  503  0.16980850188E+03 -0.35153321106E+03 -0.13277611127E+02  0.39062363055E+03  0.00000000000E+00 0.  1.
         -1    1    6    6    0  502  0.74109590399E+03  0.22783013354E+03  0.10243117016E+00  0.77532555688E+03  0.00000000000E+00 0.  1.
<mgrwt>
<rscale>  0 0.27351467E+04</rscale>
<asrwt>0</asrwt>
<pdfrwt beam="1">  1        3 0.15910868E+00 0.27351467E+04</pdfrwt>
<pdfrwt beam="2">  1       -3 0.27821507E+00 0.27351467E+04</pdfrwt>
<totfact> 0.31779481E-02</totfact>
</mgrwt>
</event>
<event>
12    1  0.1960998E-007  0.2971644E+04  0.7818608E-02  0.8251875E-01
          2   -1    0    0  501    0  0.00000000000E+00  0.00000000000E+00  0.31117635910E+04  0.31117635910E+04  0.00000000000E+00 0. -1.
         -2   -1    0    0    0  501 -0.00000000000E+00 -0.00000000000E+00 -0.70945862619E+03  0.70945862619E+03  0.00000000000E+00 0.  1.
         23    2    1    2    0    0 -0.64965436212E+03 -0.10845312422E+04  0.49224855085E+03  0.13597610761E+04  0.91557319694E+02 0.  0.
        254    2    1    2    0    0  0.64965436212E+03  0.10845312422E+04  0.19100564140E+04  0.24614611411E+04  0.90123062483E+03 0.  0.
        -24    2    4    4    0    0  0.10224425672E+03 -0.14567342004E+03  0.33653319670E+03  0.38889673210E+03  0.79444587100E+02 0.  0.
         24    2    4    4    0    0  0.54741010540E+03  0.12302046622E+04  0.15735232173E+04  0.20725644090E+04  0.80539305556E+02 0.  0.
         11    1    3    3    0    0 -0.30650804638E+03 -0.49051281739E+03  0.27280148047E+03  0.63950813464E+03  0.00000000000E+00 0. -1.
        -11    1    3    3    0    0 -0.34314631574E+03 -0.59401842479E+03  0.21944707038E+03  0.72025294147E+03  0.00000000000E+00 0.  1.
          4    1    6    6  502    0  0.11724864672E+03  0.32104424687E+03  0.35977100793E+03  0.49623767668E+03  0.00000000000E+00 0. -1.
          3    1    5    5  503    0  0.95284174983E+02 -0.68403704566E+02  0.20544222620E+03  0.23656848713E+03  0.00000000000E+00 0. -1.
         -4    1    5    5    0  503  0.69600817391E+01 -0.77269715474E+02  0.13109097050E+03  0.15232824496E+03  0.00000000000E+00 0.  1.
         -3    1    6    6    0  502  0.43016145867E+03  0.90916041535E+03  0.12137522094E+04  0.15763267323E+04  0.00000000000E+00 0.  1.
<mgrwt>
<rscale>  0 0.29716443E+04</rscale>
<asrwt>0</asrwt>
<pdfrwt beam="1">  1        2 0.47873285E+00 0.29716443E+04</pdfrwt>
<pdfrwt beam="2">  1       -2 0.10914748E+00 0.29716443E+04</pdfrwt>
<totfact> 0.84905109E-01</totfact>
</mgrwt>
</event>
<event>
12    1  0.1960998E-007  0.4092581E+04  0.7818608E-02  0.7986126E-01
          2   -1    0    0  501    0  0.00000000000E+00  0.00000000000E+00  0.17137853704E+04  0.17137853704E+04  0.00000000000E+00 0. -1.
         -2   -1    0    0    0  501 -0.00000000000E+00 -0.00000000000E+00 -0.24433072368E+04  0.24433072368E+04  0.00000000000E+00 0.  1.
         23    2    1    2    0    0  0.66668471114E+03 -0.16113351383E+04 -0.12239649419E+04  0.21324069442E+04  0.90552551204E+02 0.  0.
        254    2    1    2    0    0 -0.66668471114E+03  0.16113351383E+04  0.49444307549E+03  0.20246856630E+04  0.90222427769E+03 0.  0.
        -24    2    4    4    0    0 -0.21892519099E+03  0.15625380958E+03 -0.20402059093E+03  0.34741331153E+03  0.82025089128E+02 0.  0.
         24    2    4    4    0    0 -0.44775952014E+03  0.14550813287E+04  0.69846366642E+03  0.16772723515E+04  0.87411593972E+02 0.  0.
         13    1    3    3    0    0  0.41673917916E+03 -0.11158615357E+04 -0.84377670898E+03  0.14597183443E+04  0.00000000000E+00 0. -1.
        -13    1    3    3    0    0  0.24994553198E+03 -0.49547360263E+03 -0.38018823294E+03  0.67268859982E+03  0.00000000000E+00 0.  1.
          4    1    6    6  502    0 -0.42925540274E+03  0.13107468826E+04  0.63893550518E+03  0.15200513711E+04  0.00000000000E+00 0. -1.
          1    1    5    5  503    0 -0.21848295906E+03  0.15982923348E+03 -0.18458314910E+03  0.32764481715E+03  0.00000000000E+00 0. -1.
         -2    1    5    5    0  503 -0.44223193615E+00 -0.35754239053E+01 -0.19437441829E+02  0.19768494380E+02  0.00000000000E+00 0.  1.
         -3    1    6    6    0  502 -0.18504117401E+02  0.14433444613E+03  0.59528161247E+02  0.15722098041E+03  0.00000000000E+00 0.  1.
<mgrwt>
<rscale>  0 0.40925807E+04</rscale>
<asrwt>0</asrwt>
<pdfrwt beam="1">  1        2 0.26365929E+00 0.40925807E+04</pdfrwt>
<pdfrwt beam="2">  1       -2 0.37589342E+00 0.40925807E+04</pdfrwt>
<totfact> 0.80257073E-02</totfact>
</mgrwt>
</event>
<event>
12    1  0.1960998E-007  0.1717895E+04  0.7818608E-02  0.8751224E-01
         -3   -1    0    0    0  501 -0.00000000000E+00  0.00000000000E+00  0.57252993887E+03  0.57252993887E+03  0.00000000000E+00 0.  1.
          3   -1    0    0  501    0  0.00000000000E+00 -0.00000000000E+00 -0.12886500282E+04  0.12886500282E+04  0.00000000000E+00 0. -1.
         23    2    1    2    0    0  0.20382705193E+03 -0.57501513376E+03 -0.15233657847E+03  0.63563533452E+03  0.92940702572E+02 0.  0.
        254    2    1    2    0    0 -0.20382705193E+03  0.57501513376E+03 -0.56378351083E+03  0.12255446325E+04  0.90106599539E+03 0.  0.
        -24    2    4    4    0    0 -0.40624118338E+03  0.71009596353E+03 -0.36166771275E+03  0.89798936578E+03  0.79455585757E+02 0.  0.
         24    2    4    4    0    0  0.20241413145E+03 -0.13508082977E+03 -0.20211579808E+03  0.32755526673E+03  0.84990268544E+02 0.  0.
         11    1    3    3    0    0  0.19719785367E+03 -0.55418958655E+03 -0.16426867661E+03  0.61073504030E+03  0.00000000000E+00 0. -1.
        -11    1    3    3    0    0  0.66291982563E+01 -0.20825547214E+02  0.11932098140E+02  0.24900294221E+02  0.00000000000E+00 0.  1.
          4    1    6    6  502    0  0.49518625285E+02 -0.82233178852E+02 -0.75219356762E+02  0.12195221025E+03  0.00000000000E+00 0. -1.
          1    1    5    5  503    0 -0.19624221829E+03  0.42187510120E+03 -0.20929085243E+03  0.51018846534E+03  0.00000000000E+00 0. -1.
         -2    1    5    5    0  503 -0.20999896510E+03  0.28822086233E+03 -0.15237686032E+03  0.38780090045E+03  0.00000000000E+00 0.  1.
         -3    1    6    6    0  502  0.15289550617E+03 -0.52847650920E+02 -0.12689644131E+03  0.20560305648E+03  0.00000000000E+00 0.  1.
<mgrwt>
<rscale>  0 0.17178949E+04</rscale>
<asrwt>0</asrwt>
<pdfrwt beam="1">  1        3 0.19825385E+00 0.17178949E+04</pdfrwt>
<pdfrwt beam="2">  1       -3 0.88081530E-01 0.17178949E+04</pdfrwt>
<totfact> 0.43993168E-01</totfact>
</mgrwt>
</event>
<event>
12    1  0.1960998E-007  0.1386363E+04  0.7818608E-02  0.8963749E-01
          2   -1    0    0  501    0  0.00000000000E+00  0.00000000000E+00  0.92092148420E+03  0.92092148420E+03  0.00000000000E+00 0. -1.
         -2   -1    0    0    0  501 -0.00000000000E+00 -0.00000000000E+00 -0.52176092114E+03  0.52176092114E+03  0.00000000000E+00 0.  1.
         23    2    1    2    0    0  0.92104828475E+02 -0.35820510207E+03 -0.23821994698E+02  0.38177582471E+03  0.91602938412E+02 0.  0.
        254    2    1    2    0    0 -0.92104828475E+02  0.35820510207E+03  0.42298255776E+03  0.10609065806E+04  0.89989684636E+03 0.  0.
        -24    2    4    4    0    0 -0.42343481205E+03  0.21609824927E+02  0.14945560666E+02  0.43159478317E+03  0.79288476380E+02 0.  0.
         24    2    4    4    0    0  0.33132998357E+03  0.33659527714E+03  0.40803699709E+03  0.62931179747E+03  0.80394084541E+02 0.  0.
         13    1    3    3    0    0  0.94155728705E+02 -0.25098467131E+03 -0.46754129689E+02  0.27211129179E+03  0.00000000000E+00 0.  1.
        -13    1    3    3    0    0 -0.20509002300E+01 -0.10722043076E+03  0.22932134992E+02  0.10966453291E+03  0.00000000000E+00 0. -1.
          2    1    6    6  502    0  0.25368278223E+03  0.27911762473E+03  0.36007324614E+03  0.52145406799E+03  0.00000000000E+00 0. -1.
          3    1    5    5  503    0 -0.41875544388E+03  0.10193912430E+02  0.12822454189E+02  0.41907571269E+03  0.00000000000E+00 0. -1.
         -4    1    5    5    0  503 -0.46793681619E+01  0.11415912497E+02  0.21231064765E+01  0.12519070478E+02  0.00000000000E+00 0.  1.
         -1    1    6    6    0  502  0.77647201344E+02  0.57477652412E+02  0.47963750946E+02  0.10785772948E+03  0.00000000000E+00 0.  1.
<mgrwt>
<rscale>  0 0.13863634E+04</rscale>
<asrwt>0</asrwt>
<pdfrwt beam="1">  1        2 0.14168023E+00 0.13863634E+04</pdfrwt>
<pdfrwt beam="2">  1       -2 0.80270911E-01 0.13863634E+04</pdfrwt>
<totfact> 0.37948883E+01</totfact>
</mgrwt>
</event>
<event>
12    1  0.1960998E-007  0.1252195E+04  0.7818608E-02  0.9068358E-01
          1   -1    0    0  501    0  0.00000000000E+00  0.00000000000E+00  0.24174977907E+04  0.24174977907E+04  0.00000000000E+00 0. -1.
         -1   -1    0    0    0  501 -0.00000000000E+00 -0.00000000000E+00 -0.16215045169E+03  0.16215045169E+03  0.00000000000E+00 0.  1.
         23    2    1    2    0    0 -0.19253124719E+03 -0.18691650264E+03  0.77208471565E+03  0.82386374092E+03  0.10310477858E+03 0.  0.
        254    2    1    2    0    0  0.19253124719E+03  0.18691650264E+03  0.14832626233E+04  0.17557845015E+04  0.90039166235E+03 0.  0.
        -24    2    4    4    0    0 -0.10043998227E+03  0.49229455489E+03  0.79131476743E+03  0.94078882092E+03  0.80389213233E+02 0.  0.
         24    2    4    4    0    0  0.29297122946E+03 -0.30537805225E+03  0.69194785591E+03  0.81499568054E+03  0.79612988273E+02 0.  0.
         11    1    3    3    0    0 -0.91662674551E+02 -0.14068495191E+03  0.55823715369E+03  0.58294341180E+03  0.00000000000E+00 0. -1.
        -11    1    3    3    0    0 -0.10086857264E+03 -0.46231550733E+02  0.21384756196E+03  0.24092032912E+03  0.00000000000E+00 0.  1.
          4    1    6    6  502    0  0.75335133360E+02 -0.12816059179E+03  0.27019359710E+03  0.30839114696E+03  0.00000000000E+00 0. -1.
          1    1    5    5  503    0  0.13602260946E+02  0.74603582877E+02  0.11551121687E+03  0.13817943879E+03  0.00000000000E+00 0. -1.
         -2    1    5    5    0  503 -0.11404224321E+03  0.41769097201E+03  0.67580355056E+03  0.80260938213E+03  0.00000000000E+00 0.  1.
         -3    1    6    6    0  502  0.21763609610E+03 -0.17721746046E+03  0.42175425881E+03  0.50660453358E+03  0.00000000000E+00 0.  1.
<mgrwt>
<rscale>  0 0.12521954E+04</rscale>
<asrwt>0</asrwt>
<pdfrwt beam="1">  1        1 0.37192271E+00 0.12521954E+04</pdfrwt>
<pdfrwt beam="2">  1       -1 0.24946225E-01 0.12521954E+04</pdfrwt>
<totfact> 0.21517572E+01</totfact>
</mgrwt>
</event>
<event>
12    1  0.1960998E-007  0.2744706E+04  0.7818608E-02  0.8320643E-01
          2   -1    0    0  501    0  0.00000000000E+00  0.00000000000E+00  0.18057025559E+04  0.18057025559E+04  0.00000000000E+00 0. -1.
         -2   -1    0    0    0  501 -0.00000000000E+00 -0.00000000000E+00 -0.10430027994E+04  0.10430027994E+04  0.00000000000E+00 0.  1.
         23    2    1    2    0    0  0.74565553516E+03 -0.92316039491E+03  0.64695512502E+03  0.13547466026E+04  0.92520978994E+02 0.  0.
        254    2    1    2    0    0 -0.74565553516E+03  0.92316039491E+03  0.11574463154E+03  0.14939587527E+04  0.90016034308E+03 0.  0.
        -24    2    4    4    0    0 -0.15877925356E+03  0.76261305203E+03  0.32145723512E+03  0.84663372909E+03  0.81635768722E+02 0.  0.
         24    2    4    4    0    0 -0.58687628160E+03  0.16054734289E+03 -0.20571260358E+03  0.64732502364E+03  0.80701869496E+02 0.  0.
         13    1    3    3    0    0  0.53047108265E+03 -0.65665814718E+03  0.50713668078E+03  0.98477769308E+03  0.00000000000E+00 0.  1.
        -13    1    3    3    0    0  0.21518445251E+03 -0.26650224773E+03  0.13981844424E+03  0.36996890950E+03  0.00000000000E+00 0. -1.
          2    1    6    6  502    0 -0.50721116395E+03  0.16650840979E+03 -0.18134971117E+03  0.56380487148E+03  0.00000000000E+00 0. -1.
          3    1    5    5  503    0 -0.58069900415E+02  0.47369747205E+03  0.19261338650E+03  0.51464679638E+03  0.00000000000E+00 0. -1.
         -4    1    5    5    0  503 -0.10070935314E+03  0.28891557997E+03  0.12884384861E+03  0.33198693271E+03  0.00000000000E+00 0.  1.
         -1    1    6    6    0  502 -0.79665117657E+02 -0.59610669053E+01 -0.24362892409E+02  0.83520152158E+02  0.00000000000E+00 0.  1.
<mgrwt>
<rscale>  0 0.27447060E+04</rscale>
<asrwt>0</asrwt>
<pdfrwt beam="1">  1        2 0.27780039E+00 0.27447060E+04</pdfrwt>
<pdfrwt beam="2">  1       -2 0.16046197E+00 0.27447060E+04</pdfrwt>
<totfact> 0.18715714E+00</totfact>
</mgrwt>
</event>
<event>
12    1  0.1960998E-007  0.1141985E+04  0.7818608E-02  0.9165210E-01
          2   -1    0    0  501    0  0.00000000000E+00  0.00000000000E+00  0.40294737312E+04  0.40294737312E+04  0.00000000000E+00 0. -1.
         -2   -1    0    0    0  501 -0.00000000000E+00 -0.00000000000E+00 -0.80911858979E+02  0.80911858979E+02  0.00000000000E+00 0.  1.
         23    2    1    2    0    0 -0.53069877099E+02  0.18539773916E+03  0.56855938954E+03  0.60707037191E+03  0.89921763040E+02 0.  0.
        254    2    1    2    0    0  0.53069877099E+02 -0.18539773916E+03  0.33800024827E+04  0.35033152183E+04  0.90089511161E+03 0.  0.
        -24    2    4    4    0    0 -0.36484367061E+03  0.12072444338E+03  0.12555832310E+04  0.13151566752E+04  0.73908965604E+02 0.  0.
         24    2    4    4    0    0  0.41791354771E+03 -0.30612218254E+03  0.21244192517E+04  0.21881585431E+04  0.80734928145E+02 0.  0.
         13    1    3    3    0    0 -0.71811568130E+02  0.11423758647E+03  0.42245435511E+03  0.44348033737E+03  0.00000000000E+00 0. -1.
        -13    1    3    3    0    0  0.18741691032E+02  0.71160152695E+02  0.14610503443E+03  0.16359003454E+03  0.00000000000E+00 0.  1.
          4    1    6    6  502    0  0.79753861259E+02 -0.33699557396E+02  0.45653808649E+03  0.46467554592E+03  0.00000000000E+00 0. -1.
          1    1    5    5  503    0 -0.14542938252E+03  0.15450353430E+02  0.41284321112E+03  0.43798166136E+03  0.00000000000E+00 0. -1.
         -2    1    5    5    0  503 -0.21941428809E+03  0.10527408995E+03  0.84274001984E+03  0.87717501382E+03  0.00000000000E+00 0.  1.
         -3    1    6    6    0  502  0.33815968645E+03 -0.27242262514E+03  0.16678811652E+04  0.17234829972E+04  0.00000000000E+00 0.  1.
<mgrwt>
<rscale>  0 0.11419846E+04</rscale>
<asrwt>0</asrwt>
<pdfrwt beam="1">  1        2 0.61991888E+00 0.11419846E+04</pdfrwt>
<pdfrwt beam="2">  1       -2 0.12447981E-01 0.11419846E+04</pdfrwt>
<totfact> 0.16111490E+01</totfact>
</mgrwt>
</event>
<event>
12    1  0.2128938E-007  0.2342319E+04  0.7818608E-02  0.8461420E-01
         -4   -1    0    0    0  501 -0.00000000000E+00  0.00000000000E+00  0.14169953499E+04  0.14169953499E+04  0.00000000000E+00 0. -1.
          4   -1    0    0  501    0  0.00000000000E+00 -0.00000000000E+00 -0.96797420721E+03  0.96797420721E+03  0.00000000000E+00 0.  1.
         23    2    1    2    0    0 -0.64966194057E+03 -0.71526241243E+03  0.43454051792E+03  0.10634647117E+04  0.92036816891E+02 0.  0.
        254    2    1    2    0    0  0.64966194057E+03  0.71526241243E+03  0.14480624804E+02  0.13215048454E+04  0.90139026641E+03 0.  0.
        -24    2    4    4    0    0  0.36870261542E+03  0.72337068625E+03  0.33992338504E+03  0.88401432363E+03  0.82016146850E+02 0.  0.
         24    2    4    4    0    0  0.28095932515E+03 -0.81082738218E+01 -0.32544276024E+03  0.43749052181E+03  0.80505155034E+02 0.  0.
         13    1    3    3    0    0 -0.22944314757E+03 -0.31562970311E+03  0.15782459534E+03  0.42092145389E+03  0.00000000000E+00 0.  1.
        -13    1    3    3    0    0 -0.42021879300E+03 -0.39963270932E+03  0.27671592258E+03  0.64254325781E+03  0.00000000000E+00 0. -1.
          4    1    6    6  502    0  0.52680587696E+01  0.13698864578E+02 -0.89336328617E+01  0.17182000176E+02  0.00000000000E+00 0. -1.
          3    1    5    5  503    0  0.45057138568E+02  0.42754286866E+02  0.19768886332E+02  0.65183461462E+02  0.00000000000E+00 0. -1.
         -4    1    5    5    0  503  0.32364547685E+03  0.68061639939E+03  0.32015449871E+03  0.81883086217E+03  0.00000000000E+00 0.  1.
         -3    1    6    6    0  502  0.27569126638E+03 -0.21807138400E+02 -0.31650912738E+03  0.42030852163E+03  0.00000000000E+00 0.  1.
<mgrwt>
<rscale>  0 0.23423193E+04</rscale>
<asrwt>0</asrwt>
<pdfrwt beam="1">  1        4 0.14891911E+00 0.23423193E+04</pdfrwt>
<pdfrwt beam="2">  1       -4 0.21799928E+00 0.23423193E+04</pdfrwt>
<totfact> 0.55045860E-02</totfact>
</mgrwt>
</event>
<event>
12    1  0.1960998E-007  0.3037721E+04  0.7818608E-02  0.8233041E-01
         -2   -1    0    0    0  501 -0.00000000000E+00  0.00000000000E+00  0.10607132012E+04  0.10607132012E+04  0.00000000000E+00 0.  1.
          2   -1    0    0  501    0  0.00000000000E+00 -0.00000000000E+00 -0.21748923179E+04  0.21748923179E+04  0.00000000000E+00 0. -1.
         23    2    1    2    0    0 -0.55948620772E+03  0.12625613774E+04 -0.41207822444E+03  0.14443256980E+04  0.95823852188E+02 0.  0.
        254    2    1    2    0    0  0.55948620772E+03 -0.12625613774E+04 -0.70210089225E+03  0.17912798211E+04  0.89925062487E+03 0.  0.
        -24    2    4    4    0    0  0.13142628350E+03 -0.68310850294E+03 -0.79662971142E+03  0.10603336544E+04  0.76016226917E+02 0.  0.
         24    2    4    4    0    0  0.42805992422E+03 -0.57945287442E+03  0.94528819178E+02  0.73094616669E+03  0.79659704617E+02 0.  0.
         11    1    3    3    0    0 -0.41786817952E+03  0.10240834106E+04 -0.30869171344E+03  0.11483253987E+04  0.00000000000E+00 0.  1.
        -11    1    3    3    0    0 -0.14161802820E+03  0.23847796671E+03 -0.10338651100E+03  0.29600029928E+03  0.00000000000E+00 0. -1.
          4    1    6    6  502    0  0.36304139700E+03 -0.53298903723E+03  0.85239487207E+02  0.65049376624E+03  0.00000000000E+00 0. -1.
          3    1    5    5  503    0 -0.69318235103E+01 -0.78858542954E+01 -0.10871129494E+02  0.15113514866E+02  0.00000000000E+00 0. -1.
         -4    1    5    5    0  503  0.13835810701E+03 -0.67522264864E+03 -0.78575858193E+03  0.10452201395E+04  0.00000000000E+00 0.  1.
         -3    1    6    6    0  502  0.65018527224E+02 -0.46463837194E+02  0.92893319713E+01  0.80452400447E+02  0.00000000000E+00 0.  1.
<mgrwt>
<rscale>  0 0.30377209E+04</rscale>
<asrwt>0</asrwt>
<pdfrwt beam="1">  1        2 0.33459881E+00 0.30377209E+04</pdfrwt>
<pdfrwt beam="2">  1       -2 0.16318665E+00 0.30377209E+04</pdfrwt>
<totfact> 0.10864680E+00</totfact>
</mgrwt>
</event>
<event>
12    1  0.1960998E-007  0.1974850E+04  0.7818608E-02  0.8618470E-01
          1   -1    0    0  501    0  0.00000000000E+00  0.00000000000E+00  0.89645735362E+03  0.89645735362E+03  0.00000000000E+00 0. -1.
         -1   -1    0    0    0  501 -0.00000000000E+00 -0.00000000000E+00 -0.10876240272E+04  0.10876240272E+04  0.00000000000E+00 0.  1.
         23    2    1    2    0    0 -0.13862846525E+03 -0.60447462875E+02  0.69309762355E+03  0.71493144437E+03  0.88718133597E+02 0.  0.
        254    2    1    2    0    0  0.13862846525E+03  0.60447462875E+02 -0.88426429714E+03  0.12691499365E+04  0.89774521265E+03 0.  0.
        -24    2    4    4    0    0  0.35431030183E+03  0.68905959593E+02 -0.95840116101E+03  0.10274252359E+04  0.82377233842E+02 0.  0.
         24    2    4    4    0    0 -0.21568183658E+03 -0.84584967179E+01  0.74136863864E+02  0.24172470057E+03  0.79651462535E+02 0.  0.
         13    1    3    3    0    0 -0.14110199702E+03 -0.72889517647E+02  0.67014285672E+03  0.68870465641E+03  0.00000000000E+00 0. -1.
        -13    1    3    3    0    0  0.24735317763E+01  0.12442054772E+02  0.22954766837E+02  0.26226787964E+02  0.00000000000E+00 0.  1.
          4    1    6    6  502    0 -0.18814895105E+03  0.18360151317E+02  0.74748473590E+02  0.20328417853E+03  0.00000000000E+00 0. -1.
          3    1    5    5  503    0  0.35048253470E+03  0.71862221384E+02 -0.89530202219E+03  0.96414101506E+03  0.00000000000E+00 0. -1.
         -4    1    5    5    0  503  0.38277671312E+01 -0.29562617906E+01 -0.63099138817E+02  0.63284220817E+02  0.00000000000E+00 0.  1.
         -3    1    6    6    0  502 -0.27532885534E+02 -0.26818648035E+02 -0.61160972519E+00  0.38440522040E+02  0.00000000000E+00 0.  1.
<mgrwt>
<rscale>  0 0.19748504E+04</rscale>
<asrwt>0</asrwt>
<pdfrwt beam="1">  1        1 0.13791652E+00 0.19748504E+04</pdfrwt>
<pdfrwt beam="2">  1       -1 0.16732677E+00 0.19748504E+04</pdfrwt>
<totfact> 0.43855805E+00</totfact>
</mgrwt>
</event>
<event>
12    1  0.1960998E-007  0.1989228E+04  0.7818608E-02  0.8611673E-01
         -2   -1    0    0    0  501 -0.00000000000E+00  0.00000000000E+00  0.26219060748E+04  0.26219060748E+04  0.00000000000E+00 0. -1.
          2   -1    0    0  501    0  0.00000000000E+00 -0.00000000000E+00 -0.37730465512E+03  0.37730465512E+03  0.00000000000E+00 0.  1.
         23    2    1    2    0    0  0.24163850422E+03 -0.71584515602E+03  0.56514296728E+03  0.94788807902E+03  0.91004300744E+02 0.  0.
        254    2    1    2    0    0 -0.24163850422E+03  0.71584515602E+03  0.16794584524E+04  0.20513226509E+04  0.90361522265E+03 0.  0.
        -24    2    4    4    0    0 -0.56181144773E+03  0.60550978471E+03  0.11904473510E+04  0.14508739369E+04  0.74806970832E+02 0.  0.
         24    2    4    4    0    0  0.32017294351E+03  0.11033537131E+03  0.48901110135E+03  0.60044871403E+03  0.81988981045E+02 0.  0.
         13    1    3    3    0    0  0.22173837445E+03 -0.55315788328E+03  0.42137441578E+03  0.72986844624E+03  0.00000000000E+00 0. -1.
        -13    1    3    3    0    0  0.19900129770E+02 -0.16268727274E+03  0.14376855150E+03  0.21801963278E+03  0.00000000000E+00 0.  1.
          4    1    6    6  502    0  0.20472492363E+03  0.71885731334E+02  0.24158553786E+03  0.32472053343E+03  0.00000000000E+00 0. -1.
          1    1    5    5  503    0 -0.40977135158E+03  0.42584300900E+03  0.90554015938E+03  0.10813222504E+04  0.00000000000E+00 0. -1.
         -2    1    5    5    0  503 -0.15204009615E+03  0.17966677570E+03  0.28490719166E+03  0.36955168649E+03  0.00000000000E+00 0.  1.
         -3    1    6    6    0  502  0.11544801988E+03  0.38449639978E+02  0.24742556349E+03  0.27572818060E+03  0.00000000000E+00 0.  1.
<mgrwt>
<rscale>  0 0.19892284E+04</rscale>
<asrwt>0</asrwt>
<pdfrwt beam="1">  1        2 0.58046872E-01 0.19892284E+04</pdfrwt>
<pdfrwt beam="2">  1       -2 0.40337015E+00 0.19892284E+04</pdfrwt>
<totfact> 0.55882128E-01</totfact>
</mgrwt>
</event>
<event>
12    1  0.3227043E-007  0.2725081E+04  0.7818608E-02  0.8326913E-01
         -2   -1    0    0    0  501 -0.00000000000E+00  0.00000000000E+00  0.19208460451E+04  0.19208460451E+04  0.00000000000E+00 0.  1.
          2   -1    0    0  501    0  0.00000000000E+00 -0.00000000000E+00 -0.96650986612E+03  0.96650986612E+03  0.00000000000E+00 0. -1.
         23    2    1    2    0    0 -0.34786806358E+03 -0.10380254746E+04 -0.12467503482E+03  0.11056651266E+04  0.91882708853E+02 0.  0.
        254    2    1    2    0    0  0.34786806358E+03  0.10380254746E+04  0.10790112138E+04  0.17816907847E+04  0.90091496658E+03 0.  0.
        -24    2    4    4    0    0  0.47622480854E+03  0.97862379234E+03  0.11651518967E+04  0.15964007130E+04  0.80135502345E+02 0.  0.
         24    2    4    4    0    0 -0.12835674496E+03  0.59401682280E+02 -0.86140682873E+02  0.18529007172E+03  0.83115459426E+02 0.  0.
         11    1    3    3    0    0 -0.11494046848E+03 -0.46934758555E+03 -0.33122636756E+02  0.48435067505E+03  0.00000000000E+00 0. -1.
        -11    1    3    3    0    0 -0.23292759510E+03 -0.56867788907E+03 -0.91552398064E+02  0.62131445152E+03  0.00000000000E+00 0.  1.
          4    1    6    6  502    0  0.12760308513E+01 -0.76359211675E+01  0.83841665157E+01  0.11411826978E+02  0.00000000000E+00 0. -1.
          1    1    5    5  503    0 -0.18201252243E+01  0.21131942741E+01  0.34849429669E-01  0.27892042512E+01  0.00000000000E+00 0. -1.
         -2    1    5    5    0  503  0.47804493377E+03  0.97651059807E+03  0.11651170473E+04  0.15936115087E+04  0.00000000000E+00 0.  1.
         -3    1    6    6    0  502 -0.12963277582E+03  0.67037603448E+02 -0.94524849388E+02  0.17387824474E+03  0.00000000000E+00 0.  1.
<mgrwt>
<rscale>  0 0.27250810E+04</rscale>
<asrwt>0</asrwt>
<pdfrwt beam="1">  1        2 0.14869383E+00 0.27250810E+04</pdfrwt>
<pdfrwt beam="2">  1       -2 0.29551478E+00 0.27250810E+04</pdfrwt>
<totfact> 0.78493913E-01</totfact>
</mgrwt>
</event>
<event>
12    1  0.1960998E-007  0.3282585E+04  0.7818608E-02  0.8167341E-01
         -2   -1    0    0    0  501 -0.00000000000E+00  0.00000000000E+00  0.10084460403E+04  0.10084460403E+04  0.00000000000E+00 0.  1.
          2   -1    0    0  501    0  0.00000000000E+00 -0.00000000000E+00 -0.26712796187E+04  0.26712796187E+04  0.00000000000E+00 0. -1.
         23    2    1    2    0    0  0.10936098394E+04 -0.10439598392E+04 -0.64741920873E+03  0.16472072339E+04  0.91134037909E+02 0.  0.
        254    2    1    2    0    0 -0.10936098394E+04  0.10439598392E+04 -0.10154143696E+04  0.20325184251E+04  0.90234703944E+03 0.  0.
        -24    2    4    4    0    0 -0.11205095204E+04  0.69347934737E+03 -0.10257493504E+04  0.16717831286E+04  0.79005751459E+02 0.  0.
         24    2    4    4    0    0  0.26899681037E+02  0.35048049187E+03  0.10334980748E+02  0.36073529648E+03  0.80392625766E+02 0.  0.
         13    1    3    3    0    0  0.12113495916E+03 -0.10042971174E+03 -0.96009503350E+02  0.18433022016E+03  0.00000000000E+00 0. -1.
        -13    1    3    3    0    0  0.97247488023E+03 -0.94353012749E+03 -0.55140970538E+03  0.14628770138E+04  0.00000000000E+00 0.  1.
          4    1    6    6  502    0 -0.24879485253E+02  0.64587955724E+02 -0.76495561091E+01  0.69635540636E+02  0.00000000000E+00 0. -1.
          1    1    5    5  503    0 -0.60849049137E+03  0.40946328365E+03 -0.53538709702E+03  0.90805297334E+03  0.00000000000E+00 0. -1.
         -2    1    5    5    0  503 -0.51201902906E+03  0.28401606372E+03 -0.49036225338E+03  0.76373015530E+03  0.00000000000E+00 0.  1.
         -3    1    6    6    0  502  0.51779166290E+02  0.28589253614E+03  0.17984536857E+02  0.29109975584E+03  0.00000000000E+00 0.  1.
<mgrwt>
<rscale>  0 0.32825852E+04</rscale>
<asrwt>0</asrwt>
<pdfrwt beam="1">  1        2 0.41096609E+00 0.32825852E+04</pdfrwt>
<pdfrwt beam="2">  1       -2 0.15514554E+00 0.32825852E+04</pdfrwt>
<totfact> 0.63239042E-01</totfact>
</mgrwt>
</event>
<event>
12    1  0.1960998E-007  0.1333863E+04  0.7818608E-02  0.9003134E-01
         -2   -1    0    0    0  501 -0.00000000000E+00  0.00000000000E+00  0.28844440357E+03  0.28844440357E+03  0.00000000000E+00 0.  1.
          2   -1    0    0  501    0  0.00000000000E+00 -0.00000000000E+00 -0.15420575539E+04  0.15420575539E+04  0.00000000000E+00 0. -1.
         23    2    1    2    0    0  0.25417430257E+03  0.34232224092E+02 -0.67824029989E+03  0.73122526180E+03  0.94361315396E+02 0.  0.
        254    2    1    2    0    0 -0.25417430257E+03 -0.34232224092E+02 -0.57537285045E+03  0.10992766957E+04  0.90087674816E+03 0.  0.
        -24    2    4    4    0    0 -0.21646465886E+03 -0.42997408326E+03 -0.14701316431E+03  0.50961694954E+03  0.79761544393E+02 0.  0.
         24    2    4    4    0    0 -0.37709643710E+02  0.39574185917E+03 -0.42835968614E+03  0.58965974614E+03  0.78568181707E+02 0.  0.
         11    1    3    3    0    0  0.14230176827E+03  0.66003578361E+02 -0.40001541975E+03  0.42967266802E+03  0.00000000000E+00 0. -1.
        -11    1    3    3    0    0  0.11187253430E+03 -0.31771354268E+02 -0.27822488014E+03  0.30155259378E+03  0.00000000000E+00 0.  1.
          2    1    6    6  502    0  0.17908466672E+01  0.22642218742E+03 -0.28708048083E+03  0.36563016364E+03  0.00000000000E+00 0. -1.
          3    1    5    5  503    0 -0.10701680404E+03 -0.16352896085E+03 -0.93465870562E+02  0.21663376086E+03  0.00000000000E+00 0. -1.
         -4    1    5    5    0  503 -0.10944785482E+03 -0.26644512241E+03 -0.53547293746E+02  0.29298318868E+03  0.00000000000E+00 0.  1.
         -1    1    6    6    0  502 -0.39500490377E+02  0.16931967175E+03 -0.14127920530E+03  0.22402958250E+03  0.00000000000E+00 0.  1.
<mgrwt>
<rscale>  0 0.13338634E+04</rscale>
<asrwt>0</asrwt>
<pdfrwt beam="1">  1        2 0.23723962E+00 0.13338634E+04</pdfrwt>
<pdfrwt beam="2">  1       -2 0.44376062E-01 0.13338634E+04</pdfrwt>
<totfact> 0.56584352E+01</totfact>
</mgrwt>
</event>
<event>
12    1  0.1960998E-007  0.3528599E+04  0.7818608E-02  0.8107046E-01
         -2   -1    0    0    0  501 -0.00000000000E+00  0.00000000000E+00  0.94574711714E+03  0.94574711714E+03  0.00000000000E+00 0.  1.
          2   -1    0    0  501    0  0.00000000000E+00 -0.00000000000E+00 -0.32913156431E+04  0.32913156431E+04  0.00000000000E+00 0. -1.
         23    2    1    2    0    0 -0.66613801192E+03 -0.10041775719E+04  0.24543199052E+03  0.12331635201E+04  0.91339797314E+02 0.  0.
        254    2    1    2    0    0  0.66613801192E+03  0.10041775719E+04 -0.25910005165E+04  0.30038992402E+04  0.92629073285E+03 0.  0.
        -24    2    4    4    0    0  0.34047772997E+03  0.44071974231E+03 -0.21281734039E+04  0.22012770085E+04  0.79620696391E+02 0.  0.
         24    2    4    4    0    0  0.32566028195E+03  0.56345782955E+03 -0.46282711258E+03  0.80262223162E+03  0.80337821892E+02 0.  0.
         13    1    3    3    0    0 -0.34421684441E+03 -0.59849652494E+03  0.12969555912E+03  0.70249858676E+03  0.00000000000E+00 0.  1.
        -13    1    3    3    0    0 -0.32192116751E+03 -0.40568104691E+03  0.11573643140E+03  0.53066493333E+03  0.00000000000E+00 0. -1.
          2    1    6    6  502    0  0.25997016731E+03  0.39132806522E+03 -0.35785023176E+03  0.59057508489E+03  0.00000000000E+00 0. -1.
          1    1    5    5  503    0  0.18518554476E+03  0.30051675379E+03 -0.13744394484E+04  0.14190446796E+04  0.00000000000E+00 0. -1.
         -2    1    5    5    0  503  0.15529218521E+03  0.14020298851E+03 -0.75373395549E+03  0.78223232894E+03  0.00000000000E+00 0.  1.
         -1    1    6    6    0  502  0.65690114644E+02  0.17212976433E+03 -0.10497688082E+03  0.21204714673E+03  0.00000000000E+00 0.  1.
<mgrwt>
<rscale>  0 0.35285987E+04</rscale>
<asrwt>0</asrwt>
<pdfrwt beam="1">  1        2 0.50635625E+00 0.35285987E+04</pdfrwt>
<pdfrwt beam="2">  1       -2 0.14549956E+00 0.35285987E+04</pdfrwt>
<totfact> 0.30013639E-01</totfact>
</mgrwt>
</event>
<event>
12    1  0.1960998E-007  0.1300680E+04  0.7818608E-02  0.9029026E-01
          1   -1    0    0  501    0  0.00000000000E+00  0.00000000000E+00  0.43790500095E+03  0.43790500095E+03  0.00000000000E+00 0. -1.
         -1   -1    0    0    0  501 -0.00000000000E+00 -0.00000000000E+00 -0.96583076187E+03  0.96583076187E+03  0.00000000000E+00 0.  1.
         23    2    1    2    0    0 -0.30209434627E+03 -0.12983957906E+03 -0.11162689590E+03  0.35825057688E+03  0.88111302379E+02 0.  0.
        254    2    1    2    0    0  0.30209434627E+03  0.12983957906E+03 -0.41629886502E+03  0.10454851859E+04  0.90089689679E+03 0.  0.
        -24    2    4    4    0    0 -0.17752728465E+03  0.15791691450E+03  0.15429021199E+03  0.29525855629E+03  0.83177261718E+02 0.  0.
         24    2    4    4    0    0  0.47962163092E+03 -0.28077335444E+02 -0.57058907701E+03  0.75022662964E+03  0.80267399448E+02 0.  0.
         13    1    3    3    0    0 -0.12464326358E+03 -0.57416991465E+02 -0.92807283488E+02  0.16566787840E+03  0.00000000000E+00 0.  1.
        -13    1    3    3    0    0 -0.17745108270E+03 -0.72422587595E+02 -0.18819612408E+02  0.19258269848E+03  0.00000000000E+00 0. -1.
          2    1    6    6  502    0  0.34703668581E+02 -0.21204859828E+02 -0.33011985919E+02  0.52381121672E+02  0.00000000000E+00 0. -1.
          3    1    5    5  503    0 -0.92281424686E+02  0.13337898259E+03  0.11111678103E+03  0.19660303499E+03  0.00000000000E+00 0. -1.
         -4    1    5    5    0  503 -0.85245859963E+02  0.24537931913E+02  0.43173430952E+02  0.98655521303E+02  0.00000000000E+00 0.  1.
         -1    1    6    6    0  502  0.44491796234E+03 -0.68724756161E+01 -0.53757709109E+03  0.69784550797E+03  0.00000000000E+00 0.  1.
<mgrwt>
<rscale>  0 0.13006800E+04</rscale>
<asrwt>0</asrwt>
<pdfrwt beam="1">  1        1 0.67370001E-01 0.13006800E+04</pdfrwt>
<pdfrwt beam="2">  1       -1 0.14858935E+00 0.13006800E+04</pdfrwt>
<totfact> 0.18682909E+01</totfact>
</mgrwt>
</event>
<event>
12    1  0.1960998E-007  0.2628696E+04  0.7818608E-02  0.8358519E-01
         -1   -1    0    0    0  501 -0.00000000000E+00  0.00000000000E+00  0.68941265947E+03  0.68941265947E+03  0.00000000000E+00 0.  1.
          1   -1    0    0  501    0  0.00000000000E+00 -0.00000000000E+00 -0.25057710928E+04  0.25057710928E+04  0.00000000000E+00 0. -1.
         23    2    1    2    0    0  0.82054697868E+03 -0.45657827904E+03  0.20345836974E+02  0.94365420535E+03  0.91149531497E+02 0.  0.
        254    2    1    2    0    0 -0.82054697868E+03  0.45657827904E+03 -0.18367042703E+04  0.22515295469E+04  0.90229798567E+03 0.  0.
        -24    2    4    4    0    0 -0.92532278709E+03  0.34759125974E+03 -0.10414308642E+04  0.14380108465E+04  0.79088592173E+02 0.  0.
         24    2    4    4    0    0  0.10477580842E+03  0.10898701930E+03 -0.79527340604E+03  0.81351870042E+03  0.80602389363E+02 0.  0.
         11    1    3    3    0    0  0.25743618186E+03 -0.18881555233E+03 -0.96505724562E+01  0.31940230757E+03  0.00000000000E+00 0.  1.
        -11    1    3    3    0    0  0.56311079682E+03 -0.26776272671E+03  0.29996409430E+02  0.62425189778E+03  0.00000000000E+00 0. -1.
          2    1    6    6  502    0  0.89236457084E+02  0.59561906950E+02 -0.65998996805E+03  0.66865351563E+03  0.00000000000E+00 0. -1.
          3    1    5    5  503    0 -0.91386240774E+03  0.35098214926E+03 -0.10341890480E+04  0.14240365011E+04  0.00000000000E+00 0. -1.
         -4    1    5    5    0  503 -0.11460379354E+02 -0.33908895169E+01 -0.72418161960E+01  0.13974345368E+02  0.00000000000E+00 0.  1.
         -1    1    6    6    0  502  0.15539351333E+02  0.49425112349E+02 -0.13528343799E+03  0.14486518479E+03  0.00000000000E+00 0.  1.
<mgrwt>
<rscale>  0 0.26286957E+04</rscale>
<asrwt>0</asrwt>
<pdfrwt beam="1">  1        1 0.38550325E+00 0.26286957E+04</pdfrwt>
<pdfrwt beam="2">  1       -1 0.10606349E+00 0.26286957E+04</pdfrwt>
<totfact> 0.98021898E-01</totfact>
</mgrwt>
</event>
<event>
12    1  0.1960998E-007  0.1986594E+04  0.7818608E-02  0.8612914E-01
          1   -1    0    0  501    0  0.00000000000E+00  0.00000000000E+00  0.29949417569E+04  0.29949417569E+04  0.00000000000E+00 0. -1.
         -1   -1    0    0    0  501 -0.00000000000E+00 -0.00000000000E+00 -0.32943498334E+03  0.32943498334E+03  0.00000000000E+00 0.  1.
         23    2    1    2    0    0 -0.73968619676E+03  0.19298996317E+03  0.13414496886E+04  0.15466615634E+04  0.91071010854E+02 0.  0.
        254    2    1    2    0    0  0.73968619676E+03 -0.19298996317E+03  0.13240570850E+04  0.17777151769E+04  0.90706300236E+03 0.  0.
        -24    2    4    4    0    0  0.54689280840E+02 -0.44222101146E+03  0.49638661049E+03  0.67197546436E+03  0.81246644343E+02 0.  0.
         24    2    4    4    0    0  0.68499691592E+03  0.24923104829E+03  0.82767047449E+03  0.11057397125E+04  0.79278037534E+02 0.  0.
         13    1    3    3    0    0 -0.49668761690E+03  0.16377345196E+03  0.96586534478E+03  0.10983697905E+04  0.00000000000E+00 0. -1.
        -13    1    3    3    0    0 -0.24299857986E+03  0.29216511219E+02  0.37558434380E+03  0.44829177290E+03  0.00000000000E+00 0.  1.
          4    1    6    6  502    0  0.67660789299E+03  0.24424525600E+03  0.82682534430E+03  0.10959444037E+04  0.00000000000E+00 0. -1.
          1    1    5    5  503    0  0.58178357969E+02 -0.24622447017E+03  0.23547418203E+03  0.34562884927E+03  0.00000000000E+00 0. -1.
         -2    1    5    5    0  503 -0.34890771287E+01 -0.19599654129E+03  0.26091242846E+03  0.32634661509E+03  0.00000000000E+00 0.  1.
         -3    1    6    6    0  502  0.83890229303E+01  0.49857922905E+01  0.84513018757E+00  0.97953088529E+01  0.00000000000E+00 0.  1.
<mgrwt>
<rscale>  0 0.19865937E+04</rscale>
<asrwt>0</asrwt>
<pdfrwt beam="1">  1        1 0.46076025E+00 0.19865937E+04</pdfrwt>
<pdfrwt beam="2">  1       -1 0.50682307E-01 0.19865937E+04</pdfrwt>
<totfact> 0.21941381E+00</totfact>
</mgrwt>
</event>
<event>
12    1  0.1960998E-007  0.2412518E+04  0.7818608E-02  0.8434832E-01
         -2   -1    0    0    0  501 -0.00000000000E+00  0.00000000000E+00  0.48843412665E+03  0.48843412665E+03  0.00000000000E+00 0.  1.
          2   -1    0    0  501    0  0.00000000000E+00 -0.00000000000E+00 -0.29790317873E+04  0.29790317873E+04  0.00000000000E+00 0. -1.
         23    2    1    2    0    0  0.95385921843E+03  0.20874946100E+03 -0.15735276758E+04  0.18540665008E+04  0.90274563574E+02 0.  0.
        254    2    1    2    0    0 -0.95385921843E+03 -0.20874946100E+03 -0.91706998479E+03  0.16133994131E+04  0.89923109551E+03 0.  0.
        -24    2    4    4    0    0 -0.44340717176E+03 -0.16683129237E+03 -0.98043913114E+03  0.10921450122E+04  0.84126319731E+02 0.  0.
         24    2    4    4    0    0 -0.51045204667E+03 -0.41918168629E+02  0.63369146351E+02  0.52125440092E+03  0.73294453809E+02 0.  0.
         11    1    3    3    0    0  0.47688169437E+03  0.13342503228E+03 -0.73027121028E+03  0.88233464753E+03  0.00000000000E+00 0. -1.
        -11    1    3    3    0    0  0.47697752405E+03  0.75324428719E+02 -0.84325646555E+03  0.97173185329E+03  0.00000000000E+00 0.  1.
          2    1    6    6  502    0 -0.25558344951E+03 -0.57611867877E+02  0.28826584925E+02  0.26357731120E+03  0.00000000000E+00 0. -1.
          1    1    5    5  503    0 -0.26891838179E+03 -0.67526762301E+02 -0.62904770247E+03  0.68744306795E+03  0.00000000000E+00 0. -1.
         -2    1    5    5    0  503 -0.17448878997E+03 -0.99304530073E+02 -0.35139142867E+03  0.40470194423E+03  0.00000000000E+00 0.  1.
         -1    1    6    6    0  502 -0.25486859716E+03  0.15693699248E+02  0.34542561426E+02  0.25767708972E+03  0.00000000000E+00 0.  1.
<mgrwt>
<rscale>  0 0.24125180E+04</rscale>
<asrwt>0</asrwt>
<pdfrwt beam="1">  1        2 0.45831259E+00 0.24125180E+04</pdfrwt>
<pdfrwt beam="2">  1       -2 0.75143711E-01 0.24125180E+04</pdfrwt>
<totfact> 0.25642761E+00</totfact>
</mgrwt>
</event>
<event>
12    1  0.1960998E-007  0.1818309E+04  0.7818608E-02  0.8696623E-01
         -1   -1    0    0    0  501 -0.00000000000E+00  0.00000000000E+00  0.57055448822E+03  0.57055448822E+03  0.00000000000E+00 0.  1.
          1   -1    0    0  501    0  0.00000000000E+00 -0.00000000000E+00 -0.14486989645E+04  0.14486989645E+04  0.00000000000E+00 0. -1.
         23    2    1    2    0    0  0.14998954899E+03 -0.60042529934E+03 -0.65324745033E+03  0.90517080988E+03  0.97951818846E+02 0.  0.
        254    2    1    2    0    0 -0.14998954899E+03  0.60042529934E+03 -0.22489702598E+03  0.11140826429E+04  0.89866237150E+03 0.  0.
        -24    2    4    4    0    0  0.12105663915E+03  0.13814524317E+03  0.30014185936E+03  0.35959758311E+03  0.74070695589E+02 0.  0.
         24    2    4    4    0    0 -0.27104618815E+03  0.46228005616E+03 -0.52503888533E+03  0.75448505975E+03  0.80081132861E+02 0.  0.
         13    1    3    3    0    0  0.35851272416E+02 -0.46182648190E+02 -0.40628258541E+02  0.71195548455E+02  0.00000000000E+00 0. -1.
        -13    1    3    3    0    0  0.11413827658E+03 -0.55424265115E+03 -0.61261919179E+03  0.83397526143E+03  0.00000000000E+00 0.  1.
          4    1    6    6  502    0 -0.14908002322E+03  0.32878628110E+03 -0.34832593675E+03  0.50165349613E+03  0.00000000000E+00 0. -1.
          3    1    5    5  503    0  0.91799231929E+01  0.56686860172E+02  0.64816066536E+02  0.86595574870E+02  0.00000000000E+00 0. -1.
         -4    1    5    5    0  503  0.11187671596E+03  0.81458383002E+02  0.23532579282E+03  0.27300200824E+03  0.00000000000E+00 0.  1.
         -3    1    6    6    0  502 -0.12196616493E+03  0.13349377506E+03 -0.17671294858E+03  0.25283156362E+03  0.00000000000E+00 0.  1.
<mgrwt>
<rscale>  0 0.18183088E+04</rscale>
<asrwt>0</asrwt>
<pdfrwt beam="1">  1        1 0.22287676E+00 0.18183088E+04</pdfrwt>
<pdfrwt beam="2">  1       -1 0.87777615E-01 0.18183088E+04</pdfrwt>
<totfact> 0.85399749E+00</totfact>
</mgrwt>
</event>
<event>
12    1  0.1960998E-007  0.1091342E+04  0.7818608E-02  0.9213672E-01
         -2   -1    0    0    0  501 -0.00000000000E+00  0.00000000000E+00  0.49061511147E+03  0.49061511147E+03  0.00000000000E+00 0. -1.
          2   -1    0    0  501    0  0.00000000000E+00 -0.00000000000E+00 -0.60690482332E+03  0.60690482332E+03  0.00000000000E+00 0.  1.
         23    2    1    2    0    0  0.93769808405E+02  0.12404701525E+03 -0.49336046350E+02  0.18713084182E+03  0.91670428860E+02 0.  0.
        254    2    1    2    0    0 -0.93769808405E+02 -0.12404701525E+03 -0.66953665494E+02  0.91038909298E+03  0.89450828298E+03 0.  0.
        -24    2    4    4    0    0 -0.37194109248E+03 -0.36742679595E+03 -0.13321564103E+02  0.52811966215E+03  0.73418572708E+02 0.  0.
         24    2    4    4    0    0  0.27817128408E+03  0.24337978070E+03 -0.53632101390E+02  0.38226943083E+03  0.81489474827E+02 0.  0.
         13    1    3    3    0    0  0.94905029172E+02  0.57932768179E+02 -0.13742910530E+02  0.11203587720E+03  0.00000000000E+00 0. -1.
        -13    1    3    3    0    0 -0.11352207670E+01  0.66114247076E+02 -0.35593135820E+02  0.75094964613E+02  0.00000000000E+00 0.  1.
          4    1    6    6  502    0  0.33132415954E+02  0.71993991123E+00 -0.10268454657E+02  0.34694617183E+02  0.00000000000E+00 0. -1.
          3    1    5    5  503    0 -0.10891609120E+02  0.19653412476E+01  0.24886087292E+01  0.11343848062E+02  0.00000000000E+00 0. -1.
         -4    1    5    5    0  503 -0.36104948336E+03 -0.36939213720E+03 -0.15810172833E+02  0.51677581409E+03  0.00000000000E+00 0.  1.
         -3    1    6    6    0  502  0.24503886812E+03  0.24265984079E+03 -0.43363646733E+02  0.34757481364E+03  0.00000000000E+00 0.  1.
<mgrwt>
<rscale>  0 0.10913417E+04</rscale>
<asrwt>0</asrwt>
<pdfrwt beam="1">  1        2 0.93369972E-01 0.10913417E+04</pdfrwt>
<pdfrwt beam="2">  1       -2 0.75479249E-01 0.10913417E+04</pdfrwt>
<totfact> 0.76545933E+01</totfact>
</mgrwt>
</event>
<event>
12    1  0.1960998E-007  0.2405344E+04  0.7818608E-02  0.8437505E-01
         -1   -1    0    0    0  501 -0.00000000000E+00  0.00000000000E+00  0.10304720032E+04  0.10304720032E+04  0.00000000000E+00 0.  1.
          1   -1    0    0  501    0  0.00000000000E+00 -0.00000000000E+00 -0.14036485440E+04  0.14036485440E+04  0.00000000000E+00 0. -1.
         23    2    1    2    0    0 -0.57377698912E+03 -0.66778148710E+03  0.38124576290E+03  0.96591370586E+03  0.11175333411E+03 0.  0.
        254    2    1    2    0    0  0.57377698912E+03  0.66778148710E+03 -0.75442230362E+03  0.14682068414E+04  0.90073645928E+03 0.  0.
        -24    2    4    4    0    0 -0.48421423855E+02  0.52682445251E+03 -0.60608944643E+03  0.80867050215E+03  0.81944651539E+02 0.  0.
         24    2    4    4    0    0  0.62219841297E+03  0.14095703458E+03 -0.14833285719E+03  0.65953633922E+03  0.77367923065E+02 0.  0.
         13    1    3    3    0    0 -0.15713572633E+03 -0.20779054197E+03  0.61137357214E+02  0.26759357666E+03  0.00000000000E+00 0. -1.
        -13    1    3    3    0    0 -0.41664126278E+03 -0.45999094513E+03  0.32010840568E+03  0.69832012920E+03  0.00000000000E+00 0.  1.
          2    1    6    6  502    0  0.27993930522E+03  0.97508243241E+02 -0.48499995918E+02  0.30037663310E+03  0.00000000000E+00 0. -1.
          3    1    5    5  503    0 -0.69709121950E+02  0.45871493262E+03 -0.52724145146E+03  0.70232634810E+03  0.00000000000E+00 0. -1.
         -4    1    5    5    0  503  0.21287698095E+02  0.68109519896E+02 -0.78847994966E+02  0.10634415405E+03  0.00000000000E+00 0.  1.
         -1    1    6    6    0  502  0.34225910775E+03  0.43448791341E+02 -0.99832861276E+02  0.35915970612E+03  0.00000000000E+00 0.  1.
<mgrwt>
<rscale>  0 0.24053445E+04</rscale>
<asrwt>0</asrwt>
<pdfrwt beam="1">  1        1 0.21594593E+00 0.24053445E+04</pdfrwt>
<pdfrwt beam="2">  1       -1 0.15853415E+00 0.24053445E+04</pdfrwt>
<totfact> 0.20513191E+00</totfact>
</mgrwt>
</event>
<event>
12    1  0.1960998E-007  0.1393807E+04  0.7818608E-02  0.8958314E-01
          2   -1    0    0  501    0  0.00000000000E+00  0.00000000000E+00  0.98443733636E+03  0.98443733636E+03  0.00000000000E+00 0. -1.
         -2   -1    0    0    0  501 -0.00000000000E+00 -0.00000000000E+00 -0.49335210936E+03  0.49335210936E+03  0.00000000000E+00 0.  1.
         23    2    1    2    0    0  0.34287226848E+03  0.30686008352E+02 -0.69769956890E+02  0.36291185994E+03  0.91291552725E+02 0.  0.
        254    2    1    2    0    0 -0.34287226848E+03 -0.30686008352E+02  0.56085518389E+03  0.11148775858E+04  0.89993914815E+03 0.  0.
        -24    2    4    4    0    0 -0.17593793880E+03 -0.92089826813E+02  0.78691684124E+03  0.81558122768E+03  0.80622139670E+02 0.  0.
         24    2    4    4    0    0 -0.16693432969E+03  0.61403818461E+02 -0.22606165735E+03  0.29929635810E+03  0.82685776871E+02 0.  0.
         13    1    3    3    0    0  0.22264664211E+03  0.60711429458E+02 -0.29715327612E+02  0.23268090941E+03  0.00000000000E+00 0.  1.
        -13    1    3    3    0    0  0.12022562637E+03 -0.30025421106E+02 -0.40054629278E+02  0.13023095053E+03  0.00000000000E+00 0. -1.
          2    1    6    6  502    0 -0.67106287650E+02  0.68554539749E+02 -0.10513050837E+03  0.14232147607E+03  0.00000000000E+00 0. -1.
          1    1    5    5  503    0 -0.49478514927E+02 -0.67497156597E+02  0.25965781913E+03  0.27281160647E+03  0.00000000000E+00 0. -1.
         -2    1    5    5    0  503 -0.12645942387E+03 -0.24592670216E+02  0.52725902211E+03  0.54276962121E+03  0.00000000000E+00 0.  1.
         -1    1    6    6    0  502 -0.99828042036E+02 -0.71507212882E+01 -0.12093114898E+03  0.15697488202E+03  0.00000000000E+00 0.  1.
<mgrwt>
<rscale>  0 0.13938066E+04</rscale>
<asrwt>0</asrwt>
<pdfrwt beam="1">  1        2 0.15145190E+00 0.13938066E+04</pdfrwt>
<pdfrwt beam="2">  1       -2 0.75900325E-01 0.13938066E+04</pdfrwt>
<totfact> 0.39043557E+01</totfact>
</mgrwt>
</event>
<event>
12    1  0.1960998E-007  0.2576215E+04  0.7818608E-02  0.8376326E-01
         -1   -1    0    0    0  501 -0.00000000000E+00  0.00000000000E+00  0.71023575827E+03  0.71023575827E+03  0.00000000000E+00 0.  1.
          1   -1    0    0  501    0  0.00000000000E+00 -0.00000000000E+00 -0.23361543609E+04  0.23361543609E+04  0.00000000000E+00 0. -1.
         23    2    1    2    0    0  0.33384324008E+03  0.10774647509E+04 -0.62062579381E+03  0.12906805346E+04  0.91094830933E+02 0.  0.
        254    2    1    2    0    0 -0.33384324008E+03 -0.10774647509E+04 -0.10052928088E+04  0.17557095846E+04  0.89415933455E+03 0.  0.
        -24    2    4    4    0    0 -0.26613122837E+03 -0.63519556455E+03 -0.10917888044E+04  0.12933073450E+04  0.79635792056E+02 0.  0.
         24    2    4    4    0    0 -0.67712011707E+02 -0.44226918630E+03  0.86495995584E+02  0.46240223952E+03  0.78404873409E+02 0.  0.
         13    1    3    3    0    0  0.13582880489E+03  0.32743145407E+03 -0.22529371504E+03  0.42002152253E+03  0.00000000000E+00 0. -1.
        -13    1    3    3    0    0  0.19801443519E+03  0.75003329678E+03 -0.39533207878E+03  0.87065901209E+03  0.00000000000E+00 0.  1.
          2    1    6    6  502    0 -0.26935749000E+02 -0.21095533602E+03  0.16720930679E+01  0.21267459713E+03  0.00000000000E+00 0. -1.
          1    1    5    5  503    0 -0.35724188877E+02 -0.34137618223E+02 -0.70815700264E+02  0.86350784900E+02  0.00000000000E+00 0. -1.
         -2    1    5    5    0  503 -0.23040703950E+03 -0.60105794632E+03 -0.10209731041E+04  0.12069565601E+04  0.00000000000E+00 0.  1.
         -1    1    6    6    0  502 -0.40776262708E+02 -0.23131385029E+03  0.84823902516E+02  0.24972764239E+03  0.00000000000E+00 0.  1.
<mgrwt>
<rscale>  0 0.25762146E+04</rscale>
<asrwt>0</asrwt>
<pdfrwt beam="1">  1        1 0.35940836E+00 0.25762146E+04</pdfrwt>
<pdfrwt beam="2">  1       -1 0.10926704E+00 0.25762146E+04</pdfrwt>
<totfact> 0.12024522E+00</totfact>
</mgrwt>
</event>
<event>
12    1  0.1960998E-007  0.1777149E+04  0.7818608E-02  0.8718546E-01
          3   -1    0    0  501    0  0.00000000000E+00  0.00000000000E+00  0.19566224652E+04  0.19566224652E+04  0.00000000000E+00 0.  1.
         -3   -1    0    0    0  501 -0.00000000000E+00 -0.00000000000E+00 -0.40353460467E+03  0.40353460467E+03  0.00000000000E+00 0. -1.
         23    2    1    2    0    0 -0.34154322588E+03  0.51362861765E+03  0.88361902427E+03  0.10815045798E+04  0.91670301086E+02 0.  0.
        254    2    1    2    0    0  0.34154322588E+03 -0.51362861765E+03  0.66946883628E+03  0.12786524901E+04  0.89794071942E+03 0.  0.
        -24    2    4    4    0    0 -0.16401208117E+03 -0.26945951334E+03  0.63032037257E+03  0.70949872905E+03  0.81094280637E+02 0.  0.
         24    2    4    4    0    0  0.50555530705E+03 -0.24416910431E+03  0.39148463712E+02  0.56915376101E+03  0.84845043915E+02 0.  0.
         13    1    3    3    0    0 -0.20086665870E+03  0.36353979646E+03  0.54378219671E+03  0.68425702455E+03  0.00000000000E+00 0. -1.
        -13    1    3    3    0    0 -0.14067656718E+03  0.15008882119E+03  0.33983682756E+03  0.39724755526E+03  0.00000000000E+00 0.  1.
          4    1    6    6  502    0  0.48397559844E+03 -0.24568095000E+03  0.49796823613E+02  0.54504241368E+03  0.00000000000E+00 0. -1.
          1    1    5    5  503    0 -0.84359599714E+02 -0.16291975978E+03  0.44537671701E+03  0.48168434710E+03  0.00000000000E+00 0. -1.
         -2    1    5    5    0  503 -0.79652481460E+02 -0.10653975356E+03  0.18494365556E+03  0.22781438195E+03  0.00000000000E+00 0.  1.
         -3    1    6    6    0  502  0.21579708619E+02  0.15118456919E+01 -0.10648359901E+02  0.24111347330E+02  0.00000000000E+00 0.  1.
<mgrwt>
<rscale>  0 0.17771493E+04</rscale>
<asrwt>0</asrwt>
<pdfrwt beam="1">  1        3 0.30101884E+00 0.17771493E+04</pdfrwt>
<pdfrwt beam="2">  1       -3 0.62082248E-01 0.17771493E+04</pdfrwt>
<totfact> 0.23921517E-01</totfact>
</mgrwt>
</event>
<event>
12    1  0.1960998E-007  0.1177748E+04  0.7818608E-02  0.9132559E-01
          2   -1    0    0  501    0  0.00000000000E+00  0.00000000000E+00  0.30878774147E+03  0.30878774147E+03  0.00000000000E+00 0. -1.
         -2   -1    0    0    0  501 -0.00000000000E+00 -0.00000000000E+00 -0.11230133725E+04  0.11230133725E+04  0.00000000000E+00 0.  1.
         23    2    1    2    0    0 -0.21867774233E+03  0.66534086695E+02 -0.22843125161E+03  0.33513985130E+03  0.88832108678E+02 0.  0.
        254    2    1    2    0    0  0.21867774233E+03 -0.66534086695E+02 -0.58579437945E+03  0.10966612627E+04  0.89847878687E+03 0.  0.
        -24    2    4    4    0    0 -0.20851052807E+03 -0.22625523948E+03 -0.54613186414E+03  0.63196746721E+03  0.80341725648E+02 0.  0.
         24    2    4    4    0    0  0.42718827041E+03  0.15972115278E+03 -0.39662515320E+02  0.46469379550E+03  0.79790622474E+02 0.  0.
         11    1    3    3    0    0 -0.30770022977E+02 -0.16609931175E+02 -0.60017482602E+02  0.69460653218E+02  0.00000000000E+00 0.  1.
        -11    1    3    3    0    0 -0.18790771936E+03  0.83144017869E+02 -0.16841376900E+03  0.26567919808E+03  0.00000000000E+00 0. -1.
          4    1    6    6  502    0  0.30957784235E+03  0.11717863463E+03 -0.64357288120E+02  0.33721081450E+03  0.00000000000E+00 0. -1.
          3    1    5    5  503    0 -0.18115968070E+03 -0.21378642808E+03 -0.43994549375E+03  0.52160857375E+03  0.00000000000E+00 0. -1.
         -4    1    5    5    0  503 -0.27350847379E+02 -0.12468811399E+02 -0.10618637038E+03  0.11035889346E+03  0.00000000000E+00 0.  1.
         -3    1    6    6    0  502  0.11761042806E+03  0.42542518154E+02  0.24694772801E+02  0.12748298100E+03  0.00000000000E+00 0.  1.
<mgrwt>
<rscale>  0 0.11777483E+04</rscale>
<asrwt>0</asrwt>
<pdfrwt beam="1">  1        2 0.47505806E-01 0.11777483E+04</pdfrwt>
<pdfrwt beam="2">  1       -2 0.17277129E+00 0.11777483E+04</pdfrwt>
<totfact> 0.21374840E+01</totfact>
</mgrwt>
</event>
<event>
12    1  0.1960998E-007  0.1551161E+04  0.7818608E-02  0.8851126E-01
         -2   -1    0    0    0  501 -0.00000000000E+00  0.00000000000E+00  0.27716577745E+03  0.27716577745E+03  0.00000000000E+00 0. -1.
          2   -1    0    0  501    0  0.00000000000E+00 -0.00000000000E+00 -0.21702729135E+04  0.21702729135E+04  0.00000000000E+00 0.  1.
         23    2    1    2    0    0 -0.44465044051E+03  0.15769369310E+03 -0.93102224514E+03  0.10476964455E+04  0.91017063528E+02 0.  0.
        254    2    1    2    0    0  0.44465044051E+03 -0.15769369310E+03 -0.96208489093E+03  0.13997422455E+04  0.90060518615E+03 0.  0.
        -24    2    4    4    0    0 -0.20723681495E+02  0.32834694263E+03 -0.30497985566E+03  0.45545061991E+03  0.78621683490E+02 0.  0.
         24    2    4    4    0    0  0.46537412201E+03 -0.48604063573E+03 -0.65710503528E+03  0.94429162557E+03  0.84208513314E+02 0.  0.
         11    1    3    3    0    0 -0.16047871423E+03  0.50510307574E+02 -0.43087862256E+03  0.46255928946E+03  0.00000000000E+00 0.  1.
        -11    1    3    3    0    0 -0.28417172628E+03  0.10718338553E+03 -0.50014362258E+03  0.58513715603E+03  0.00000000000E+00 0. -1.
          4    1    6    6  502    0  0.33422368082E+03 -0.38520404515E+03 -0.53130661528E+03  0.73646068779E+03  0.00000000000E+00 0. -1.
          1    1    5    5  503    0  0.47665916140E+01  0.29546968372E+03 -0.25413935733E+03  0.38975872964E+03  0.00000000000E+00 0. -1.
         -2    1    5    5    0  503 -0.25490273109E+02  0.32877258913E+02 -0.50840498332E+02  0.65691890271E+02  0.00000000000E+00 0.  1.
         -3    1    6    6    0  502  0.13115044119E+03 -0.10083659058E+03 -0.12579842000E+03  0.20783093778E+03  0.00000000000E+00 0.  1.
<mgrwt>
<rscale>  0 0.15511613E+04</rscale>
<asrwt>0</asrwt>
<pdfrwt beam="1">  1        2 0.33388814E+00 0.15511613E+04</pdfrwt>
<pdfrwt beam="2">  1       -2 0.42640888E-01 0.15511613E+04</pdfrwt>
<totfact> 0.26951337E+01</totfact>
</mgrwt>
</event>
<event>
12    1  0.1960998E-007  0.1326795E+04  0.7818608E-02  0.9008582E-01
          1   -1    0    0  501    0  0.00000000000E+00  0.00000000000E+00  0.79459890201E+03  0.79459890201E+03  0.00000000000E+00 0. -1.
         -1   -1    0    0    0  501 -0.00000000000E+00 -0.00000000000E+00 -0.55385947951E+03  0.55385947951E+03  0.00000000000E+00 0.  1.
         23    2    1    2    0    0 -0.10072719280E+02 -0.11388168230E+03  0.37370687907E+03  0.40153728498E+03  0.92221811584E+02 0.  0.
        254    2    1    2    0    0  0.10072719280E+02  0.11388168230E+03 -0.13296745657E+03  0.94692109654E+03  0.93054216526E+03 0.  0.
        -24    2    4    4    0    0 -0.81701570050E+01  0.27083078467E+02  0.39579328277E+03  0.40457198993E+03  0.78904548298E+02 0.  0.
         24    2    4    4    0    0  0.18242876285E+02  0.86798603835E+02 -0.52876073934E+03  0.54234910662E+03  0.81779177179E+02 0.  0.
         13    1    3    3    0    0 -0.39202355276E+02 -0.82831113873E+02  0.32077119655E+03  0.33360452428E+03  0.00000000000E+00 0. -1.
        -13    1    3    3    0    0  0.29129635995E+02 -0.31050568429E+02  0.52935682514E+02  0.67932760699E+02  0.00000000000E+00 0.  1.
          4    1    6    6  502    0 -0.19125279249E+02  0.17718971891E+02 -0.43048686367E+02  0.50328199543E+02  0.00000000000E+00 0. -1.
          3    1    5    5  503    0 -0.28440063655E+02 -0.17810528996E+02  0.13055059020E+03  0.13479432023E+03  0.00000000000E+00 0. -1.
         -4    1    5    5    0  503  0.20269906650E+02  0.44893607463E+02  0.26524269257E+03  0.26977766970E+03  0.00000000000E+00 0.  1.
         -3    1    6    6    0  502  0.37368155534E+02  0.69079631944E+02 -0.48571205297E+03  0.49202090707E+03  0.00000000000E+00 0.  1.
<mgrwt>
<rscale>  0 0.13267948E+04</rscale>
<asrwt>0</asrwt>
<pdfrwt beam="1">  1        1 0.12224598E+00 0.13267948E+04</pdfrwt>
<pdfrwt beam="2">  1       -1 0.85209151E-01 0.13267948E+04</pdfrwt>
<totfact> 0.29858945E+01</totfact>
</mgrwt>
</event>
<event>
12    1  0.1960998E-007  0.1113273E+04  0.7818608E-02  0.9192351E-01
          1   -1    0    0  501    0  0.00000000000E+00  0.00000000000E+00  0.96382504521E+03  0.96382504521E+03  0.00000000000E+00 0. -1.
         -1   -1    0    0    0  501 -0.00000000000E+00 -0.00000000000E+00 -0.32147324228E+03  0.32147324228E+03  0.00000000000E+00 0.  1.
         23    2    1    2    0    0  0.10331271049E+03  0.20794963945E+02  0.27662090084E+03  0.30979797513E+03  0.91376780099E+02 0.  0.
        254    2    1    2    0    0 -0.10331271049E+03 -0.20794963945E+02  0.36573090209E+03  0.97550031236E+03  0.89818473600E+03 0.  0.
        -24    2    4    4    0    0 -0.36516344521E+03  0.29466761346E+02 -0.13837902000E+03  0.39982965999E+03  0.80637287229E+02 0.  0.
         24    2    4    4    0    0  0.26185073472E+03 -0.50261725291E+02  0.50410992209E+03  0.57567065236E+03  0.78599224818E+02 0.  0.
         11    1    3    3    0    0  0.38481784681E+01  0.10706118262E+02 -0.38745610035E+01  0.12018388775E+02  0.00000000000E+00 0.  1.
        -11    1    3    3    0    0  0.99464532024E+02  0.10088845683E+02  0.28049546184E+03  0.29777958636E+03  0.00000000000E+00 0. -1.
          4    1    6    6  502    0  0.88483098770E+02 -0.28507506010E+02  0.10651571592E+03  0.14137727684E+03  0.00000000000E+00 0. -1.
          3    1    5    5  503    0 -0.34464030535E+03  0.42348319848E+02 -0.14234488528E+03  0.37527641364E+03  0.00000000000E+00 0. -1.
         -4    1    5    5    0  503 -0.20523139863E+02 -0.12881558501E+02  0.39658652852E+01  0.24553246358E+02  0.00000000000E+00 0.  1.
         -3    1    6    6    0  502  0.17336763595E+03 -0.21754219281E+02  0.39759420616E+03  0.43429337553E+03  0.00000000000E+00 0.  1.
<mgrwt>
<rscale>  0 0.11132726E+04</rscale>
<asrwt>0</asrwt>
<pdfrwt beam="1">  1        1 0.14828078E+00 0.11132726E+04</pdfrwt>
<pdfrwt beam="2">  1       -1 0.49457422E-01 0.11132726E+04</pdfrwt>
<totfact> 0.65908115E+01</totfact>
</mgrwt>
</event>
<event>
12    1  0.1960998E-007  0.3177809E+04  0.7818608E-02  0.8194702E-01
          2   -1    0    0  501    0  0.00000000000E+00  0.00000000000E+00  0.26391776694E+04  0.26391776694E+04  0.00000000000E+00 0. -1.
         -2   -1    0    0    0  501 -0.00000000000E+00 -0.00000000000E+00 -0.95659247989E+03  0.95659247989E+03  0.00000000000E+00 0.  1.
         23    2    1    2    0    0  0.63027283973E+03 -0.11763048250E+04  0.14436713342E+04  0.19681183589E+04  0.91466167740E+02 0.  0.
        254    2    1    2    0    0 -0.63027283973E+03  0.11763048250E+04  0.23891385533E+03  0.16276517904E+04  0.90068508748E+03 0.  0.
        -24    2    4    4    0    0 -0.78299038461E+03  0.10411194730E+04  0.38839700168E+03  0.13616765365E+04  0.79416998390E+02 0.  0.
         24    2    4    4    0    0  0.15271754489E+03  0.13518535192E+03 -0.14948314634E+03  0.26597525388E+03  0.82461486459E+02 0.  0.
         11    1    3    3    0    0  0.59150533275E+03 -0.10469759014E+04  0.12898602736E+04  0.17634558748E+04  0.00000000000E+00 0. -1.
        -11    1    3    3    0    0  0.38767506971E+02 -0.12932892358E+03  0.15381106058E+03  0.20466248417E+03  0.00000000000E+00 0.  1.
          2    1    6    6  502    0  0.20861443505E+02  0.69348935774E+02 -0.44004476164E+02  0.84740006140E+02  0.00000000000E+00 0. -1.
          1    1    5    5  503    0  0.15610613120E+01  0.45667194605E+01  0.33166978980E+01  0.58559648221E+01  0.00000000000E+00 0. -1.
         -2    1    5    5    0  503 -0.78455144593E+03  0.10365527536E+04  0.38508030378E+03  0.13558205717E+04  0.00000000000E+00 0.  1.
         -1    1    6    6    0  502  0.13185610138E+03  0.65836416141E+02 -0.10547867018E+03  0.18123524774E+03  0.00000000000E+00 0.  1.
<mgrwt>
<rscale>  0 0.31778090E+04</rscale>
<asrwt>0</asrwt>
<pdfrwt beam="1">  1        2 0.40602733E+00 0.31778090E+04</pdfrwt>
<pdfrwt beam="2">  1       -2 0.14716808E+00 0.31778090E+04</pdfrwt>
<totfact> 0.76686570E-01</totfact>
</mgrwt>
</event>
<event>
12    1  0.1960998E-007  0.1599877E+04  0.7818608E-02  0.8820623E-01
         -1   -1    0    0    0  501 -0.00000000000E+00  0.00000000000E+00  0.86845536720E+03  0.86845536720E+03  0.00000000000E+00 0.  1.
          1   -1    0    0  501    0  0.00000000000E+00 -0.00000000000E+00 -0.73682770159E+03  0.73682770159E+03  0.00000000000E+00 0. -1.
         23    2    1    2    0    0  0.50097661115E+03 -0.14456166762E+02 -0.16427732524E+03  0.53523287765E+03  0.91107892361E+02 0.  0.
        254    2    1    2    0    0 -0.50097661115E+03  0.14456166762E+02  0.29590499084E+03  0.10700501911E+04  0.89792043205E+03 0.  0.
        -24    2    4    4    0    0  0.18109495416E+03  0.17826787219E+03  0.24529448752E+03  0.36226558945E+03  0.80573910284E+02 0.  0.
         24    2    4    4    0    0 -0.68207156530E+03 -0.16381170542E+03  0.50610503323E+02  0.70778460169E+03  0.79634944067E+02 0.  0.
         11    1    3    3    0    0  0.36995013277E+03 -0.25607739204E+02 -0.15939957667E+03  0.40364226995E+03  0.00000000000E+00 0. -1.
        -11    1    3    3    0    0  0.13102647837E+03  0.11151572442E+02 -0.48777485693E+01  0.13159060770E+03  0.00000000000E+00 0.  1.
          4    1    6    6  502    0 -0.60931768509E+03 -0.12163858189E+03  0.35578614732E+02  0.62235827607E+03  0.00000000000E+00 0. -1.
          3    1    5    5  503    0  0.16455108238E+03  0.13010584076E+03  0.22451586906E+03  0.30726529900E+03  0.00000000000E+00 0. -1.
         -4    1    5    5    0  503  0.16543871781E+02  0.48162031424E+02  0.20778618460E+02  0.55000290449E+02  0.00000000000E+00 0.  1.
         -3    1    6    6    0  502 -0.72753880212E+02 -0.42173123530E+02  0.15031888591E+02  0.85426325619E+02  0.00000000000E+00 0.  1.
<mgrwt>
<rscale>  0 0.15998775E+04</rscale>
<asrwt>0</asrwt>
<pdfrwt beam="1">  1        1 0.11335811E+00 0.15998775E+04</pdfrwt>
<pdfrwt beam="2">  1       -1 0.13360852E+00 0.15998775E+04</pdfrwt>
<totfact> 0.11430526E+01</totfact>
</mgrwt>
</event>
<event>
12    1  0.1960998E-007  0.1391490E+04  0.7818608E-02  0.8960002E-01
          2   -1    0    0  501    0  0.00000000000E+00  0.00000000000E+00  0.28288369273E+04  0.28288369273E+04  0.00000000000E+00 0. -1.
         -2   -1    0    0    0  501 -0.00000000000E+00 -0.00000000000E+00 -0.17111654378E+03  0.17111654378E+03  0.00000000000E+00 0.  1.
         23    2    1    2    0    0 -0.38520317269E+03 -0.89630046473E+02  0.92311722208E+03  0.10084281148E+04  0.91470364369E+02 0.  0.
        254    2    1    2    0    0  0.38520317269E+03  0.89630046473E+02  0.17346031615E+04  0.19915253563E+04  0.89493580078E+03 0.  0.
        -24    2    4    4    0    0  0.31078738827E+02 -0.14492731198E+03 -0.35313268010E+02  0.16956176546E+03  0.74393223105E+02 0.  0.
         24    2    4    4    0    0  0.35412443387E+03  0.23455735845E+03  0.17699164295E+04  0.18219635908E+04  0.80782980382E+02 0.  0.
         11    1    3    3    0    0 -0.15301026604E+03 -0.49271139245E+02  0.48500539697E+03  0.51095011671E+03  0.00000000000E+00 0. -1.
        -11    1    3    3    0    0 -0.23219290666E+03 -0.40358907228E+02  0.43811182511E+03  0.49747799810E+03  0.00000000000E+00 0.  1.
          2    1    6    6  502    0  0.99318634237E+02  0.51408273816E+02  0.61970943748E+03  0.62971961112E+03  0.00000000000E+00 0. -1.
          1    1    5    5  503    0  0.35357719612E+02 -0.80422878936E+02 -0.52921156420E+02  0.10256050209E+03  0.00000000000E+00 0. -1.
         -2    1    5    5    0  503 -0.42789807847E+01 -0.64504433046E+02  0.17607888409E+02  0.67001263371E+02  0.00000000000E+00 0.  1.
         -1    1    6    6    0  502  0.25480579963E+03  0.18314908464E+03  0.11502069920E+04  0.11922439797E+04  0.00000000000E+00 0.  1.
<mgrwt>
<rscale>  0 0.13914896E+04</rscale>
<asrwt>0</asrwt>
<pdfrwt beam="1">  1        2 0.43520565E+00 0.13914896E+04</pdfrwt>
<pdfrwt beam="2">  1       -2 0.26325624E-01 0.13914896E+04</pdfrwt>
<totfact> 0.28445292E+01</totfact>
</mgrwt>
</event>
<event>
12    1  0.1960998E-007  0.2118986E+04  0.7818608E-02  0.8552926E-01
         -1   -1    0    0    0  501 -0.00000000000E+00  0.00000000000E+00  0.34464644941E+03  0.34464644941E+03  0.00000000000E+00 0.  1.
          1   -1    0    0  501    0  0.00000000000E+00 -0.00000000000E+00 -0.32570353111E+04  0.32570353111E+04  0.00000000000E+00 0. -1.
         23    2    1    2    0    0  0.43866420490E+03  0.74302301314E+03 -0.12724424083E+04  0.15402954081E+04  0.94290927824E+02 0.  0.
        254    2    1    2    0    0 -0.43866420490E+03 -0.74302301314E+03 -0.16399464534E+04  0.20613863524E+04  0.90298385430E+03 0.  0.
        -24    2    4    4    0    0  0.95793412872E+02  0.54471885025E+02 -0.70499609437E+03  0.71905671041E+03  0.88766522369E+02 0.  0.
         24    2    4    4    0    0 -0.53445761777E+03 -0.79749489817E+03 -0.93495035899E+03  0.13423296420E+04  0.77933536529E+02 0.  0.
         13    1    3    3    0    0  0.31629631966E+03  0.54793457172E+03 -0.10027631856E+04  0.11856684457E+04  0.00000000000E+00 0. -1.
        -13    1    3    3    0    0  0.12236788524E+03  0.19508844142E+03 -0.26967922271E+03  0.35462696242E+03  0.00000000000E+00 0.  1.
          2    1    6    6  502    0 -0.48632250043E+03 -0.67987768571E+03 -0.82036481271E+03  0.11712137584E+04  0.00000000000E+00 0. -1.
          1    1    5    5  503    0  0.56928715513E+02 -0.15278021249E+02 -0.23212888362E+03  0.23949554316E+03  0.00000000000E+00 0. -1.
         -2    1    5    5    0  503  0.38864697359E+02  0.69749906273E+02 -0.47286721075E+03  0.47956116724E+03  0.00000000000E+00 0.  1.
         -1    1    6    6    0  502 -0.48135117338E+02 -0.11761721246E+03 -0.11458554628E+03  0.17111588355E+03  0.00000000000E+00 0.  1.
<mgrwt>
<rscale>  0 0.21189862E+04</rscale>
<asrwt>0</asrwt>
<pdfrwt beam="1">  1        1 0.50108235E+00 0.21189862E+04</pdfrwt>
<pdfrwt beam="2">  1       -1 0.53022531E-01 0.21189862E+04</pdfrwt>
<totfact> 0.12706685E+00</totfact>
</mgrwt>
</event>
<event>
12    1  0.1960998E-007  0.1549138E+04  0.7818608E-02  0.8852418E-01
         -2   -1    0    0    0  501 -0.00000000000E+00  0.00000000000E+00  0.25696624299E+03  0.25696624299E+03  0.00000000000E+00 0.  1.
          2   -1    0    0  501    0  0.00000000000E+00 -0.00000000000E+00 -0.23347704604E+04  0.23347704604E+04  0.00000000000E+00 0. -1.
         23    2    1    2    0    0  0.18538587799E+03 -0.46642058921E+03 -0.81350397206E+03  0.96022821482E+03  0.91287579537E+02 0.  0.
        254    2    1    2    0    0 -0.18538587799E+03  0.46642058921E+03 -0.12643002453E+04  0.16315084885E+04  0.90080450047E+03 0.  0.
        -24    2    4    4    0    0  0.23695573872E+03 -0.49795481432E+02 -0.73016767919E+03  0.77351995359E+03  0.80997943058E+02 0.  0.
         24    2    4    4    0    0 -0.42234161670E+03  0.51621607064E+03 -0.53413256611E+03  0.85798853494E+03  0.77429032822E+02 0.  0.
         13    1    3    3    0    0  0.59976010553E+02 -0.10361807117E+03 -0.26449209003E+03  0.29032721574E+03  0.00000000000E+00 0. -1.
        -13    1    3    3    0    0  0.12540986744E+03 -0.36280251804E+03 -0.54901188204E+03  0.66990099907E+03  0.00000000000E+00 0.  1.
          4    1    6    6  502    0 -0.80447516940E+01  0.12834230471E+01  0.12610574893E+00  0.81474601684E+01  0.00000000000E+00 0. -1.
          3    1    5    5  503    0  0.24931397811E+01 -0.32425940236E+01 -0.91386081956E+02  0.91477571772E+02  0.00000000000E+00 0. -1.
         -4    1    5    5    0  503  0.23446259894E+03 -0.46552887408E+02 -0.63878159723E+03  0.68204238181E+03  0.00000000000E+00 0.  1.
         -3    1    6    6    0  502 -0.41429686501E+03  0.51493264759E+03 -0.53425867186E+03  0.84984107477E+03  0.00000000000E+00 0.  1.
<mgrwt>
<rscale>  0 0.15491381E+04</rscale>
<asrwt>0</asrwt>
<pdfrwt beam="1">  1        2 0.35919546E+00 0.15491381E+04</pdfrwt>
<pdfrwt beam="2">  1       -2 0.39533268E-01 0.15491381E+04</pdfrwt>
<totfact> 0.25274005E+01</totfact>
</mgrwt>
</event>
<event>
12    1  0.2469400E-007  0.1915549E+04  0.7818608E-02  0.8647155E-01
          2   -1    0    0  501    0  0.00000000000E+00  0.00000000000E+00  0.21150452643E+04  0.21150452643E+04  0.00000000000E+00 0. -1.
         -2   -1    0    0    0  501 -0.00000000000E+00 -0.00000000000E+00 -0.43371738802E+03  0.43371738802E+03  0.00000000000E+00 0.  1.
         23    2    1    2    0    0  0.12029215227E+03  0.67318546896E+03  0.27066338467E+03  0.74090856404E+03  0.89654642626E+02 0.  0.
        254    2    1    2    0    0 -0.12029215227E+03 -0.67318546896E+03  0.14106644916E+04  0.18078540883E+04  0.90039614569E+03 0.  0.
        -24    2    4    4    0    0 -0.26438381459E+03 -0.37072754798E+03  0.13873084954E+04  0.14623643140E+04  0.80912355580E+02 0.  0.
         24    2    4    4    0    0  0.14409166233E+03 -0.30245792098E+03  0.23355996244E+02  0.34548977430E+03  0.81083170052E+02 0.  0.
         11    1    3    3    0    0  0.88104927643E+02  0.25154514203E+03  0.93940514078E+02  0.28259910994E+03  0.00000000000E+00 0.  1.
        -11    1    3    3    0    0  0.32187224623E+02  0.42164032693E+03  0.17672287059E+03  0.45830945410E+03  0.00000000000E+00 0. -1.
          2    1    6    6  502    0  0.14993438104E+03 -0.25815925795E+03  0.31045870342E+02  0.30015057413E+03  0.00000000000E+00 0. -1.
          1    1    5    5  503    0 -0.21589863036E+03 -0.24102768876E+03  0.94228240094E+03  0.99629447879E+03  0.00000000000E+00 0. -1.
         -2    1    5    5    0  503 -0.48485184232E+02 -0.12969985922E+03  0.44502609445E+03  0.46606983523E+03  0.00000000000E+00 0.  1.
         -1    1    6    6    0  502 -0.58427187136E+01 -0.44298663027E+02 -0.76898740980E+01  0.45339200165E+02  0.00000000000E+00 0.  1.
<mgrwt>
<rscale>  0 0.19155489E+04</rscale>
<asrwt>0</asrwt>
<pdfrwt beam="1">  1        2 0.32539157E+00 0.19155489E+04</pdfrwt>
<pdfrwt beam="2">  1       -2 0.66725753E-01 0.19155489E+04</pdfrwt>
<totfact> 0.11121891E+01</totfact>
</mgrwt>
</event>
<event>
12    1  0.1960998E-007  0.1681865E+04  0.7818608E-02  0.8771775E-01
          1   -1    0    0  501    0  0.00000000000E+00  0.00000000000E+00  0.68745946730E+03  0.68745946730E+03  0.00000000000E+00 0. -1.
         -1   -1    0    0    0  501 -0.00000000000E+00 -0.00000000000E+00 -0.10286682046E+04  0.10286682046E+04  0.00000000000E+00 0.  1.
         23    2    1    2    0    0 -0.19132252465E+03  0.34705081464E+03  0.33125295728E+03  0.52427643280E+03  0.89937088579E+02 0.  0.
        254    2    1    2    0    0  0.19132252465E+03 -0.34705081464E+03 -0.67246169461E+03  0.11918512391E+04  0.90069754586E+03 0.  0.
        -24    2    4    4    0    0  0.49987480979E+03 -0.28952937371E+03 -0.64094588292E+03  0.86653412552E+03  0.79797757932E+02 0.  0.
         24    2    4    4    0    0 -0.30855228513E+03 -0.57521440935E+02 -0.31515811690E+02  0.32531711360E+03  0.79528291743E+02 0.  0.
         11    1    3    3    0    0 -0.17472005164E+03  0.34799608736E+03  0.32173682655E+03  0.50511677741E+03  0.00000000000E+00 0. -1.
        -11    1    3    3    0    0 -0.16602473014E+02 -0.94527271807E+00  0.95161307314E+01  0.19159655393E+02  0.00000000000E+00 0.  1.
          2    1    6    6  502    0 -0.21439188784E+03 -0.27828653827E+02 -0.56544856518E+02  0.22346282990E+03  0.00000000000E+00 0. -1.
          3    1    5    5  503    0  0.13361646290E+03 -0.51072494859E+02 -0.12142993602E+03  0.18763525322E+03  0.00000000000E+00 0. -1.
         -4    1    5    5    0  503  0.36625834688E+03 -0.23845687885E+03 -0.51951594690E+03  0.67889887231E+03  0.00000000000E+00 0.  1.
         -1    1    6    6    0  502 -0.94160397292E+02 -0.29692787107E+02  0.25029044829E+02  0.10185428371E+03  0.00000000000E+00 0.  1.
<mgrwt>
<rscale>  0 0.16818653E+04</rscale>
<asrwt>0</asrwt>
<pdfrwt beam="1">  1        1 0.10576299E+00 0.16818653E+04</pdfrwt>
<pdfrwt beam="2">  1       -1 0.15825665E+00 0.16818653E+04</pdfrwt>
<totfact> 0.80411599E+00</totfact>
</mgrwt>
</event>
<event>
12    1  0.1960998E-007  0.5897645E+04  0.7818608E-02  0.7703224E-01
          1   -1    0    0  501    0  0.00000000000E+00  0.00000000000E+00  0.36659069192E+04  0.36659069192E+04  0.00000000000E+00 0. -1.
         -1   -1    0    0    0  501 -0.00000000000E+00 -0.00000000000E+00 -0.23720064631E+04  0.23720064631E+04  0.00000000000E+00 0.  1.
         23    2    1    2    0    0 -0.95560892606E+02 -0.26645130868E+04  0.17392448877E+04  0.31846440808E+04  0.90682234483E+02 0.  0.
        254    2    1    2    0    0  0.95560892606E+02  0.26645130868E+04 -0.44534443161E+03  0.28532693016E+04  0.91326456751E+03 0.  0.
        -24    2    4    4    0    0 -0.23299768758E+03  0.17265400157E+03 -0.78570564519E+02  0.31162529396E+03  0.82702258421E+02 0.  0.
         24    2    4    4    0    0  0.32855858019E+03  0.24918590853E+04 -0.36677386709E+03  0.25416440076E+04  0.90104108129E+02 0.  0.
         13    1    3    3    0    0 -0.90285249769E+02 -0.12571195369E+04  0.81807060679E+03  0.15025779427E+04  0.00000000000E+00 0.  1.
        -13    1    3    3    0    0 -0.52756428365E+01 -0.14073935500E+04  0.92117428092E+03  0.16820661381E+04  0.00000000000E+00 0. -1.
          4    1    6    6  502    0  0.24868167022E+03  0.16825146163E+04 -0.28111555908E+03  0.17238688943E+04  0.00000000000E+00 0. -1.
          3    1    5    5  503    0 -0.16842136045E+03  0.13158548431E+03 -0.18864846025E+02  0.21456089288E+03  0.00000000000E+00 0. -1.
         -4    1    5    5    0  503 -0.64576327131E+02  0.41068517259E+02 -0.59705718495E+02  0.97064401078E+02  0.00000000000E+00 0.  1.
         -3    1    6    6    0  502  0.79876909968E+02  0.80934446894E+03 -0.85658308009E+02  0.81777511327E+03  0.00000000000E+00 0.  1.
<mgrwt>
<rscale>  0 0.58976453E+04</rscale>
<asrwt>0</asrwt>
<pdfrwt beam="1">  1        1 0.56398568E+00 0.58976453E+04</pdfrwt>
<pdfrwt beam="2">  1       -1 0.36492407E+00 0.58976453E+04</pdfrwt>
<totfact> 0.15281628E-03</totfact>
</mgrwt>
</event>
<event>
12    1  0.1960998E-007  0.1518701E+04  0.7818608E-02  0.8872111E-01
          1   -1    0    0  501    0  0.00000000000E+00  0.00000000000E+00  0.99136670563E+03  0.99136670563E+03  0.00000000000E+00 0. -1.
         -1   -1    0    0    0  501 -0.00000000000E+00 -0.00000000000E+00 -0.58163453391E+03  0.58163453391E+03  0.00000000000E+00 0.  1.
         23    2    1    2    0    0  0.16573714476E+03  0.96987047203E+02 -0.32353210693E+03  0.39137891110E+03  0.10783848738E+03 0.  0.
        254    2    1    2    0    0 -0.16573714476E+03 -0.96987047203E+02  0.73326427866E+03  0.11816223284E+04  0.90646540818E+03 0.  0.
        -24    2    4    4    0    0 -0.32957871001E+01  0.25297097913E+03 -0.80218405983E+02  0.27738449189E+03  0.80634888175E+02 0.  0.
         24    2    4    4    0    0 -0.16244135766E+03 -0.34995802633E+03  0.81348268464E+03  0.90423783654E+03  0.83869970505E+02 0.  0.
         13    1    3    3    0    0  0.37124097756E+02 -0.22414256446E+02 -0.47839261278E+02  0.64569284074E+02  0.00000000000E+00 0. -1.
        -13    1    3    3    0    0  0.12861304700E+03  0.11940130365E+03 -0.27569284566E+03  0.32680962703E+03  0.00000000000E+00 0.  1.
          4    1    6    6  502    0 -0.13949704710E+03 -0.21375086261E+03  0.48981258619E+03  0.55232710146E+03  0.00000000000E+00 0. -1.
          3    1    5    5  503    0  0.25389634834E+02  0.42628728254E+02  0.21801912432E+01  0.49664829240E+02  0.00000000000E+00 0. -1.
         -4    1    5    5    0  503 -0.28685421934E+02  0.21034225087E+03 -0.82398597226E+02  0.22771966265E+03  0.00000000000E+00 0.  1.
         -3    1    6    6    0  502 -0.22944310561E+02 -0.13620716372E+03  0.32367009845E+03  0.35191073508E+03  0.00000000000E+00 0.  1.
<mgrwt>
<rscale>  0 0.15187009E+04</rscale>
<asrwt>0</asrwt>
<pdfrwt beam="1">  1        1 0.15251795E+00 0.15187009E+04</pdfrwt>
<pdfrwt beam="2">  1       -1 0.89482236E-01 0.15187009E+04</pdfrwt>
<totfact> 0.18165830E+01</totfact>
</mgrwt>
</event>
<event>
12    1  0.1960998E-007  0.1864419E+04  0.7818608E-02  0.8672773E-01
         -2   -1    0    0    0  501 -0.00000000000E+00  0.00000000000E+00  0.85828483131E+03  0.85828483131E+03  0.00000000000E+00 0.  1.
          2   -1    0    0  501    0  0.00000000000E+00 -0.00000000000E+00 -0.10125010768E+04  0.10125010768E+04  0.00000000000E+00 0. -1.
         23    2    1    2    0    0 -0.54195009826E+03 -0.22275594983E+03  0.34614248166E+03  0.68629884039E+03  0.88664302424E+02 0.  0.
        254    2    1    2    0    0  0.54195009826E+03  0.22275594983E+03 -0.50035872716E+03  0.11844870677E+04  0.89962249617E+03 0.  0.
        -24    2    4    4    0    0 -0.24545318893E+03  0.61872845162E+02 -0.10718347212E+03  0.28610548637E+03  0.79325504797E+02 0.  0.
         24    2    4    4    0    0  0.78740328719E+03  0.16088310466E+03 -0.39317525504E+03  0.89838158137E+03  0.81334952722E+02 0.  0.
         13    1    3    3    0    0 -0.16845352255E+03 -0.43166552740E+02  0.14099080194E+03  0.22387127276E+03  0.00000000000E+00 0.  1.
        -13    1    3    3    0    0 -0.37349657571E+03 -0.17958939709E+03  0.20515167971E+03  0.46242756763E+03  0.00000000000E+00 0. -1.
          4    1    6    6  502    0  0.30555056177E+02 -0.94620126241E+01 -0.14771399595E+02  0.35232589840E+02  0.00000000000E+00 0. -1.
          1    1    5    5  503    0  0.48182045451E+01  0.73373076062E+01 -0.63264079319E+01  0.10820102369E+02  0.00000000000E+00 0. -1.
         -2    1    5    5    0  503 -0.25027139347E+03  0.54535537556E+02 -0.10085706418E+03  0.27528538400E+03  0.00000000000E+00 0.  1.
         -3    1    6    6    0  502  0.75684823101E+03  0.17034511729E+03 -0.37840385544E+03  0.86314899153E+03  0.00000000000E+00 0.  1.
<mgrwt>
<rscale>  0 0.18644187E+04</rscale>
<asrwt>0</asrwt>
<pdfrwt beam="1">  1        2 0.15576940E+00 0.18644187E+04</pdfrwt>
<pdfrwt beam="2">  1       -2 0.13204382E+00 0.18644187E+04</pdfrwt>
<totfact> 0.96948434E+00</totfact>
</mgrwt>
</event>
<event>
12    1  0.1960998E-007  0.2323190E+04  0.7818608E-02  0.8468833E-01
          1   -1    0    0  501    0  0.00000000000E+00  0.00000000000E+00  0.15154088726E+04  0.15154088726E+04  0.00000000000E+00 0. -1.
         -1   -1    0    0    0  501 -0.00000000000E+00 -0.00000000000E+00 -0.89038882932E+03  0.89038882932E+03  0.00000000000E+00 0.  1.
         23    2    1    2    0    0  0.44041339751E+03 -0.33743617950E+03 -0.57645037232E+03  0.80529035470E+03  0.91489822818E+02 0.  0.
        254    2    1    2    0    0 -0.44041339751E+03  0.33743617950E+03  0.12014704156E+04  0.16005073472E+04  0.90014747290E+03 0.  0.
        -24    2    4    4    0    0  0.19138914242E+03 -0.27900048729E+02  0.64795173788E+03  0.68101946763E+03  0.80856936077E+02 0.  0.
         24    2    4    4    0    0 -0.63180253993E+03  0.36533622823E+03  0.55351867770E+03  0.91948787957E+03  0.80187436613E+02 0.  0.
         13    1    3    3    0    0  0.13725972955E+03 -0.10558467560E+03 -0.12194836123E+03  0.21180122730E+03  0.00000000000E+00 0. -1.
        -13    1    3    3    0    0  0.30315366796E+03 -0.23185150390E+03 -0.45450201109E+03  0.59348912740E+03  0.00000000000E+00 0.  1.
          2    1    6    6  502    0 -0.23880057196E+03  0.11640127911E+03  0.24409402373E+03  0.36077259232E+03  0.00000000000E+00 0. -1.
          1    1    5    5  503    0  0.18871373552E+03 -0.91817353940E+01  0.61046024366E+03  0.63902964511E+03  0.00000000000E+00 0. -1.
         -2    1    5    5    0  503  0.26754068924E+01 -0.18718313335E+02  0.37491494217E+02  0.41989822514E+02  0.00000000000E+00 0.  1.
         -1    1    6    6    0  502 -0.39300196796E+03  0.24893494913E+03  0.30942465396E+03  0.55871528724E+03  0.00000000000E+00 0.  1.
<mgrwt>
<rscale>  0 0.23231902E+04</rscale>
<asrwt>0</asrwt>
<pdfrwt beam="1">  1        1 0.23313983E+00 0.23231902E+04</pdfrwt>
<pdfrwt beam="2">  1       -1 0.13698290E+00 0.23231902E+04</pdfrwt>
<totfact> 0.25544952E+00</totfact>
</mgrwt>
</event>
<event>
12    1  0.1960998E-007  0.1469884E+04  0.7818608E-02  0.8904731E-01
         -2   -1    0    0    0  501 -0.00000000000E+00  0.00000000000E+00  0.47254504148E+03  0.47254504148E+03  0.00000000000E+00 0.  1.
          2   -1    0    0  501    0  0.00000000000E+00 -0.00000000000E+00 -0.11430437035E+04  0.11430437035E+04  0.00000000000E+00 0. -1.
         23    2    1    2    0    0 -0.56967646749E+02  0.44226779969E+03 -0.29635300433E+03  0.54264144971E+03  0.88252594050E+02 0.  0.
        254    2    1    2    0    0  0.56967646749E+02 -0.44226779969E+03 -0.37414565769E+03  0.10729472953E+04  0.90132391839E+03 0.  0.
        -24    2    4    4    0    0 -0.27479427511E+03 -0.20297248424E+03 -0.52426299209E+03  0.62995731239E+03  0.72696681956E+02 0.  0.
         24    2    4    4    0    0  0.33176192186E+03 -0.23929531545E+03  0.15011733440E+03  0.44298998288E+03  0.79854179924E+02 0.  0.
         11    1    3    3    0    0  0.11621903076E+02  0.52171147510E+02 -0.11249303399E+02  0.54620912575E+02  0.00000000000E+00 0.  1.
        -11    1    3    3    0    0 -0.68589549825E+02  0.39009665218E+03 -0.28510370093E+03  0.48802053714E+03  0.00000000000E+00 0. -1.
          2    1    6    6  502    0  0.18861657374E+02  0.34276341871E+01 -0.83462892216E+00  0.19188731080E+02  0.00000000000E+00 0. -1.
          3    1    5    5  503    0 -0.12956538403E+02  0.59902290630E+01 -0.22009599400E+02  0.26233131673E+02  0.00000000000E+00 0. -1.
         -4    1    5    5    0  503 -0.26183773671E+03 -0.20896271330E+03 -0.50225339269E+03  0.60372418072E+03  0.00000000000E+00 0.  1.
         -1    1    6    6    0  502  0.31290026449E+03 -0.24272294963E+03  0.15095196332E+03  0.42380125180E+03  0.00000000000E+00 0.  1.
<mgrwt>
<rscale>  0 0.14698839E+04</rscale>
<asrwt>0</asrwt>
<pdfrwt beam="1">  1        2 0.17585288E+00 0.14698839E+04</pdfrwt>
<pdfrwt beam="2">  1       -2 0.72699238E-01 0.14698839E+04</pdfrwt>
<totfact> 0.33967210E+01</totfact>
</mgrwt>
</event>
<event>
12    1  0.1960998E-007  0.3410323E+04  0.7818608E-02  0.8135377E-01
          2   -1    0    0  501    0  0.00000000000E+00  0.00000000000E+00  0.30783131506E+04  0.30783131506E+04  0.00000000000E+00 0. -1.
         -2   -1    0    0    0  501 -0.00000000000E+00 -0.00000000000E+00 -0.94453522127E+03  0.94453522127E+03  0.00000000000E+00 0.  1.
         23    2    1    2    0    0 -0.79666915452E+03 -0.12235973654E+04  0.17203243262E+04  0.22585111628E+04  0.97389069745E+02 0.  0.
        254    2    1    2    0    0  0.79666915452E+03  0.12235973654E+04  0.41345360315E+03  0.17643372091E+04  0.90003869418E+03 0.  0.
        -24    2    4    4    0    0  0.23768068871E+03  0.45648725552E+03 -0.27507918499E+03  0.58899068346E+03  0.79804404283E+02 0.  0.
         24    2    4    4    0    0  0.55898846581E+03  0.76711010986E+03  0.68853278814E+03  0.11753465256E+04  0.80224867530E+02 0.  0.
         13    1    3    3    0    0 -0.24038197961E+03 -0.39811146771E+03  0.61468495824E+03  0.77078780136E+03  0.00000000000E+00 0. -1.
        -13    1    3    3    0    0 -0.55628717491E+03 -0.82548589767E+03  0.11056393680E+04  0.14877233615E+04  0.00000000000E+00 0.  1.
          4    1    6    6  502    0  0.39901171112E+03  0.59054155394E+03  0.48604586735E+03  0.86266462643E+03  0.00000000000E+00 0. -1.
          1    1    5    5  503    0  0.42906252183E+02  0.48565572403E+02 -0.11792390608E+02  0.65868215214E+02  0.00000000000E+00 0. -1.
         -2    1    5    5    0  503  0.19477443653E+03  0.40792168312E+03 -0.26328679439E+03  0.52312246824E+03  0.00000000000E+00 0.  1.
         -3    1    6    6    0  502  0.15997675469E+03  0.17656855593E+03  0.20248692079E+03  0.31268189918E+03  0.00000000000E+00 0.  1.
<mgrwt>
<rscale>  0 0.34103227E+04</rscale>
<asrwt>0</asrwt>
<pdfrwt beam="1">  1        2 0.47358663E+00 0.34103227E+04</pdfrwt>
<pdfrwt beam="2">  1       -2 0.14531311E+00 0.34103227E+04</pdfrwt>
<totfact> 0.41864857E-01</totfact>
</mgrwt>
</event>
<event>
12    1  0.1960998E-007  0.1727542E+04  0.7818608E-02  0.8745810E-01
         -2   -1    0    0    0  501 -0.00000000000E+00  0.00000000000E+00  0.74050922264E+03  0.74050922264E+03  0.00000000000E+00 0. -1.
          2   -1    0    0  501    0  0.00000000000E+00 -0.00000000000E+00 -0.10075503384E+04  0.10075503384E+04  0.00000000000E+00 0.  1.
         23    2    1    2    0    0  0.21798518274E+03 -0.48449404569E+03  0.23786111087E+03  0.58791887005E+03  0.82575235346E+02 0.  0.
        254    2    1    2    0    0 -0.21798518274E+03  0.48449404569E+03 -0.50490222663E+03  0.11601406910E+04  0.89930425567E+03 0.  0.
        -24    2    4    4    0    0 -0.42026102655E+03  0.64546913696E+03 -0.35329869892E+03  0.85113707424E+03  0.79778514003E+02 0.  0.
         24    2    4    4    0    0  0.20227584380E+03 -0.16097509127E+03 -0.15160352771E+03  0.30900361676E+03  0.75306763038E+02 0.  0.
         11    1    3    3    0    0  0.86996500749E+02 -0.18452935594E+03  0.48210070634E+02  0.20962749165E+03  0.00000000000E+00 0.  1.
        -11    1    3    3    0    0  0.13098868199E+03 -0.29996468975E+03  0.18965104023E+03  0.37829137840E+03  0.00000000000E+00 0. -1.
          4    1    6    6  502    0  0.23686516749E+02 -0.37898469027E+02 -0.56860374589E+02  0.72321830927E+02  0.00000000000E+00 0. -1.
          1    1    5    5  503    0 -0.39635933797E+02  0.33009661345E+02 -0.10215476099E+02  0.52583276258E+02  0.00000000000E+00 0. -1.
         -2    1    5    5    0  503 -0.38062509275E+03  0.61245947561E+03 -0.34308322282E+03  0.79855379799E+03  0.00000000000E+00 0.  1.
         -3    1    6    6    0  502  0.17858932705E+03 -0.12307662224E+03 -0.94743153125E+02  0.23668178583E+03  0.00000000000E+00 0.  1.
<mgrwt>
<rscale>  0 0.17275420E+04</rscale>
<asrwt>0</asrwt>
<pdfrwt beam="1">  1        2 0.15500774E+00 0.17275420E+04</pdfrwt>
<pdfrwt beam="2">  1       -2 0.11392450E+00 0.17275420E+04</pdfrwt>
<totfact> 0.14270831E+01</totfact>
</mgrwt>
</event>
<event>
12    1  0.1960998E-007  0.3492027E+04  0.7818608E-02  0.8115682E-01
          2   -1    0    0  501    0  0.00000000000E+00  0.00000000000E+00  0.11626253885E+04  0.11626253885E+04  0.00000000000E+00 0. -1.
         -2   -1    0    0    0  501 -0.00000000000E+00 -0.00000000000E+00 -0.26221367373E+04  0.26221367373E+04  0.00000000000E+00 0.  1.
         23    2    1    2    0    0 -0.87403788309E+03 -0.12586245303E+04 -0.76142166079E+02  0.15376555790E+04  0.10251400337E+03 0.  0.
        254    2    1    2    0    0  0.87403788309E+03  0.12586245303E+04 -0.13833691828E+04  0.22471065468E+04  0.88752442624E+03 0.  0.
        -24    2    4    4    0    0  0.26941756071E+03  0.90805169207E+03 -0.11791882428E+04  0.15146184017E+04  0.80251438473E+02 0.  0.
         24    2    4    4    0    0  0.60462032238E+03  0.35057283825E+03 -0.20418094001E+03  0.73248814504E+03  0.79887278169E+02 0.  0.
         13    1    3    3    0    0 -0.41989955994E+03 -0.67887370239E+03 -0.68466236031E+02  0.80116962605E+03  0.00000000000E+00 0.  1.
        -13    1    3    3    0    0 -0.45413832315E+03 -0.57975082793E+03 -0.76759300488E+01  0.73648595298E+03  0.00000000000E+00 0. -1.
          4    1    6    6  502    0  0.56089688339E+03  0.29947675914E+03 -0.19151920958E+03  0.66405666227E+03  0.00000000000E+00 0. -1.
          3    1    5    5  503    0  0.27347901196E+03  0.90420109593E+03 -0.11688014167E+04  0.15028197309E+04  0.00000000000E+00 0. -1.
         -4    1    5    5    0  503 -0.40614512513E+01  0.38505961387E+01 -0.10386826119E+02  0.11798670846E+02  0.00000000000E+00 0.  1.
         -3    1    6    6    0  502  0.43723438988E+02  0.51096079111E+02 -0.12661730423E+02  0.68431482775E+02  0.00000000000E+00 0.  1.
<mgrwt>
<rscale>  0 0.34920268E+04</rscale>
<asrwt>0</asrwt>
<pdfrwt beam="1">  1        2 0.17886545E+00 0.34920268E+04</pdfrwt>
<pdfrwt beam="2">  1       -2 0.40340565E+00 0.34920268E+04</pdfrwt>
<totfact> 0.11554385E-01</totfact>
</mgrwt>
</event>
<event>
12    1  0.1960998E-007  0.1676743E+04  0.7818608E-02  0.8774741E-01
         -2   -1    0    0    0  501 -0.00000000000E+00  0.00000000000E+00  0.15368820196E+04  0.15368820196E+04  0.00000000000E+00 0.  1.
          2   -1    0    0  501    0  0.00000000000E+00 -0.00000000000E+00 -0.45733318331E+03  0.45733318331E+03  0.00000000000E+00 0. -1.
         23    2    1    2    0    0 -0.48724113095E+03  0.16331804242E+03  0.34923379824E+02  0.52324087392E+03  0.92112252281E+02 0.  0.
        254    2    1    2    0    0  0.48724113095E+03 -0.16331804242E+03  0.10446254565E+04  0.14709743290E+04  0.89913649106E+03 0.  0.
        -24    2    4    4    0    0 -0.15737276494E+03  0.19973204880E+03  0.14332548448E+03  0.30211390995E+03  0.77920097678E+02 0.  0.
         24    2    4    4    0    0  0.64461389588E+03 -0.36305009122E+03  0.90129997199E+03  0.11688604190E+04  0.80997507167E+02 0.  0.
         13    1    3    3    0    0 -0.50543213499E+02  0.47320492326E+02 -0.62967551078E+01  0.69523338165E+02  0.00000000000E+00 0.  1.
        -13    1    3    3    0    0 -0.43669791745E+03  0.11599755009E+03  0.41220134932E+02  0.45371753576E+03  0.00000000000E+00 0. -1.
          2    1    6    6  502    0  0.36565391426E+03 -0.17656860503E+03  0.54211641805E+03  0.67732523060E+03  0.00000000000E+00 0. -1.
          3    1    5    5  503    0 -0.24293485092E+02  0.15183530510E+02 -0.69005041841E+01  0.29467439228E+02  0.00000000000E+00 0. -1.
         -4    1    5    5    0  503 -0.13307927985E+03  0.18454851829E+03  0.15022598866E+03  0.27264647072E+03  0.00000000000E+00 0.  1.
         -1    1    6    6    0  502  0.27895998163E+03 -0.18648148619E+03  0.35918355394E+03  0.49153518843E+03  0.00000000000E+00 0.  1.
<mgrwt>
<rscale>  0 0.16767434E+04</rscale>
<asrwt>0</asrwt>
<pdfrwt beam="1">  1        2 0.70358952E-01 0.16767434E+04</pdfrwt>
<pdfrwt beam="2">  1       -2 0.23644338E+00 0.16767434E+04</pdfrwt>
<totfact> 0.50706575E+00</totfact>
</mgrwt>
</event>
<event>
12    1  0.1960998E-007  0.1094804E+04  0.7818608E-02  0.9210271E-01
         -2   -1    0    0    0  501 -0.00000000000E+00  0.00000000000E+00  0.35576559626E+03  0.35576559626E+03  0.00000000000E+00 0.  1.
          2   -1    0    0  501    0  0.00000000000E+00 -0.00000000000E+00 -0.84226553440E+03  0.84226553440E+03  0.00000000000E+00 0. -1.
         23    2    1    2    0    0 -0.86115401136E+02 -0.31507616381E+02 -0.21043285169E+03  0.24987668110E+03  0.98730838561E+02 0.  0.
        254    2    1    2    0    0  0.86115401136E+02  0.31507616381E+02 -0.27606708645E+03  0.94815444957E+03  0.90242741083E+03 0.  0.
        -24    2    4    4    0    0 -0.59289713425E+02  0.42971365513E+03 -0.96311504948E+01  0.44103642045E+03  0.79064970600E+02 0.  0.
         24    2    4    4    0    0  0.14540511456E+03 -0.39820603875E+03 -0.26643593595E+03  0.50711802912E+03  0.80435631733E+02 0.  0.
         11    1    3    3    0    0 -0.51787301547E+02 -0.27697441643E+02 -0.29584173915E+02  0.65759381242E+02  0.00000000000E+00 0.  1.
        -11    1    3    3    0    0 -0.34328099589E+02 -0.38101747380E+01 -0.18084867778E+03  0.18411729986E+03  0.00000000000E+00 0. -1.
          4    1    6    6  502    0  0.11526259395E+03 -0.37801418052E+03 -0.24496110995E+03  0.46495820417E+03  0.00000000000E+00 0. -1.
          1    1    5    5  503    0 -0.35295922808E+02  0.31850363746E+03  0.26812150265E+02  0.32157310311E+03  0.00000000000E+00 0. -1.
         -2    1    5    5    0  503 -0.23993790617E+02  0.11121001767E+03 -0.36443300760E+02  0.11946331733E+03  0.00000000000E+00 0.  1.
         -3    1    6    6    0  502  0.30142520614E+02 -0.20191858230E+02 -0.21474826003E+02  0.42159824947E+02  0.00000000000E+00 0.  1.
<mgrwt>
<rscale>  0 0.10948043E+04</rscale>
<asrwt>0</asrwt>
<pdfrwt beam="1">  1        2 0.12957931E+00 0.10948043E+04</pdfrwt>
<pdfrwt beam="2">  1       -2 0.54733169E-01 0.10948043E+04</pdfrwt>
<totfact> 0.10025511E+02</totfact>
</mgrwt>
</event>
<event>
12    1  0.1960998E-007  0.1722671E+04  0.7818608E-02  0.8748539E-01
         -1   -1    0    0    0  501 -0.00000000000E+00  0.00000000000E+00  0.25209310572E+03  0.25209310572E+03  0.00000000000E+00 0.  1.
          1   -1    0    0  501    0  0.00000000000E+00 -0.00000000000E+00 -0.29429547615E+04  0.29429547615E+04  0.00000000000E+00 0. -1.
         23    2    1    2    0    0  0.13519028708E+02  0.56094513457E+03 -0.48165565532E+03  0.74385456368E+03  0.80530947272E+02 0.  0.
        254    2    1    2    0    0 -0.13519028708E+02 -0.56094513457E+03 -0.22092060005E+04  0.24511933035E+04  0.90161812909E+03 0.  0.
        -24    2    4    4    0    0  0.21105086895E+03 -0.12029713820E+03 -0.17607114674E+04  0.17790821532E+04  0.77553631394E+02 0.  0.
         24    2    4    4    0    0 -0.22456989766E+03 -0.44064799637E+03 -0.44849453303E+03  0.67211115029E+03  0.77354744820E+02 0.  0.
         11    1    3    3    0    0  0.32129515430E+02  0.39891624450E+03 -0.37871007865E+03  0.55098802125E+03  0.00000000000E+00 0. -1.
        -11    1    3    3    0    0 -0.18610486722E+02  0.16202889007E+03 -0.10294557667E+03  0.19286654243E+03  0.00000000000E+00 0.  1.
          4    1    6    6  502    0 -0.17858629938E+03 -0.33213991171E+03 -0.38207029179E+03  0.53683116075E+03  0.00000000000E+00 0. -1.
          1    1    5    5  503    0  0.41484895101E+02  0.41728227105E+01 -0.40637322305E+03  0.40850655489E+03  0.00000000000E+00 0. -1.
         -2    1    5    5    0  503  0.16956597385E+03 -0.12446996092E+03 -0.13543382444E+04  0.13705755984E+04  0.00000000000E+00 0.  1.
         -3    1    6    6    0  502 -0.45983598277E+02 -0.10850808465E+03 -0.66424241238E+02  0.13527998954E+03  0.00000000000E+00 0.  1.
<mgrwt>
<rscale>  0 0.17226707E+04</rscale>
<asrwt>0</asrwt>
<pdfrwt beam="1">  1        1 0.45276231E+00 0.17226707E+04</pdfrwt>
<pdfrwt beam="2">  1       -1 0.38783551E-01 0.17226707E+04</pdfrwt>
<totfact> 0.40399374E+00</totfact>
</mgrwt>
</event>
<event>
12    1  0.1960998E-007  0.2704270E+04  0.7818608E-02  0.8333621E-01
         -1   -1    0    0    0  501 -0.00000000000E+00  0.00000000000E+00  0.10535499490E+04  0.10535499490E+04  0.00000000000E+00 0. -1.
          1   -1    0    0  501    0  0.00000000000E+00 -0.00000000000E+00 -0.17353419081E+04  0.17353419081E+04  0.00000000000E+00 0.  1.
         23    2    1    2    0    0 -0.81823335753E+03  0.87240379736E+03 -0.40353026731E+03  0.12658413573E+04  0.94464025609E+02 0.  0.
        254    2    1    2    0    0  0.81823335753E+03 -0.87240379736E+03 -0.27826169180E+03  0.15230504999E+04  0.90092121912E+03 0.  0.
        -24    2    4    4    0    0 -0.89488852001E+02 -0.43937737048E+03 -0.23633329558E+03  0.51283535449E+03  0.78012472698E+02 0.  0.
         24    2    4    4    0    0  0.90772220953E+03 -0.43302642688E+03 -0.41928396223E+02  0.10102151454E+04  0.85470190832E+02 0.  0.
         11    1    3    3    0    0 -0.30137079303E+03  0.38261878797E+03 -0.14301437130E+03  0.50761658976E+03  0.00000000000E+00 0. -1.
        -11    1    3    3    0    0 -0.51686256450E+03  0.48978500938E+03 -0.26051589601E+03  0.75822476751E+03  0.00000000000E+00 0.  1.
          2    1    6    6  502    0  0.52912266728E+03 -0.29741340541E+03 -0.35286273711E+02  0.60800547025E+03  0.00000000000E+00 0. -1.
          1    1    5    5  503    0 -0.56821202665E+02 -0.20839510917E+03 -0.15468902110E+03  0.26568000272E+03  0.00000000000E+00 0. -1.
         -2    1    5    5    0  503 -0.32667649336E+02 -0.23098226131E+03 -0.81644274481E+02  0.24715535177E+03  0.00000000000E+00 0.  1.
         -1    1    6    6    0  502  0.37859954224E+03 -0.13561302147E+03 -0.66421225117E+01  0.40220967513E+03  0.00000000000E+00 0.  1.
<mgrwt>
<rscale>  0 0.27042702E+04</rscale>
<asrwt>0</asrwt>
<pdfrwt beam="1">  1        1 0.26697568E+00 0.27042702E+04</pdfrwt>
<pdfrwt beam="2">  1       -1 0.16208461E+00 0.27042702E+04</pdfrwt>
<totfact> 0.11090725E+00</totfact>
</mgrwt>
</event>
<event>
12    1  0.1960998E-007  0.2087329E+04  0.7818608E-02  0.8566845E-01
         -1   -1    0    0    0  501 -0.00000000000E+00  0.00000000000E+00  0.40965916462E+03  0.40965916462E+03  0.00000000000E+00 0.  1.
          1   -1    0    0  501    0  0.00000000000E+00 -0.00000000000E+00 -0.26588836508E+04  0.26588836508E+04  0.00000000000E+00 0. -1.
         23    2    1    2    0    0 -0.71515400028E+03  0.79260273680E+02 -0.26132928791E+03  0.77050727518E+03  0.87527305899E+02 0.  0.
        254    2    1    2    0    0  0.71515400028E+03 -0.79260273680E+02 -0.19878951983E+04  0.22980355403E+04  0.90083993573E+03 0.  0.
        -24    2    4    4    0    0  0.80855374338E+03 -0.23000154835E+03 -0.19102446532E+04  0.20886770285E+04  0.82929042290E+02 0.  0.
         24    2    4    4    0    0 -0.93399743092E+02  0.15074127467E+03 -0.77650545127E+02  0.20935851181E+03  0.79717848751E+02 0.  0.
         13    1    3    3    0    0 -0.16163535707E+03  0.36509236464E+02 -0.26913758737E+02  0.16787871638E+03  0.00000000000E+00 0.  1.
        -13    1    3    3    0    0 -0.55351864321E+03  0.42751037216E+02 -0.23441552917E+03  0.60262855880E+03  0.00000000000E+00 0. -1.
          2    1    6    6  502    0 -0.91504980799E+02  0.74120947325E+02 -0.48624092393E+02  0.12740242817E+03  0.00000000000E+00 0. -1.
          3    1    5    5  503    0  0.78039876009E+03 -0.20689836344E+03 -0.18058313909E+04  0.19780940751E+04  0.00000000000E+00 0. -1.
         -4    1    5    5    0  503  0.28154983283E+02 -0.23103184914E+02 -0.10441326225E+03  0.11058295335E+03  0.00000000000E+00 0.  1.
         -1    1    6    6    0  502 -0.18947622936E+01  0.76620327346E+02 -0.29026452734E+02  0.81956083637E+02  0.00000000000E+00 0.  1.
<mgrwt>
<rscale>  0 0.20873294E+04</rscale>
<asrwt>0</asrwt>
<pdfrwt beam="1">  1        1 0.40905902E+00 0.20873294E+04</pdfrwt>
<pdfrwt beam="2">  1       -1 0.63024487E-01 0.20873294E+04</pdfrwt>
<totfact> 0.24677791E+00</totfact>
</mgrwt>
</event>
<event>
12    1  0.1960998E-007  0.1771858E+04  0.7818608E-02  0.8721410E-01
         -2   -1    0    0    0  501 -0.00000000000E+00  0.00000000000E+00  0.10247123149E+04  0.10247123149E+04  0.00000000000E+00 0.  1.
          2   -1    0    0  501    0  0.00000000000E+00 -0.00000000000E+00 -0.76594174226E+03  0.76594174226E+03  0.00000000000E+00 0. -1.
         23    2    1    2    0    0 -0.58306075246E+03  0.21313797914E+03  0.30211480937E+03  0.69618470335E+03  0.89510579955E+02 0.  0.
        254    2    1    2    0    0  0.58306075246E+03 -0.21313797914E+03 -0.43344236689E+02  0.10944693538E+04  0.90033149697E+03 0.  0.
        -24    2    4    4    0    0  0.25047016673E+02 -0.38872463841E+03  0.21148800879E+03  0.45039629835E+03  0.79971558372E+02 0.  0.
         24    2    4    4    0    0  0.55801373579E+03  0.17558665928E+03 -0.25483224548E+03  0.64407305549E+03  0.87639164946E+02 0.  0.
         11    1    3    3    0    0 -0.16405686865E+03  0.64990784000E+02  0.42565914361E+02  0.18152221688E+03  0.00000000000E+00 0. -1.
        -11    1    3    3    0    0 -0.41900388382E+03  0.14814719514E+03  0.25954889501E+03  0.51466248647E+03  0.00000000000E+00 0.  1.
          4    1    6    6  502    0  0.70297579637E+02  0.26758741026E+01 -0.55275930508E+02  0.89466968758E+02  0.00000000000E+00 0. -1.
          1    1    5    5  503    0 -0.17394476796E+02 -0.90325003240E+02  0.78625611818E+02  0.12100892887E+03  0.00000000000E+00 0. -1.
         -2    1    5    5    0  503  0.42441493469E+02 -0.29839963517E+03  0.13286239698E+03  0.32938736948E+03  0.00000000000E+00 0.  1.
         -3    1    6    6    0  502  0.48771615615E+03  0.17291078517E+03 -0.19955631497E+03  0.55460608674E+03  0.00000000000E+00 0.  1.
<mgrwt>
<rscale>  0 0.17718577E+04</rscale>
<asrwt>0</asrwt>
<pdfrwt beam="1">  1        2 0.11783719E+00 0.17718577E+04</pdfrwt>
<pdfrwt beam="2">  1       -2 0.15764805E+00 0.17718577E+04</pdfrwt>
<totfact> 0.90482834E+00</totfact>
</mgrwt>
</event>
<event>
12    1  0.1960998E-007  0.1866490E+04  0.7818608E-02  0.8671719E-01
         -2   -1    0    0    0  501 -0.00000000000E+00  0.00000000000E+00  0.23510770487E+03  0.23510770487E+03  0.00000000000E+00 0.  1.
          2   -1    0    0  501    0  0.00000000000E+00 -0.00000000000E+00 -0.37044553171E+04  0.37044553171E+04  0.00000000000E+00 0. -1.
         23    2    1    2    0    0 -0.45118202574E+03  0.44032919060E+03 -0.62324598990E+03  0.89121448593E+03  0.91502347306E+02 0.  0.
        254    2    1    2    0    0  0.45118202574E+03 -0.44032919060E+03 -0.28461016223E+04  0.30483485360E+04  0.89144788750E+03 0.  0.
        -24    2    4    4    0    0  0.56529018701E+03 -0.13558589320E+03 -0.90523816495E+03  0.10787965264E+04  0.80057979820E+02 0.  0.
         24    2    4    4    0    0 -0.11410816127E+03 -0.30474329740E+03 -0.19408634574E+04  0.19695520096E+04  0.79341090961E+02 0.  0.
         13    1    3    3    0    0 -0.23704447211E+03  0.17277433512E+03 -0.26234988204E+03  0.39353336992E+03  0.00000000000E+00 0. -1.
        -13    1    3    3    0    0 -0.21413755363E+03  0.26755485548E+03 -0.36089610786E+03  0.49768111601E+03  0.00000000000E+00 0.  1.
          4    1    6    6  502    0 -0.43103957579E+02 -0.81743538880E+02 -0.37079296309E+03  0.38213528859E+03  0.00000000000E+00 0. -1.
          3    1    5    5  503    0  0.66756835733E+02 -0.40666443990E+02 -0.14516230140E+03  0.16487064181E+03  0.00000000000E+00 0. -1.
         -4    1    5    5    0  503  0.49853335128E+03 -0.94919449208E+02 -0.76007586355E+03  0.91392588459E+03  0.00000000000E+00 0.  1.
         -3    1    6    6    0  502 -0.71004203690E+02 -0.22299975852E+03 -0.15700704943E+04  0.15874167210E+04  0.00000000000E+00 0.  1.
<mgrwt>
<rscale>  0 0.18664897E+04</rscale>
<asrwt>0</asrwt>
<pdfrwt beam="1">  1        2 0.56991618E+00 0.18664897E+04</pdfrwt>
<pdfrwt beam="2">  1       -2 0.36170418E-01 0.18664897E+04</pdfrwt>
<totfact> 0.39492840E+00</totfact>
</mgrwt>
</event>
<event>
12    1  0.1960998E-007  0.1307083E+04  0.7818608E-02  0.9023967E-01
          1   -1    0    0  501    0  0.00000000000E+00  0.00000000000E+00  0.67199905999E+03  0.67199905999E+03  0.00000000000E+00 0. -1.
         -1   -1    0    0    0  501 -0.00000000000E+00 -0.00000000000E+00 -0.63559113575E+03  0.63559113575E+03  0.00000000000E+00 0.  1.
         23    2    1    2    0    0 -0.17477009637E+03 -0.82475095668E+02 -0.25833826093E+03  0.33472850026E+03  0.89206411422E+02 0.  0.
        254    2    1    2    0    0  0.17477009637E+03  0.82475095668E+02  0.29474618517E+03  0.97286169549E+03  0.90677331064E+03 0.  0.
        -24    2    4    4    0    0 -0.32620726101E+03  0.75076817378E+02  0.31310947316E+03  0.46550743773E+03  0.81313755039E+02 0.  0.
         24    2    4    4    0    0  0.50097735738E+03  0.73982782909E+01 -0.18363287995E+02  0.50735425775E+03  0.77705118161E+02 0.  0.
         13    1    3    3    0    0 -0.23069994253E+02 -0.21280181451E+02 -0.30560601809E+01  0.31534271218E+02  0.00000000000E+00 0. -1.
        -13    1    3    3    0    0 -0.15170010211E+03 -0.61194914217E+02 -0.25528220075E+03  0.30319422904E+03  0.00000000000E+00 0.  1.
          4    1    6    6  502    0  0.20128830414E+03 -0.12031953602E+02 -0.42464912041E+02  0.20607042012E+03  0.00000000000E+00 0. -1.
          3    1    5    5  503    0 -0.33043740459E+03  0.71220188445E+02  0.30329968518E+03  0.45414963682E+03  0.00000000000E+00 0. -1.
         -4    1    5    5    0  503  0.42301435767E+01  0.38566289323E+01  0.98097879772E+01  0.11357800912E+02  0.00000000000E+00 0.  1.
         -3    1    6    6    0  502  0.29968905323E+03  0.19430231892E+02  0.24101624046E+02  0.30128383764E+03  0.00000000000E+00 0.  1.
<mgrwt>
<rscale>  0 0.13070832E+04</rscale>
<asrwt>0</asrwt>
<pdfrwt beam="1">  1        1 0.10338447E+00 0.13070832E+04</pdfrwt>
<pdfrwt beam="2">  1       -1 0.97783252E-01 0.13070832E+04</pdfrwt>
<totfact> 0.28560884E+01</totfact>
</mgrwt>
</event>
<event>
12    1  0.1960998E-007  0.2918141E+04  0.7818608E-02  0.8267500E-01
         -2   -1    0    0    0  501 -0.00000000000E+00  0.00000000000E+00  0.12629444105E+04  0.12629444105E+04  0.00000000000E+00 0.  1.
          2   -1    0    0  501    0  0.00000000000E+00 -0.00000000000E+00 -0.16856532139E+04  0.16856532139E+04  0.00000000000E+00 0. -1.
         23    2    1    2    0    0 -0.88787948090E+02 -0.13178393618E+04 -0.14959375561E+03  0.13321074114E+04  0.86879114359E+02 0.  0.
        254    2    1    2    0    0  0.88787948090E+02  0.13178393618E+04 -0.27311504779E+03  0.16164902130E+04  0.89099096310E+03 0.  0.
        -24    2    4    4    0    0 -0.11201348535E+03  0.16870967713E+03 -0.38408133687E+03  0.44164897997E+03  0.80779775442E+02 0.  0.
         24    2    4    4    0    0  0.20080143344E+03  0.11491296847E+04  0.11096628908E+03  0.11748412331E+04  0.84369175469E+02 0.  0.
         11    1    3    3    0    0 -0.62607748135E+02 -0.45128766784E+03 -0.77660599478E+02  0.46218119605E+03  0.00000000000E+00 0. -1.
        -11    1    3    3    0    0 -0.26180199955E+02 -0.86655169396E+03 -0.71933156134E+02  0.86992621533E+03  0.00000000000E+00 0.  1.
          4    1    6    6  502    0 -0.28264074014E+01  0.78466810920E+02 -0.58974005221E+01  0.78738861610E+02  0.00000000000E+00 0. -1.
          1    1    5    5  503    0 -0.54790286593E+02  0.20458532924E+02 -0.88959306654E+02  0.10646260054E+03  0.00000000000E+00 0. -1.
         -2    1    5    5    0  503 -0.57223198754E+02  0.14825114421E+03 -0.29512203021E+03  0.33518637942E+03  0.00000000000E+00 0.  1.
         -3    1    6    6    0  502  0.20362784084E+03  0.10706628738E+04  0.11686368960E+03  0.10961023715E+04  0.00000000000E+00 0.  1.
<mgrwt>
<rscale>  0 0.29181407E+04</rscale>
<asrwt>0</asrwt>
<pdfrwt beam="1">  1        2 0.25933127E+00 0.29181407E+04</pdfrwt>
<pdfrwt beam="2">  1       -2 0.19429914E+00 0.29181407E+04</pdfrwt>
<totfact> 0.12489527E+00</totfact>
</mgrwt>
</event>
<event>
12    1  0.1960998E-007  0.2224322E+04  0.7818608E-02  0.8508372E-01
         -1   -1    0    0    0  501 -0.00000000000E+00  0.00000000000E+00  0.57286244868E+03  0.57286244868E+03  0.00000000000E+00 0.  1.
          1   -1    0    0  501    0  0.00000000000E+00 -0.00000000000E+00 -0.21591606059E+04  0.21591606059E+04  0.00000000000E+00 0. -1.
         23    2    1    2    0    0  0.61931700409E+03 -0.50048549532E+03 -0.77228255618E+02  0.80524023481E+03  0.91697053987E+02 0.  0.
        254    2    1    2    0    0 -0.61931700409E+03  0.50048549532E+03 -0.15090699016E+04  0.19267828198E+04  0.89507585383E+03 0.  0.
        -24    2    4    4    0    0 -0.58639630883E+03  0.51841516121E+03 -0.54240115119E+03  0.95555352223E+03  0.79174583329E+02 0.  0.
         24    2    4    4    0    0 -0.32920695254E+02 -0.17929665887E+02 -0.96666875041E+03  0.97122929755E+03  0.86212703869E+02 0.  0.
         11    1    3    3    0    0  0.23549827749E+03 -0.18229234235E+03 -0.73154797194E+02  0.30666196558E+03  0.00000000000E+00 0. -1.
        -11    1    3    3    0    0  0.38381872660E+03 -0.31819315297E+03 -0.40734584245E+01  0.49857826923E+03  0.00000000000E+00 0.  1.
          4    1    6    6  502    0  0.15084580649E+02  0.24156485137E+02 -0.38969812275E+03  0.39073738908E+03  0.00000000000E+00 0. -1.
          3    1    5    5  503    0 -0.16990226184E+03  0.10431733620E+03 -0.13690986029E+03  0.24185366455E+03  0.00000000000E+00 0. -1.
         -4    1    5    5    0  503 -0.41649404699E+03  0.41409782501E+03 -0.40549129090E+03  0.71369985768E+03  0.00000000000E+00 0.  1.
         -3    1    6    6    0  502 -0.48005275903E+02 -0.42086151024E+02 -0.57697062766E+03  0.58049190848E+03  0.00000000000E+00 0.  1.
<mgrwt>
<rscale>  0 0.22243219E+04</rscale>
<asrwt>0</asrwt>
<pdfrwt beam="1">  1        1 0.33217855E+00 0.22243219E+04</pdfrwt>
<pdfrwt beam="2">  1       -1 0.88132684E-01 0.22243219E+04</pdfrwt>
<totfact> 0.26728795E+00</totfact>
</mgrwt>
</event>
<event>
12    1  0.1960998E-007  0.1607439E+04  0.7818608E-02  0.8815991E-01
         -2   -1    0    0    0  501 -0.00000000000E+00  0.00000000000E+00  0.30614316263E+03  0.30614316263E+03  0.00000000000E+00 0.  1.
          2   -1    0    0  501    0  0.00000000000E+00 -0.00000000000E+00 -0.21100103581E+04  0.21100103581E+04  0.00000000000E+00 0. -1.
         23    2    1    2    0    0  0.32089166073E+03 -0.44021417355E+03 -0.55617923418E+03  0.78427840372E+03  0.94854085217E+02 0.  0.
        254    2    1    2    0    0 -0.32089166073E+03  0.44021417355E+03 -0.12476879613E+04  0.16318751170E+04  0.89973950243E+03 0.  0.
        -24    2    4    4    0    0  0.13514612005E+03  0.17254333358E+03  0.40140188631E+02  0.23696715132E+03  0.80663004760E+02 0.  0.
         24    2    4    4    0    0 -0.45603778078E+03  0.26767083997E+03 -0.12878281499E+04  0.13949079657E+04  0.87457149079E+02 0.  0.
         11    1    3    3    0    0  0.19107045305E+03 -0.33578200932E+03 -0.38967222517E+03  0.54872754522E+03  0.00000000000E+00 0. -1.
        -11    1    3    3    0    0  0.12982120769E+03 -0.10443216423E+03 -0.16650700901E+03  0.23555085850E+03  0.00000000000E+00 0.  1.
          4    1    6    6  502    0 -0.17173512747E+03  0.14577477381E+03 -0.59252870439E+03  0.63390338712E+03  0.00000000000E+00 0. -1.
          3    1    5    5  503    0  0.62223300349E+02  0.25694813219E+02  0.26831357215E+02  0.72469885212E+02  0.00000000000E+00 0. -1.
         -4    1    5    5    0  503  0.72922819697E+02  0.14684852036E+03  0.13308831416E+02  0.16449726611E+03  0.00000000000E+00 0.  1.
         -3    1    6    6    0  502 -0.28430265331E+03  0.12189606616E+03 -0.69529944555E+03  0.76100457857E+03  0.00000000000E+00 0.  1.
<mgrwt>
<rscale>  0 0.16074393E+04</rscale>
<asrwt>0</asrwt>
<pdfrwt beam="1">  1        2 0.32461698E+00 0.16074393E+04</pdfrwt>
<pdfrwt beam="2">  1       -2 0.47098948E-01 0.16074393E+04</pdfrwt>
<totfact> 0.23764934E+01</totfact>
</mgrwt>
</event>
<event>
12    1  0.1960998E-007  0.3195861E+04  0.7818608E-02  0.8189911E-01
         -2   -1    0    0    0  501 -0.00000000000E+00  0.00000000000E+00  0.17672054059E+04  0.17672054059E+04  0.00000000000E+00 0.  1.
          2   -1    0    0  501    0  0.00000000000E+00 -0.00000000000E+00 -0.14448703368E+04  0.14448703368E+04  0.00000000000E+00 0. -1.
         23    2    1    2    0    0  0.10341744729E+04  0.10384127455E+04  0.42156749891E+02  0.14689831596E+04  0.91194633536E+02 0.  0.
        254    2    1    2    0    0 -0.10341744729E+04 -0.10384127455E+04  0.28017831928E+03  0.17430925831E+04  0.90114038443E+03 0.  0.
        -24    2    4    4    0    0 -0.34956755502E+03  0.10350858951E+03 -0.26670015638E+02  0.37445763581E+03  0.81214085331E+02 0.  0.
         24    2    4    4    0    0 -0.68460691784E+03 -0.11419213350E+04  0.30684833492E+03  0.13686349473E+04  0.79591149618E+02 0.  0.
         13    1    3    3    0    0  0.83272827170E+03  0.85760515667E+03  0.23084691548E+01  0.11953778935E+04  0.00000000000E+00 0. -1.
        -13    1    3    3    0    0  0.20144620116E+03  0.18080758883E+03  0.39848280737E+02  0.27360526606E+03  0.00000000000E+00 0.  1.
          2    1    6    6  502    0 -0.33762836220E+03 -0.63033786631E+03  0.14450616411E+03  0.72952091686E+03  0.00000000000E+00 0. -1.
          3    1    5    5  503    0 -0.30038083689E+03  0.10907611313E+03 -0.42731627633E+02  0.32241624902E+03  0.00000000000E+00 0. -1.
         -4    1    5    5    0  503 -0.49186718129E+02 -0.55675236255E+01  0.16061611995E+02  0.52041386795E+02  0.00000000000E+00 0.  1.
         -1    1    6    6    0  502 -0.34697855564E+03 -0.51158346870E+03  0.16234217080E+03  0.63911403047E+03  0.00000000000E+00 0.  1.
<mgrwt>
<rscale>  0 0.31958615E+04</rscale>
<asrwt>0</asrwt>
<pdfrwt beam="1">  1        2 0.22228774E+00 0.31958615E+04</pdfrwt>
<pdfrwt beam="2">  1       -2 0.27187775E+00 0.31958615E+04</pdfrwt>
<totfact> 0.54240162E-01</totfact>
</mgrwt>
</event>
<event>
12    1  0.1960998E-007  0.2307653E+04  0.7818608E-02  0.8474910E-01
          2   -1    0    0  501    0  0.00000000000E+00  0.00000000000E+00  0.13276753069E+04  0.13276753069E+04  0.00000000000E+00 0. -1.
         -2   -1    0    0    0  501 -0.00000000000E+00 -0.00000000000E+00 -0.10027417271E+04  0.10027417271E+04  0.00000000000E+00 0.  1.
         23    2    1    2    0    0 -0.92619814915E+03 -0.28708289186E+03  0.76704731379E+01  0.97254534037E+03  0.74337101342E+02 0.  0.
        254    2    1    2    0    0  0.92619814915E+03  0.28708289186E+03  0.31726310667E+03  0.13578716937E+04  0.89604690686E+03 0.  0.
        -24    2    4    4    0    0  0.32639159795E+03  0.10368594732E+03 -0.30755931962E+03  0.46803229907E+03  0.84730437315E+02 0.  0.
         24    2    4    4    0    0  0.59980655120E+03  0.18339694453E+03  0.62482242629E+03  0.88983939458E+03  0.89491595254E+02 0.  0.
         11    1    3    3    0    0 -0.40003521671E+03 -0.10079193502E+03  0.32576646027E+02  0.41382173292E+03  0.00000000000E+00 0.  1.
        -11    1    3    3    0    0 -0.52616293244E+03 -0.18629095683E+03 -0.24906172889E+02  0.55872360745E+03  0.00000000000E+00 0. -1.
          2    1    6    6  502    0  0.40840668793E+03  0.11016973091E+03  0.47457864340E+03  0.63573444230E+03  0.00000000000E+00 0. -1.
          3    1    5    5  503    0  0.15824682169E+03  0.31668353155E+02 -0.93689783233E+02  0.18660845814E+03  0.00000000000E+00 0. -1.
         -4    1    5    5    0  503  0.16814477626E+03  0.72017594168E+02 -0.21386953639E+03  0.28142384094E+03  0.00000000000E+00 0.  1.
         -1    1    6    6    0  502  0.19139986328E+03  0.73227213622E+02  0.15024378289E+03  0.25410495228E+03  0.00000000000E+00 0.  1.
<mgrwt>
<rscale>  0 0.23076529E+04</rscale>
<asrwt>0</asrwt>
<pdfrwt beam="1">  1        2 0.20425774E+00 0.23076529E+04</pdfrwt>
<pdfrwt beam="2">  1       -2 0.15426796E+00 0.23076529E+04</pdfrwt>
<totfact> 0.40132422E+00</totfact>
</mgrwt>
</event>
<event>
12    1  0.1960998E-007  0.1539547E+04  0.7818608E-02  0.8858572E-01
          2   -1    0    0  501    0  0.00000000000E+00  0.00000000000E+00  0.99665670467E+03  0.99665670467E+03  0.00000000000E+00 0. -1.
         -2   -1    0    0    0  501 -0.00000000000E+00 -0.00000000000E+00 -0.59453892545E+03  0.59453892545E+03  0.00000000000E+00 0.  1.
         23    2    1    2    0    0  0.30444345917E+02 -0.47373402968E+03 -0.27906175829E+02  0.48440683739E+03  0.92306231579E+02 0.  0.
        254    2    1    2    0    0 -0.30444345917E+02  0.47373402968E+03  0.43002395505E+03  0.11067887927E+04  0.90261289638E+03 0.  0.
        -24    2    4    4    0    0  0.21367057833E+03  0.40825002872E+03 -0.13185857759E+03  0.48536166088E+03  0.76590178053E+02 0.  0.
         24    2    4    4    0    0 -0.24411492424E+03  0.65484000956E+02  0.56188253264E+03  0.62142713184E+03  0.81113803334E+02 0.  0.
         11    1    3    3    0    0  0.11884541122E+02 -0.39264544001E+03 -0.55582596181E+02  0.39673808599E+03  0.00000000000E+00 0.  1.
        -11    1    3    3    0    0  0.18559804795E+02 -0.81088589667E+02  0.27676420351E+02  0.87668751398E+02  0.00000000000E+00 0. -1.
          2    1    6    6  502    0 -0.93764030734E+02  0.38321230478E+02  0.14054006815E+03  0.17323891283E+03  0.00000000000E+00 0. -1.
          1    1    5    5  503    0  0.77069204378E+02  0.11301999237E+03 -0.71741773393E+01  0.13698412229E+03  0.00000000000E+00 0. -1.
         -2    1    5    5    0  503  0.13660137395E+03  0.29523003635E+03 -0.12468440025E+03  0.34837753859E+03  0.00000000000E+00 0.  1.
         -1    1    6    6    0  502 -0.15035089351E+03  0.27162770478E+02  0.42134246449E+03  0.44818821901E+03  0.00000000000E+00 0.  1.
<mgrwt>
<rscale>  0 0.15395470E+04</rscale>
<asrwt>0</asrwt>
<pdfrwt beam="1">  1        2 0.15333180E+00 0.15395470E+04</pdfrwt>
<pdfrwt beam="2">  1       -2 0.91467527E-01 0.15395470E+04</pdfrwt>
<totfact> 0.24829859E+01</totfact>
</mgrwt>
</event>
<event>
12    1  0.1960998E-007  0.1080817E+04  0.7818608E-02  0.9224093E-01
         -2   -1    0    0    0  501 -0.00000000000E+00  0.00000000000E+00  0.14386930819E+03  0.14386930819E+03  0.00000000000E+00 0.  1.
          2   -1    0    0  501    0  0.00000000000E+00 -0.00000000000E+00 -0.20299078924E+04  0.20299078924E+04  0.00000000000E+00 0. -1.
         23    2    1    2    0    0  0.12026158135E+03  0.64092480048E+02 -0.21019382345E+03  0.26412664296E+03  0.83730198603E+02 0.  0.
        254    2    1    2    0    0 -0.12026158135E+03 -0.64092480048E+02 -0.16758447608E+04  0.19096505576E+04  0.90539433183E+03 0.  0.
        -24    2    4    4    0    0 -0.50986351087E+03 -0.41077129637E+02 -0.96379043001E+03  0.10940010559E+04  0.79361118442E+02 0.  0.
         24    2    4    4    0    0  0.38960192952E+03 -0.23015350410E+02 -0.71205433078E+03  0.81564950171E+03  0.77093254018E+02 0.  0.
         11    1    3    3    0    0  0.52873382828E+02  0.72170399721E+02 -0.14257828893E+03  0.16832328919E+03  0.00000000000E+00 0. -1.
        -11    1    3    3    0    0  0.67388198527E+02 -0.80779196738E+01 -0.67615534520E+02  0.95803353780E+02  0.00000000000E+00 0.  1.
          2    1    6    6  502    0  0.15180030165E+02  0.15048040998E+02 -0.42468471780E+02  0.47544168401E+02  0.00000000000E+00 0. -1.
          1    1    5    5  503    0 -0.14485267178E+03 -0.22067906539E+02 -0.35298747373E+03  0.38219032645E+03  0.00000000000E+00 0. -1.
         -2    1    5    5    0  503 -0.36501083909E+03 -0.19009223099E+02 -0.61080295628E+03  0.71181072949E+03  0.00000000000E+00 0.  1.
         -1    1    6    6    0  502  0.37442189935E+03 -0.38063391408E+02 -0.66958585900E+03  0.76810533331E+03  0.00000000000E+00 0.  1.
<mgrwt>
<rscale>  0 0.10808172E+04</rscale>
<asrwt>0</asrwt>
<pdfrwt beam="1">  1        2 0.31229349E+00 0.10808172E+04</pdfrwt>
<pdfrwt beam="2">  1       -2 0.22133742E-01 0.10808172E+04</pdfrwt>
<totfact> 0.11446374E+02</totfact>
</mgrwt>
</event>
<event>
12    1  0.1960998E-007  0.1519985E+04  0.7818608E-02  0.8871271E-01
          1   -1    0    0  501    0  0.00000000000E+00  0.00000000000E+00  0.39215583104E+03  0.39215583104E+03  0.00000000000E+00 0. -1.
         -1   -1    0    0    0  501 -0.00000000000E+00 -0.00000000000E+00 -0.14728541945E+04  0.14728541945E+04  0.00000000000E+00 0.  1.
         23    2    1    2    0    0  0.12609103836E+03  0.39994415723E+03 -0.60434295247E+02  0.43312636099E+03  0.89954775746E+02 0.  0.
        254    2    1    2    0    0 -0.12609103836E+03 -0.39994415723E+03 -0.10202640682E+04  0.14318836645E+04  0.91296099645E+03 0.  0.
        -24    2    4    4    0    0  0.38684594908E+03 -0.16785064865E+03 -0.35699286418E+03  0.55826461465E+03  0.79949023261E+02 0.  0.
         24    2    4    4    0    0 -0.51293698744E+03 -0.23209350858E+03 -0.66327120399E+03  0.87361904987E+03  0.79434277485E+02 0.  0.
         13    1    3    3    0    0  0.11429851129E+03  0.32431601901E+03 -0.15170364127E+02  0.34420222227E+03  0.00000000000E+00 0.  1.
        -13    1    3    3    0    0  0.11792527075E+02  0.75628138226E+02 -0.45263931120E+02  0.88924138718E+02  0.00000000000E+00 0. -1.
          4    1    6    6  502    0 -0.11236292210E+03 -0.27191804567E+02 -0.10121840999E+03  0.15365541650E+03  0.00000000000E+00 0. -1.
          3    1    5    5  503    0  0.10469677427E+03 -0.60703822998E+02 -0.14788944401E+03  0.19109593485E+03  0.00000000000E+00 0. -1.
         -4    1    5    5    0  503  0.28214917481E+03 -0.10714682565E+03 -0.20910342018E+03  0.36716867979E+03  0.00000000000E+00 0.  1.
         -3    1    6    6    0  502 -0.40057406534E+03 -0.20490170402E+03 -0.56205279400E+03  0.71996363337E+03  0.00000000000E+00 0.  1.
<mgrwt>
<rscale>  0 0.15199847E+04</rscale>
<asrwt>0</asrwt>
<pdfrwt beam="1">  1        1 0.60331667E-01 0.15199847E+04</pdfrwt>
<pdfrwt beam="2">  1       -1 0.22659295E+00 0.15199847E+04</pdfrwt>
<totfact> 0.59167078E+00</totfact>
</mgrwt>
</event>
<event>
12    1  0.1960998E-007  0.1391479E+04  0.7818608E-02  0.8960010E-01
         -2   -1    0    0    0  501 -0.00000000000E+00  0.00000000000E+00  0.25963508076E+03  0.25963508076E+03  0.00000000000E+00 0.  1.
          2   -1    0    0  501    0  0.00000000000E+00 -0.00000000000E+00 -0.18643595612E+04  0.18643595612E+04  0.00000000000E+00 0. -1.
         23    2    1    2    0    0  0.29549185190E+03 -0.21756708659E+03 -0.23160844250E+03  0.44276205872E+03  0.88005103838E+02 0.  0.
        254    2    1    2    0    0 -0.29549185190E+03  0.21756708659E+03 -0.13731160379E+04  0.16812325832E+04  0.89802253510E+03 0.  0.
        -24    2    4    4    0    0 -0.27486613728E+02 -0.74848331393E+02 -0.12543539698E+04  0.12593908421E+04  0.79395370382E+02 0.  0.
         24    2    4    4    0    0 -0.26800523817E+03  0.29241541799E+03 -0.11876206805E+03  0.42184174110E+03  0.80699698654E+02 0.  0.
         11    1    3    3    0    0  0.56273677686E+02 -0.97359193946E+01 -0.58151588813E+02  0.81505350795E+02  0.00000000000E+00 0. -1.
        -11    1    3    3    0    0  0.23921817421E+03 -0.20783116720E+03 -0.17345685368E+03  0.36125670793E+03  0.00000000000E+00 0.  1.
          2    1    6    6  502    0 -0.27245702561E+03  0.27622339179E+03 -0.11361821262E+03  0.40427872961E+03  0.00000000000E+00 0. -1.
          1    1    5    5  503    0 -0.46881612293E+02 -0.68924158934E+02 -0.11540959112E+04  0.11571023280E+04  0.00000000000E+00 0. -1.
         -2    1    5    5    0  503  0.19394998564E+02 -0.59241724583E+01 -0.10025805864E+03  0.10228851407E+03  0.00000000000E+00 0.  1.
         -1    1    6    6    0  502  0.44517874427E+01  0.16192026199E+02 -0.51438554301E+01  0.17563011488E+02  0.00000000000E+00 0.  1.
<mgrwt>
<rscale>  0 0.13914786E+04</rscale>
<asrwt>0</asrwt>
<pdfrwt beam="1">  1        2 0.28682456E+00 0.13914786E+04</pdfrwt>
<pdfrwt beam="2">  1       -2 0.39943857E-01 0.13914786E+04</pdfrwt>
<totfact> 0.45911358E+01</totfact>
</mgrwt>
</event>
<event>
12    1  0.1960998E-007  0.1654846E+04  0.7818608E-02  0.8787545E-01
          1   -1    0    0  501    0  0.00000000000E+00  0.00000000000E+00  0.15901568551E+04  0.15901568551E+04  0.00000000000E+00 0. -1.
         -1   -1    0    0    0  501 -0.00000000000E+00 -0.00000000000E+00 -0.43054168790E+03  0.43054168790E+03  0.00000000000E+00 0.  1.
         23    2    1    2    0    0 -0.44059501993E+03  0.14045742273E+03  0.83472519726E+03  0.95868083710E+03  0.91926782238E+02 0.  0.
        254    2    1    2    0    0  0.44059501993E+03 -0.14045742273E+03  0.32488996998E+03  0.10620177059E+04  0.89915285462E+03 0.  0.
        -24    2    4    4    0    0  0.24437316682E+03 -0.24274596529E+03  0.60230582725E+03  0.69833191502E+03  0.79065198824E+02 0.  0.
         24    2    4    4    0    0  0.19622185311E+03  0.10228854256E+03 -0.27741585727E+03  0.36368579093E+03  0.79635639501E+02 0.  0.
         13    1    3    3    0    0 -0.42619291186E+03  0.14073234008E+03  0.76046327381E+03  0.88303475610E+03  0.00000000000E+00 0.  1.
        -13    1    3    3    0    0 -0.14402108072E+02 -0.27491734569E+00  0.74261923449E+02  0.75646081001E+02  0.00000000000E+00 0. -1.
          4    1    6    6  502    0  0.17123433876E+02  0.42554531200E+02 -0.64081442248E+02  0.78806924530E+02  0.00000000000E+00 0. -1.
          3    1    5    5  503    0 -0.42163137201E+01 -0.13987004620E+02  0.36927145525E+02  0.39711807769E+02  0.00000000000E+00 0. -1.
         -4    1    5    5    0  503  0.24858948054E+03 -0.22875896067E+03  0.56537868173E+03  0.65862010725E+03  0.00000000000E+00 0.  1.
         -3    1    6    6    0  502  0.17909841924E+03  0.59734011358E+02 -0.21333441503E+03  0.28487886640E+03  0.00000000000E+00 0.  1.
<mgrwt>
<rscale>  0 0.16548460E+04</rscale>
<asrwt>0</asrwt>
<pdfrwt beam="1">  1        1 0.24463951E+00 0.16548460E+04</pdfrwt>
<pdfrwt beam="2">  1       -1 0.66237184E-01 0.16548460E+04</pdfrwt>
<totfact> 0.12504443E+01</totfact>
</mgrwt>
</event>
<event>
12    1  0.1960998E-007  0.3996857E+04  0.7818608E-02  0.8005181E-01
          1   -1    0    0  501    0  0.00000000000E+00  0.00000000000E+00  0.16777310565E+04  0.16777310565E+04  0.00000000000E+00 0.  1.
         -1   -1    0    0    0  501 -0.00000000000E+00 -0.00000000000E+00 -0.23804266698E+04  0.23804266698E+04  0.00000000000E+00 0. -1.
         23    2    1    2    0    0 -0.18938337443E+04  0.10769409796E+03 -0.30878032729E+03  0.19240492129E+04  0.91737741053E+02 0.  0.
        254    2    1    2    0    0  0.18938337443E+04 -0.10769409796E+03 -0.39391528593E+03  0.21341085134E+04  0.89501152211E+03 0.  0.
        -24    2    4    4    0    0 -0.75365184555E+02 -0.45243778775E+02 -0.61883007030E+02  0.13458599453E+03  0.80975136951E+02 0.  0.
         24    2    4    4    0    0  0.19691989289E+04 -0.62450319183E+02 -0.33203227890E+03  0.19995225189E+04  0.78742653405E+02 0.  0.
         11    1    3    3    0    0 -0.84379760099E+03  0.70536933692E+02 -0.97646989895E+02  0.85235250049E+03  0.00000000000E+00 0.  1.
        -11    1    3    3    0    0 -0.10500361433E+04  0.37157164267E+02 -0.21113333739E+03  0.10716967124E+04  0.00000000000E+00 0. -1.
          4    1    6    6  502    0  0.17334233057E+04 -0.74899519851E+02 -0.30843147499E+03  0.17622418306E+04  0.00000000000E+00 0. -1.
          1    1    5    5  503    0 -0.78445944237E+02 -0.47240434846E+02 -0.76619944393E+02  0.11939866302E+03  0.00000000000E+00 0. -1.
         -2    1    5    5    0  503  0.30807596818E+01  0.19966560706E+01  0.14736937363E+02  0.15187331514E+02  0.00000000000E+00 0.  1.
         -3    1    6    6    0  502  0.23577562322E+03  0.12449200667E+02 -0.23600803911E+02  0.23728068832E+03  0.00000000000E+00 0.  1.
<mgrwt>
<rscale>  0 0.39968566E+04</rscale>
<asrwt>0</asrwt>
<pdfrwt beam="1">  1        1 0.25811247E+00 0.39968566E+04</pdfrwt>
<pdfrwt beam="2">  1       -1 0.36621949E+00 0.39968566E+04</pdfrwt>
<totfact> 0.46783103E-02</totfact>
</mgrwt>
</event>
<event>
12    1  0.1960998E-007  0.1838391E+04  0.7818608E-02  0.8686146E-01
         -2   -1    0    0    0  501 -0.00000000000E+00  0.00000000000E+00  0.72727506484E+03  0.72727506484E+03  0.00000000000E+00 0.  1.
          2   -1    0    0  501    0  0.00000000000E+00 -0.00000000000E+00 -0.11617614545E+04  0.11617614545E+04  0.00000000000E+00 0. -1.
         23    2    1    2    0    0 -0.41025025608E+03 -0.56288981458E+03 -0.19063814660E+03  0.72784917988E+03  0.90946741239E+02 0.  0.
        254    2    1    2    0    0  0.41025025608E+03  0.56288981458E+03 -0.24384824310E+03  0.11611873395E+04  0.89651762715E+03 0.  0.
        -24    2    4    4    0    0  0.50945997017E+03  0.74769744814E+03 -0.18113004851E+03  0.92624939599E+03  0.80801695161E+02 0.  0.
         24    2    4    4    0    0 -0.99209714087E+02 -0.18480763356E+03 -0.62718194585E+02  0.23493794351E+03  0.85239876669E+02 0.  0.
         13    1    3    3    0    0 -0.17813323299E+03 -0.29351225264E+03 -0.13001670780E+03  0.36713108756E+03  0.00000000000E+00 0. -1.
        -13    1    3    3    0    0 -0.23211702309E+03 -0.26937756194E+03 -0.60621438796E+02  0.36071809232E+03  0.00000000000E+00 0.  1.
          4    1    6    6  502    0 -0.57636896186E+02 -0.17408726359E+03 -0.48086214058E+02  0.18958024984E+03  0.00000000000E+00 0. -1.
          3    1    5    5  503    0  0.23529154430E+03  0.41685914507E+03 -0.97676756757E+02  0.48854314697E+03  0.00000000000E+00 0. -1.
         -4    1    5    5    0  503  0.27416842587E+03  0.33083830308E+03 -0.83453291756E+02  0.43770624902E+03  0.00000000000E+00 0.  1.
         -3    1    6    6    0  502 -0.41572817901E+02 -0.10720369971E+02 -0.14631980527E+02  0.45357693666E+02  0.00000000000E+00 0.  1.
<mgrwt>
<rscale>  0 0.18383907E+04</rscale>
<asrwt>0</asrwt>
<pdfrwt beam="1">  1        2 0.17873253E+00 0.18383907E+04</pdfrwt>
<pdfrwt beam="2">  1       -2 0.11188847E+00 0.18383907E+04</pdfrwt>
<totfact> 0.11851961E+01</totfact>
</mgrwt>
</event>
<event>
12    1  0.1960998E-007  0.1478391E+04  0.7818608E-02  0.8898951E-01
         -2   -1    0    0    0  501 -0.00000000000E+00  0.00000000000E+00  0.23872467389E+03  0.23872467389E+03  0.00000000000E+00 0.  1.
          2   -1    0    0  501    0  0.00000000000E+00 -0.00000000000E+00 -0.22888706870E+04  0.22888706870E+04  0.00000000000E+00 0. -1.
         23    2    1    2    0    0  0.42792522503E+03 -0.67352550943E+02 -0.90912031987E+03  0.10111008295E+04  0.90381231989E+02 0.  0.
        254    2    1    2    0    0 -0.42792522503E+03  0.67352550943E+02 -0.11410256932E+04  0.15164945314E+04  0.90008869938E+03 0.  0.
        -24    2    4    4    0    0 -0.36777484870E+03  0.35872329952E+03 -0.25667155565E+03  0.57988825094E+03  0.80307852357E+02 0.  0.
         24    2    4    4    0    0 -0.60150376331E+02 -0.29137074857E+03 -0.88435413757E+03  0.93660628043E+03  0.81450003043E+02 0.  0.
         11    1    3    3    0    0  0.24711402038E+03 -0.59580890346E+02 -0.61900134016E+03  0.66916207355E+03  0.00000000000E+00 0. -1.
        -11    1    3    3    0    0  0.18081120465E+03 -0.77716605974E+01 -0.29011897971E+03  0.34193875595E+03  0.00000000000E+00 0.  1.
          4    1    6    6  502    0 -0.21291092925E+02 -0.32030587498E+02 -0.20134555089E+03  0.20498609718E+03  0.00000000000E+00 0. -1.
          1    1    5    5  503    0 -0.71926759025E+02  0.40556630991E+02 -0.19250080008E+02  0.84787172152E+02  0.00000000000E+00 0. -1.
         -2    1    5    5    0  503 -0.29584808968E+03  0.31816666852E+03 -0.23742147564E+03  0.49510107879E+03  0.00000000000E+00 0.  1.
         -1    1    6    6    0  502 -0.38859283407E+02 -0.25934016107E+03 -0.68300858669E+03  0.73162018325E+03  0.00000000000E+00 0.  1.
<mgrwt>
<rscale>  0 0.14783909E+04</rscale>
<asrwt>0</asrwt>
<pdfrwt beam="1">  1        2 0.35213395E+00 0.14783909E+04</pdfrwt>
<pdfrwt beam="2">  1       -2 0.36726873E-01 0.14783909E+04</pdfrwt>
<totfact> 0.31136576E+01</totfact>
</mgrwt>
</event>
<event>
12    1  0.1960998E-007  0.2900791E+04  0.7818608E-02  0.8272642E-01
         -1   -1    0    0    0  501 -0.00000000000E+00  0.00000000000E+00  0.63443750079E+03  0.63443750079E+03  0.00000000000E+00 0.  1.
          1   -1    0    0  501    0  0.00000000000E+00 -0.00000000000E+00 -0.33157676281E+04  0.33157676281E+04  0.00000000000E+00 0. -1.
         23    2    1    2    0    0  0.10661944788E+04  0.75870915208E+03 -0.11777229289E+04  0.17630896589E+04  0.95097864812E+02 0.  0.
        254    2    1    2    0    0 -0.10661944788E+04 -0.75870915208E+03 -0.15036071984E+04  0.21871154700E+04  0.90012733991E+03 0.  0.
        -24    2    4    4    0    0 -0.19788154759E+03 -0.49184947929E+02 -0.86944454353E+03  0.89651273846E+03  0.78898732325E+02 0.  0.
         24    2    4    4    0    0 -0.86831293119E+03 -0.70952420415E+03 -0.63416265485E+03  0.12906027315E+04  0.78110147300E+02 0.  0.
         13    1    3    3    0    0  0.31972466837E+03  0.18398437677E+03 -0.36388542679E+03  0.51815704018E+03  0.00000000000E+00 0.  1.
        -13    1    3    3    0    0  0.74646981041E+03  0.57472477531E+03 -0.81383750211E+03  0.12449326187E+04  0.00000000000E+00 0. -1.
          2    1    6    6  502    0 -0.29835658281E+03 -0.21452020396E+03 -0.17487955101E+03  0.40696243779E+03  0.00000000000E+00 0. -1.
          1    1    5    5  503    0 -0.19442854568E+03 -0.27839001492E+02 -0.76136954402E+03  0.78629577892E+03  0.00000000000E+00 0. -1.
         -2    1    5    5    0  503 -0.34530019089E+01 -0.21345946436E+02 -0.10807499951E+03  0.11021695954E+03  0.00000000000E+00 0.  1.
         -1    1    6    6    0  502 -0.56995634838E+03 -0.49500400019E+03 -0.45928310385E+03  0.88364029375E+03  0.00000000000E+00 0.  1.
<mgrwt>
<rscale>  0 0.29007912E+04</rscale>
<asrwt>0</asrwt>
<pdfrwt beam="1">  1        1 0.51011811E+00 0.29007912E+04</pdfrwt>
<pdfrwt beam="2">  1       -1 0.97605768E-01 0.29007912E+04</pdfrwt>
<totfact> 0.30010074E-01</totfact>
</mgrwt>
</event>
<event>
12    1  0.1960998E-007  0.1218528E+04  0.7818608E-02  0.9096792E-01
         -2   -1    0    0    0  501 -0.00000000000E+00  0.00000000000E+00  0.17916523799E+03  0.17916523799E+03  0.00000000000E+00 0.  1.
          2   -1    0    0  501    0  0.00000000000E+00 -0.00000000000E+00 -0.20718438386E+04  0.20718438386E+04  0.00000000000E+00 0. -1.
         23    2    1    2    0    0 -0.13689868788E+03 -0.80883595116E+02 -0.82564991595E+03  0.84585989068E+03  0.92183318716E+02 0.  0.
        254    2    1    2    0    0  0.13689868788E+03  0.80883595116E+02 -0.10670286846E+04  0.14051491859E+04  0.90033916611E+03 0.  0.
        -24    2    4    4    0    0  0.10804167045E+03  0.24013893615E+03  0.44686465303E+02  0.27887680392E+03  0.80222692418E+02 0.  0.
         24    2    4    4    0    0  0.28857017433E+02 -0.15925534103E+03 -0.11117151499E+04  0.11262723819E+04  0.79899390813E+02 0.  0.
         11    1    3    3    0    0  0.73408406845E+01 -0.19498338187E+01 -0.16081180059E+03  0.16099107119E+03  0.00000000000E+00 0.  1.
        -11    1    3    3    0    0 -0.14423952856E+03 -0.78933761298E+02 -0.66483811536E+03  0.68486881949E+03  0.00000000000E+00 0. -1.
          4    1    6    6  502    0 -0.22918067329E+02 -0.94971691365E+02 -0.63241853889E+03  0.63992036091E+03  0.00000000000E+00 0. -1.
          1    1    5    5  503    0  0.95424192163E+02  0.13864283617E+03  0.27357074841E+01  0.16833031981E+03  0.00000000000E+00 0. -1.
         -2    1    5    5    0  503  0.12617478284E+02  0.10149609998E+03  0.41950757819E+02  0.11054648412E+03  0.00000000000E+00 0.  1.
         -3    1    6    6    0  502  0.51775084762E+02 -0.64283649666E+02 -0.47929661103E+03  0.48635202103E+03  0.00000000000E+00 0.  1.
<mgrwt>
<rscale>  0 0.12185276E+04</rscale>
<asrwt>0</asrwt>
<pdfrwt beam="1">  1        2 0.31874519E+00 0.12185276E+04</pdfrwt>
<pdfrwt beam="2">  1       -2 0.27563884E-01 0.12185276E+04</pdfrwt>
<totfact> 0.72180285E+01</totfact>
</mgrwt>
</event>
<event>
12    1  0.1960998E-007  0.4651887E+04  0.7818608E-02  0.7884572E-01
         -2   -1    0    0    0  501 -0.00000000000E+00  0.00000000000E+00  0.17104707351E+04  0.17104707351E+04  0.00000000000E+00 0.  1.
          2   -1    0    0  501    0  0.00000000000E+00 -0.00000000000E+00 -0.31628798822E+04  0.31628798822E+04  0.00000000000E+00 0. -1.
         23    2    1    2    0    0 -0.17592261940E+04  0.13820612736E+04 -0.65401920496E+03  0.23326002531E+04  0.91173760124E+02 0.  0.
        254    2    1    2    0    0  0.17592261940E+04 -0.13820612736E+04 -0.79838994208E+03  0.25407503642E+04  0.90167385870E+03 0.  0.
        -24    2    4    4    0    0  0.49884312369E+03 -0.91663405531E+03 -0.50956711701E+03  0.11641766708E+04  0.81155533804E+02 0.  0.
         24    2    4    4    0    0  0.12603830703E+04 -0.46542721833E+03 -0.28882282507E+03  0.13765736934E+04  0.79677659449E+02 0.  0.
         11    1    3    3    0    0 -0.63915632161E+03  0.55832193305E+03 -0.24986057529E+03  0.88468892356E+03  0.00000000000E+00 0.  1.
        -11    1    3    3    0    0 -0.11200698724E+04  0.82373934059E+03 -0.40415862967E+03  0.14479113296E+04  0.00000000000E+00 0. -1.
          4    1    6    6  502    0  0.31171861918E+03 -0.78970082139E+02 -0.70929100528E+02  0.32929577696E+03  0.00000000000E+00 0. -1.
          1    1    5    5  503    0  0.41307954574E+03 -0.68749456243E+03 -0.38747064664E+03  0.89073957276E+03  0.00000000000E+00 0. -1.
         -2    1    5    5    0  503  0.85763577948E+02 -0.22913949288E+03 -0.12209647037E+03  0.27343709803E+03  0.00000000000E+00 0.  1.
         -3    1    6    6    0  502  0.94866445116E+03 -0.38645713619E+03 -0.21789372454E+03  0.10472779164E+04  0.00000000000E+00 0.  1.
<mgrwt>
<rscale>  0 0.46518871E+04</rscale>
<asrwt>0</asrwt>
<pdfrwt beam="1">  1        2 0.48659690E+00 0.46518871E+04</pdfrwt>
<pdfrwt beam="2">  1       -2 0.26314935E+00 0.46518871E+04</pdfrwt>
<totfact> 0.54716751E-02</totfact>
</mgrwt>
</event>
<event>
12    1  0.1960998E-007  0.1190675E+04  0.7818608E-02  0.9121058E-01
         -2   -1    0    0    0  501 -0.00000000000E+00  0.00000000000E+00  0.36767463289E+03  0.36767463289E+03  0.00000000000E+00 0.  1.
          2   -1    0    0  501    0  0.00000000000E+00 -0.00000000000E+00 -0.96396887335E+03  0.96396887335E+03  0.00000000000E+00 0. -1.
         23    2    1    2    0    0 -0.58846295620E+02  0.15526370217E+03 -0.32582707821E+03  0.37704605091E+03  0.91819038828E+02 0.  0.
        254    2    1    2    0    0  0.58846295620E+02 -0.15526370217E+03 -0.27046716225E+03  0.95459745533E+03  0.90029668008E+03 0.  0.
        -24    2    4    4    0    0 -0.24939943922E+03  0.15864897167E+03 -0.38583118635E+03  0.49245693425E+03  0.79237309609E+02 0.  0.
         24    2    4    4    0    0  0.30824573484E+03 -0.31391267384E+03  0.11536402410E+03  0.46214052108E+03  0.81904843098E+02 0.  0.
         13    1    3    3    0    0 -0.15255713152E+02  0.82626227277E+02 -0.24859753844E+03  0.26241296907E+03  0.00000000000E+00 0. -1.
        -13    1    3    3    0    0 -0.43590582468E+02  0.72637474894E+02 -0.77229539773E+02  0.11463308184E+03  0.00000000000E+00 0.  1.
          4    1    6    6  502    0  0.19826142796E+03 -0.15641830983E+03  0.39499413282E+02  0.25560611322E+03  0.00000000000E+00 0. -1.
          1    1    5    5  503    0 -0.16431094516E+03  0.11831164975E+03 -0.20251970596E+03  0.28637381945E+03  0.00000000000E+00 0. -1.
         -2    1    5    5    0  503 -0.85088494062E+02  0.40337321922E+02 -0.18331148039E+03  0.20608311480E+03  0.00000000000E+00 0.  1.
         -3    1    6    6    0  502  0.10998430689E+03 -0.15749436402E+03  0.75864610819E+02  0.20653440787E+03  0.00000000000E+00 0.  1.
<mgrwt>
<rscale>  0 0.11906753E+04</rscale>
<asrwt>0</asrwt>
<pdfrwt beam="1">  1        2 0.14830290E+00 0.11906753E+04</pdfrwt>
<pdfrwt beam="2">  1       -2 0.56565328E-01 0.11906753E+04</pdfrwt>
<totfact> 0.76959244E+01</totfact>
</mgrwt>
</event>
<event>
12    1  0.2844103E-007  0.2945657E+04  0.7818608E-02  0.8259421E-01
          1   -1    0    0  501    0  0.00000000000E+00  0.00000000000E+00  0.30302118149E+04  0.30302118149E+04  0.00000000000E+00 0. -1.
         -1   -1    0    0    0  501 -0.00000000000E+00 -0.00000000000E+00 -0.71586522560E+03  0.71586522560E+03  0.00000000000E+00 0.  1.
         23    2    1    2    0    0  0.70833594559E+01 -0.12954256763E+04  0.14543272875E+04  0.19497876813E+04  0.91794805007E+02 0.  0.
        254    2    1    2    0    0 -0.70833594559E+01  0.12954256763E+04  0.86001930176E+03  0.17962893591E+04  0.89935777391E+03 0.  0.
        -24    2    4    4    0    0  0.25265251494E+03  0.16774523268E+02  0.19656924944E+03  0.33019055202E+03  0.79193767970E+02 0.  0.
         24    2    4    4    0    0 -0.25973587440E+03  0.12786511531E+04  0.66345005232E+03  0.14660988071E+04  0.82874873339E+02 0.  0.
         11    1    3    3    0    0 -0.38493252623E+02 -0.82089871350E+03  0.90463179685E+03  0.12221763851E+04  0.00000000000E+00 0. -1.
        -11    1    3    3    0    0  0.45576612079E+02 -0.47452696282E+03  0.54969549067E+03  0.72761129628E+03  0.00000000000E+00 0.  1.
          4    1    6    6  502    0 -0.23483293991E+03  0.11557084403E+04  0.57109100562E+03  0.13103257020E+04  0.00000000000E+00 0. -1.
          3    1    5    5  503    0  0.24594277562E+03  0.85330420999E+01  0.16349536650E+03  0.29545117457E+03  0.00000000000E+00 0. -1.
         -4    1    5    5    0  503  0.67097393196E+01  0.82414811676E+01  0.33073882931E+02  0.34739377452E+02  0.00000000000E+00 0.  1.
         -3    1    6    6    0  502 -0.24902934485E+02  0.12294271276E+03  0.92359046703E+02  0.15577310511E+03  0.00000000000E+00 0.  1.
<mgrwt>
<rscale>  0 0.29456566E+04</rscale>
<asrwt>0</asrwt>
<pdfrwt beam="1">  1        1 0.46618642E+00 0.29456566E+04</pdfrwt>
<pdfrwt beam="2">  1       -1 0.11013311E+00 0.29456566E+04</pdfrwt>
<totfact> 0.36935554E-01</totfact>
</mgrwt>
</event>
<event>
12    1  0.1960998E-007  0.2111813E+04  0.7818608E-02  0.8556058E-01
          2   -1    0    0  501    0  0.00000000000E+00  0.00000000000E+00  0.19178611418E+04  0.19178611418E+04  0.00000000000E+00 0. -1.
         -2   -1    0    0    0  501 -0.00000000000E+00 -0.00000000000E+00 -0.58134457893E+03  0.58134457893E+03  0.00000000000E+00 0.  1.
         23    2    1    2    0    0 -0.63818442539E+03 -0.26820368472E+03 -0.56530670936E+02  0.70225359467E+03  0.10369096951E+03 0.  0.
        254    2    1    2    0    0  0.63818442539E+03  0.26820368472E+03  0.13930472338E+04  0.17969521260E+04  0.89957977434E+03 0.  0.
        -24    2    4    4    0    0  0.51209421378E+03  0.26441764126E+03  0.15027390640E+04  0.16115026176E+04  0.80986537195E+02 0.  0.
         24    2    4    4    0    0  0.12609021161E+03  0.37860434591E+01 -0.10969183022E+03  0.18544950845E+03  0.80287900587E+02 0.  0.
         13    1    3    3    0    0 -0.61024260943E+03 -0.26853605615E+03 -0.36199241783E+02  0.66769606928E+03  0.00000000000E+00 0. -1.
        -13    1    3    3    0    0 -0.27941815958E+02  0.33237143084E+00 -0.20331429153E+02  0.34557525392E+02  0.00000000000E+00 0.  1.
          2    1    6    6  502    0  0.40682627456E+02  0.25586854310E+02 -0.45915783210E+01  0.48278834718E+02  0.00000000000E+00 0. -1.
          3    1    5    5  503    0  0.66891243752E+01 -0.44173017245E+00  0.54484963550E+02  0.54895817359E+02  0.00000000000E+00 0. -1.
         -4    1    5    5    0  503  0.50540508941E+03  0.26485937143E+03  0.14482541005E+04  0.15566068002E+04  0.00000000000E+00 0.  1.
         -1    1    6    6    0  502  0.85407584152E+02 -0.21800810851E+02 -0.10510025190E+03  0.13717067374E+03  0.00000000000E+00 0.  1.
<mgrwt>
<rscale>  0 0.21118127E+04</rscale>
<asrwt>0</asrwt>
<pdfrwt beam="1">  1        2 0.29505556E+00 0.21118127E+04</pdfrwt>
<pdfrwt beam="2">  1       -2 0.89437628E-01 0.21118127E+04</pdfrwt>
<totfact> 0.73260631E+00</totfact>
</mgrwt>
</event>
<event>
12    1  0.1960998E-007  0.2574881E+04  0.7818608E-02  0.8376784E-01
          2   -1    0    0  501    0  0.00000000000E+00  0.00000000000E+00  0.17724439731E+04  0.17724439731E+04  0.00000000000E+00 0. -1.
         -2   -1    0    0    0  501 -0.00000000000E+00 -0.00000000000E+00 -0.93515092320E+03  0.93515092320E+03  0.00000000000E+00 0.  1.
         23    2    1    2    0    0  0.82358452533E+03 -0.45244298689E+03 -0.28802665815E+03  0.98719694147E+03  0.92748685658E+02 0.  0.
        254    2    1    2    0    0 -0.82358452533E+03  0.45244298689E+03  0.11253197081E+04  0.17203979549E+04  0.90023805239E+03 0.  0.
        -24    2    4    4    0    0 -0.31540522046E+03  0.61799048648E+03  0.88962532567E+03  0.11310737613E+04  0.80634600838E+02 0.  0.
         24    2    4    4    0    0 -0.50817930487E+03 -0.16554749959E+03  0.23569438242E+03  0.58932419362E+03  0.78095984278E+02 0.  0.
         11    1    3    3    0    0  0.72216628146E+03 -0.37368574452E+03 -0.22237624563E+03  0.84298064531E+03  0.00000000000E+00 0. -1.
        -11    1    3    3    0    0  0.10141824387E+03 -0.78757242369E+02 -0.65650412523E+02  0.14421629616E+03  0.00000000000E+00 0.  1.
          4    1    6    6  502    0 -0.13065868693E+03 -0.58311764968E+02  0.29847521921E+02  0.14616028520E+03  0.00000000000E+00 0. -1.
          1    1    5    5  503    0 -0.26444815769E+03  0.44050721858E+03  0.66046546715E+03  0.83677599812E+03  0.00000000000E+00 0. -1.
         -2    1    5    5    0  503 -0.50957062766E+02  0.17748326790E+03  0.22915985852E+03  0.29429776314E+03  0.00000000000E+00 0.  1.
         -3    1    6    6    0  502 -0.37752061794E+03 -0.10723573462E+03  0.20584686050E+03  0.44316390843E+03  0.00000000000E+00 0.  1.
<mgrwt>
<rscale>  0 0.25748807E+04</rscale>
<asrwt>0</asrwt>
<pdfrwt beam="1">  1        2 0.27268369E+00 0.25748807E+04</pdfrwt>
<pdfrwt beam="2">  1       -2 0.14386937E+00 0.25748807E+04</pdfrwt>
<totfact> 0.26503905E+00</totfact>
</mgrwt>
</event>
<event>
12    1  0.1960998E-007  0.2073162E+04  0.7818608E-02  0.8573159E-01
          2   -1    0    0  501    0  0.00000000000E+00  0.00000000000E+00  0.75713390637E+03  0.75713390637E+03  0.00000000000E+00 0.  1.
         -2   -1    0    0    0  501 -0.00000000000E+00 -0.00000000000E+00 -0.14191684614E+04  0.14191684614E+04  0.00000000000E+00 0. -1.
         23    2    1    2    0    0 -0.66823090770E+03 -0.50198302987E+03 -0.33099128815E+03  0.90381910567E+03  0.93884155537E+02 0.  0.
        254    2    1    2    0    0  0.66823090770E+03  0.50198302987E+03 -0.33104326688E+03  0.12724832621E+04  0.90061340178E+03 0.  0.
        -24    2    4    4    0    0  0.23946539952E+03 -0.10131757221E+03 -0.44245533604E+03  0.51950464440E+03  0.80680996229E+02 0.  0.
         24    2    4    4    0    0  0.42876550818E+03  0.60330060208E+03  0.11141206916E+03  0.75297861770E+03  0.82174643758E+02 0.  0.
         11    1    3    3    0    0 -0.18119451446E+03 -0.18997121197E+03 -0.10967862751E+03  0.28451698505E+03  0.00000000000E+00 0. -1.
        -11    1    3    3    0    0 -0.48703639324E+03 -0.31201181790E+03 -0.22131266063E+03  0.61930212063E+03  0.00000000000E+00 0.  1.
          2    1    6    6  502    0  0.10122329211E+03  0.16282472921E+03  0.63565181647E+02  0.20198658278E+03  0.00000000000E+00 0. -1.
          3    1    5    5  503    0  0.89315612801E+02  0.11843060639E+01 -0.12422876010E+03  0.15300805896E+03  0.00000000000E+00 0. -1.
         -4    1    5    5    0  503  0.15014978672E+03 -0.10250187828E+03 -0.31822657593E+03  0.36649658543E+03  0.00000000000E+00 0.  1.
         -1    1    6    6    0  502  0.32754221607E+03  0.44047587288E+03  0.47846887512E+02  0.55099203491E+03  0.00000000000E+00 0.  1.
<mgrwt>
<rscale>  0 0.20731624E+04</rscale>
<asrwt>0</asrwt>
<pdfrwt beam="1">  1        2 0.11648214E+00 0.20731624E+04</pdfrwt>
<pdfrwt beam="2">  1       -2 0.21833361E+00 0.20731624E+04</pdfrwt>
<totfact> 0.34628120E+00</totfact>
</mgrwt>
</event>
<event>
12    1  0.1960998E-007  0.3272740E+04  0.7818608E-02  0.8169867E-01
         -2   -1    0    0    0  501 -0.00000000000E+00  0.00000000000E+00  0.22312843697E+04  0.22312843697E+04  0.00000000000E+00 0.  1.
          2   -1    0    0  501    0  0.00000000000E+00 -0.00000000000E+00 -0.12000739035E+04  0.12000739035E+04  0.00000000000E+00 0. -1.
         23    2    1    2    0    0 -0.10814944688E+04 -0.63012014688E+03 -0.41177722870E+03  0.13212357039E+04  0.97064996811E+02 0.  0.
        254    2    1    2    0    0  0.10814944688E+04  0.63012014688E+03  0.14429876949E+04  0.21101225694E+04  0.89650548506E+03 0.  0.
        -24    2    4    4    0    0  0.34347130387E+03  0.69440037898E+03  0.88969136578E+03  0.11818583458E+04  0.71232016953E+02 0.  0.
         24    2    4    4    0    0  0.73802316490E+03 -0.64280232097E+02  0.55329632914E+03  0.92826422362E+03  0.82021343903E+02 0.  0.
         13    1    3    3    0    0 -0.22379644402E+03 -0.98831352505E+02 -0.10929075668E+03  0.26794953646E+03  0.00000000000E+00 0. -1.
        -13    1    3    3    0    0 -0.85769802476E+03 -0.53128879438E+03 -0.30248647202E+03  0.10532861674E+04  0.00000000000E+00 0.  1.
          2    1    6    6  502    0  0.73721062649E+03 -0.67637795688E+02  0.55411387721E+03  0.92471431704E+03  0.00000000000E+00 0. -1.
          3    1    5    5  503    0  0.21107577288E+03  0.38296060584E+03  0.45636884889E+03  0.63204773060E+03  0.00000000000E+00 0. -1.
         -4    1    5    5    0  503  0.13239553099E+03  0.31143977314E+03  0.43332251689E+03  0.54981061518E+03  0.00000000000E+00 0.  1.
         -1    1    6    6    0  502  0.81253841279E+00  0.33575635901E+01 -0.81754807457E+00  0.35499065886E+01  0.00000000000E+00 0.  1.
<mgrwt>
<rscale>  0 0.32727396E+04</rscale>
<asrwt>0</asrwt>
<pdfrwt beam="1">  1        2 0.18462675E+00 0.32727396E+04</pdfrwt>
<pdfrwt beam="2">  1       -2 0.34327452E+00 0.32727396E+04</pdfrwt>
<totfact> 0.27178843E-01</totfact>
</mgrwt>
</event>
<event>
12    1  0.1960998E-007  0.1862750E+04  0.7818608E-02  0.8673623E-01
          1   -1    0    0  501    0  0.00000000000E+00  0.00000000000E+00  0.17152860360E+04  0.17152860360E+04  0.00000000000E+00 0. -1.
         -1   -1    0    0    0  501 -0.00000000000E+00 -0.00000000000E+00 -0.50572302951E+03  0.50572302951E+03  0.00000000000E+00 0.  1.
         23    2    1    2    0    0 -0.15678078753E+03 -0.67162920209E+03  0.66554599237E+03  0.96293563464E+03  0.92884703064E+02 0.  0.
        254    2    1    2    0    0  0.15678078753E+03  0.67162920209E+03  0.54401701412E+03  0.12580734309E+04  0.90062658486E+03 0.  0.
        -24    2    4    4    0    0  0.29328612886E+03  0.37210246756E+03  0.72710462685E+03  0.87138774020E+03  0.78475828355E+02 0.  0.
         24    2    4    4    0    0 -0.13650534133E+03  0.29952673453E+03 -0.18308761273E+03  0.38668569066E+03  0.87491579692E+02 0.  0.
         11    1    3    3    0    0 -0.13000540016E+02 -0.24833774235E+03  0.24873112936E+03  0.35172122914E+03  0.00000000000E+00 0. -1.
        -11    1    3    3    0    0 -0.14378024751E+03 -0.42329145974E+03  0.41681486301E+03  0.61121440550E+03  0.00000000000E+00 0.  1.
          2    1    6    6  502    0 -0.42702613469E+02  0.92189532597E+02 -0.12683606744E+02  0.10238797291E+03  0.00000000000E+00 0. -1.
          3    1    5    5  503    0  0.16198621329E+03  0.17650066167E+03  0.30323998129E+03  0.38645375288E+03  0.00000000000E+00 0. -1.
         -4    1    5    5    0  503  0.13129991557E+03  0.19560180588E+03  0.42386464557E+03  0.48493398732E+03  0.00000000000E+00 0.  1.
         -1    1    6    6    0  502 -0.93802727865E+02  0.20733720193E+03 -0.17040400599E+03  0.28429771775E+03  0.00000000000E+00 0.  1.
<mgrwt>
<rscale>  0 0.18627503E+04</rscale>
<asrwt>0</asrwt>
<pdfrwt beam="1">  1        1 0.26389016E+00 0.18627503E+04</pdfrwt>
<pdfrwt beam="2">  1       -1 0.77803544E-01 0.18627503E+04</pdfrwt>
<totfact> 0.72266690E+00</totfact>
</mgrwt>
</event>
<event>
12    1  0.1960998E-007  0.2483853E+04  0.7818608E-02  0.8408761E-01
          2   -1    0    0  501    0  0.00000000000E+00  0.00000000000E+00  0.22415507060E+04  0.22415507060E+04  0.00000000000E+00 0.  1.
         -2   -1    0    0    0  501 -0.00000000000E+00 -0.00000000000E+00 -0.68808693044E+03  0.68808693044E+03  0.00000000000E+00 0. -1.
         23    2    1    2    0    0 -0.34011941025E+03  0.10025024551E+04  0.90783057670E+03  0.13976024053E+04  0.91889833400E+02 0.  0.
        254    2    1    2    0    0  0.34011941025E+03 -0.10025024551E+04  0.64563319888E+03  0.15320352312E+04  0.89977627013E+03 0.  0.
        -24    2    4    4    0    0  0.49195259476E+03 -0.66585034931E+03  0.77067013384E+03  0.11338633250E+04  0.79621236708E+02 0.  0.
         24    2    4    4    0    0 -0.15183318451E+03 -0.33665210582E+03 -0.12503693496E+03  0.39817190621E+03  0.80738315077E+02 0.  0.
         11    1    3    3    0    0 -0.12365567201E+03  0.24751236397E+03  0.25584970826E+03  0.37684501954E+03  0.00000000000E+00 0.  1.
        -11    1    3    3    0    0 -0.21646373824E+03  0.75499009116E+03  0.65198086844E+03  0.10207573857E+04  0.00000000000E+00 0. -1.
          4    1    6    6  502    0 -0.82963352423E+02 -0.25615075721E+03 -0.67365038125E+02  0.27755031369E+03  0.00000000000E+00 0. -1.
          3    1    5    5  503    0  0.44116057921E+03 -0.56068580285E+03  0.68474761420E+03  0.98887335959E+03  0.00000000000E+00 0. -1.
         -4    1    5    5    0  503  0.50792015553E+02 -0.10516454646E+03  0.85922519643E+02  0.14498996537E+03  0.00000000000E+00 0.  1.
         -3    1    6    6    0  502 -0.68869832085E+02 -0.80501348610E+02 -0.57671896835E+02  0.12062159253E+03  0.00000000000E+00 0.  1.
<mgrwt>
<rscale>  0 0.24838533E+04</rscale>
<asrwt>0</asrwt>
<pdfrwt beam="1">  1        2 0.34485395E+00 0.24838533E+04</pdfrwt>
<pdfrwt beam="2">  1       -2 0.10585953E+00 0.24838533E+04</pdfrwt>
<totfact> 0.31491005E+00</totfact>
</mgrwt>
</event>
<event>
12    1  0.1960998E-007  0.2032204E+04  0.7818608E-02  0.8591710E-01
          1   -1    0    0  501    0  0.00000000000E+00  0.00000000000E+00  0.36448227004E+03  0.36448227004E+03  0.00000000000E+00 0. -1.
         -1   -1    0    0    0  501 -0.00000000000E+00 -0.00000000000E+00 -0.28326858482E+04  0.28326858482E+04  0.00000000000E+00 0.  1.
         23    2    1    2    0    0  0.47770579970E+03 -0.64170916042E+03 -0.78713660063E+03  0.11259742965E+04  0.90777810016E+02 0.  0.
        254    2    1    2    0    0 -0.47770579970E+03  0.64170916042E+03 -0.16810669775E+04  0.20711938217E+04  0.90766964611E+03 0.  0.
        -24    2    4    4    0    0  0.57056366854E+02  0.31810471574E+03 -0.12836801412E+04  0.13262984897E+04  0.82382884019E+02 0.  0.
         24    2    4    4    0    0 -0.53476216655E+03  0.32360444468E+03 -0.39738683633E+03  0.74489533204E+03  0.79134989826E+02 0.  0.
         13    1    3    3    0    0  0.37187298868E+03 -0.49751255147E+03 -0.66139794936E+03  0.90733428570E+03  0.00000000000E+00 0.  1.
        -13    1    3    3    0    0  0.10583281101E+03 -0.14419660894E+03 -0.12573865127E+03  0.21864001084E+03  0.00000000000E+00 0. -1.
          4    1    6    6  502    0 -0.11978040320E+03  0.36359225924E+02 -0.72192374393E+02  0.14450286232E+03  0.00000000000E+00 0. -1.
          3    1    5    5  503    0  0.10678600931E+02  0.21162087567E+03 -0.70838128831E+03  0.73939264073E+03  0.00000000000E+00 0. -1.
         -4    1    5    5    0  503  0.46377765923E+02  0.10648384007E+03 -0.57529885290E+03  0.58690584894E+03  0.00000000000E+00 0.  1.
         -3    1    6    6    0  502 -0.41498176335E+03  0.28724521876E+03 -0.32519446193E+03  0.60039246971E+03  0.00000000000E+00 0.  1.
<mgrwt>
<rscale>  0 0.20322045E+04</rscale>
<asrwt>0</asrwt>
<pdfrwt beam="1">  1        1 0.56074193E-01 0.20322045E+04</pdfrwt>
<pdfrwt beam="2">  1       -1 0.43579784E+00 0.20322045E+04</pdfrwt>
<totfact> 0.25496510E-01</totfact>
</mgrwt>
</event>
<event>
12    1  0.1960998E-007  0.2188384E+04  0.7818608E-02  0.8523278E-01
         -2   -1    0    0    0  501 -0.00000000000E+00  0.00000000000E+00  0.33648220464E+03  0.33648220464E+03  0.00000000000E+00 0.  1.
          2   -1    0    0  501    0  0.00000000000E+00 -0.00000000000E+00 -0.35581573229E+04  0.35581573229E+04  0.00000000000E+00 0. -1.
         23    2    1    2    0    0 -0.75645751998E+03  0.33976584940E+03 -0.68843146173E+03  0.10816503954E+04  0.91437893757E+02 0.  0.
        254    2    1    2    0    0  0.75645751998E+03 -0.33976584940E+03 -0.25332436565E+04  0.28129891321E+04  0.89884126643E+03 0.  0.
        -24    2    4    4    0    0  0.22503981719E+03  0.16127003796E+03 -0.16213872534E+03  0.33060015947E+03  0.79728004641E+02 0.  0.
         24    2    4    4    0    0  0.53141770279E+03 -0.50103588736E+03 -0.23711049311E+04  0.24823889726E+04  0.81698725019E+02 0.  0.
         13    1    3    3    0    0 -0.78704250313E+02  0.66176866841E+02 -0.98360935547E+02  0.14229761194E+03  0.00000000000E+00 0.  1.
        -13    1    3    3    0    0 -0.67775326967E+03  0.27358898256E+03 -0.59007052618E+03  0.93935278346E+03  0.00000000000E+00 0. -1.
          4    1    6    6  502    0  0.27063029908E+03 -0.27237240545E+03 -0.13762507192E+04  0.14288084295E+04  0.00000000000E+00 0. -1.
          1    1    5    5  503    0  0.20430339047E+03  0.11069229752E+03 -0.14215633127E+03  0.27239875662E+03  0.00000000000E+00 0. -1.
         -2    1    5    5    0  503  0.20736426718E+02  0.50577740445E+02 -0.19982394079E+02  0.58201402859E+02  0.00000000000E+00 0.  1.
         -3    1    6    6    0  502  0.26078740372E+03 -0.22866348191E+03 -0.99485421191E+03  0.10535805431E+04  0.00000000000E+00 0.  1.
<mgrwt>
<rscale>  0 0.21883844E+04</rscale>
<asrwt>0</asrwt>
<pdfrwt beam="1">  1        2 0.54740882E+00 0.21883844E+04</pdfrwt>
<pdfrwt beam="2">  1       -2 0.51766492E-01 0.21883844E+04</pdfrwt>
<totfact> 0.23944474E+00</totfact>
</mgrwt>
</event>
<event>
12    1  0.1960998E-007  0.2479124E+04  0.7818608E-02  0.8410461E-01
          2   -1    0    0  501    0  0.00000000000E+00  0.00000000000E+00  0.27148909981E+04  0.27148909981E+04  0.00000000000E+00 0.  1.
         -2   -1    0    0    0  501 -0.00000000000E+00 -0.00000000000E+00 -0.56595786624E+03  0.56595786624E+03  0.00000000000E+00 0. -1.
         23    2    1    2    0    0  0.38718570977E+03 -0.97956056259E+03  0.65030261697E+03  0.12397944169E+04  0.68884199358E+02 0.  0.
        254    2    1    2    0    0 -0.38718570977E+03  0.97956056259E+03  0.14986305149E+04  0.20410544474E+04  0.90031003970E+03 0.  0.
        -24    2    4    4    0    0 -0.64435583313E+03  0.78903813246E+03  0.13071518044E+04  0.16596555835E+04  0.89639287849E+02 0.  0.
         24    2    4    4    0    0  0.25717012337E+03  0.19052243014E+03  0.19147871050E+03  0.38139886394E+03  0.79785513123E+02 0.  0.
         11    1    3    3    0    0  0.10558801580E+03 -0.30227710206E+03  0.16407613063E+03  0.35977944932E+03  0.00000000000E+00 0. -1.
        -11    1    3    3    0    0  0.28159769396E+03 -0.67728346053E+03  0.48622648635E+03  0.88001496759E+03  0.00000000000E+00 0.  1.
          2    1    6    6  502    0  0.88447350546E+02  0.10939708573E+03  0.61774427805E+02  0.15364483758E+03  0.00000000000E+00 0. -1.
          1    1    5    5  503    0 -0.27810498760E+03  0.28740319307E+03  0.55789243572E+03  0.68643058597E+03  0.00000000000E+00 0. -1.
         -2    1    5    5    0  503 -0.36625084553E+03  0.50163493938E+03  0.74925936864E+03  0.97322499750E+03  0.00000000000E+00 0.  1.
         -1    1    6    6    0  502  0.16872277282E+03  0.81125344403E+02  0.12970428270E+03  0.22775402636E+03  0.00000000000E+00 0.  1.
<mgrwt>
<rscale>  0 0.24791240E+04</rscale>
<asrwt>0</asrwt>
<pdfrwt beam="1">  1        2 0.41767553E+00 0.24791240E+04</pdfrwt>
<pdfrwt beam="2">  1       -2 0.87070443E-01 0.24791240E+04</pdfrwt>
<totfact> 0.26505827E+00</totfact>
</mgrwt>
</event>
<event>
12    1  0.1960998E-007  0.2262065E+04  0.7818608E-02  0.8493030E-01
          1   -1    0    0  501    0  0.00000000000E+00  0.00000000000E+00  0.15978578053E+04  0.15978578053E+04  0.00000000000E+00 0. -1.
         -1   -1    0    0    0  501 -0.00000000000E+00 -0.00000000000E+00 -0.80059343330E+03  0.80059343330E+03  0.00000000000E+00 0.  1.
         23    2    1    2    0    0 -0.78339311255E+03  0.37362141254E+03  0.73905393896E+03  0.11434773665E+04  0.89677389656E+02 0.  0.
        254    2    1    2    0    0  0.78339311255E+03 -0.37362141254E+03  0.58210433042E+02  0.12549738722E+04  0.90458456574E+03 0.  0.
        -24    2    4    4    0    0  0.37703267453E+03 -0.22592245831E+03 -0.41437642393E+03  0.60928138431E+03  0.79507167774E+02 0.  0.
         24    2    4    4    0    0  0.40636043801E+03 -0.14769895424E+03  0.47258685697E+03  0.64569248784E+03  0.81465727777E+02 0.  0.
         13    1    3    3    0    0 -0.53114773313E+03  0.28253314136E+03  0.46843043850E+03  0.76247620690E+03  0.00000000000E+00 0. -1.
        -13    1    3    3    0    0 -0.25224537941E+03  0.91088271186E+02  0.27062350046E+03  0.38100115955E+03  0.00000000000E+00 0.  1.
          4    1    6    6  502    0  0.11711221223E+03 -0.59982434230E+01  0.11128739762E+03  0.16166673760E+03  0.00000000000E+00 0. -1.
          3    1    5    5  503    0  0.37556636898E+03 -0.22949228896E+03 -0.41548708663E+03  0.60526550154E+03  0.00000000000E+00 0. -1.
         -4    1    5    5    0  503  0.14663055540E+01  0.35698306482E+01  0.11106626966E+01  0.40158827747E+01  0.00000000000E+00 0.  1.
         -3    1    6    6    0  502  0.28924822578E+03 -0.14170071081E+03  0.36129945935E+03  0.48402575024E+03  0.00000000000E+00 0.  1.
<mgrwt>
<rscale>  0 0.22620650E+04</rscale>
<asrwt>0</asrwt>
<pdfrwt beam="1">  1        1 0.24582428E+00 0.22620650E+04</pdfrwt>
<pdfrwt beam="2">  1       -1 0.12316822E+00 0.22620650E+04</pdfrwt>
<totfact> 0.29476120E+00</totfact>
</mgrwt>
</event>
<event>
12    1  0.3331982E-007  0.3451353E+04  0.7818608E-02  0.8125416E-01
         -2   -1    0    0    0  501 -0.00000000000E+00  0.00000000000E+00  0.11003464651E+04  0.11003464651E+04  0.00000000000E+00 0. -1.
          2   -1    0    0  501    0  0.00000000000E+00 -0.00000000000E+00 -0.27063830586E+04  0.27063830586E+04  0.00000000000E+00 0.  1.
         23    2    1    2    0    0  0.13138142021E+04  0.80258533764E+03 -0.12587686014E+04  0.19908328390E+04  0.93091455426E+02 0.  0.
        254    2    1    2    0    0 -0.13138142021E+04 -0.80258533764E+03 -0.34726799212E+03  0.18158966847E+04  0.89812845912E+03 0.  0.
        -24    2    4    4    0    0  0.33172317968E+02  0.51742765605E+02  0.11589072762E+03  0.15303119137E+03  0.78804621121E+02 0.  0.
         24    2    4    4    0    0 -0.13469865201E+04 -0.85432810324E+03 -0.46315871974E+03  0.16628654933E+04  0.79727384186E+02 0.  0.
         13    1    3    3    0    0  0.50024948472E+03  0.28751722440E+03 -0.52681413717E+03  0.78131225283E+03  0.00000000000E+00 0.  1.
        -13    1    3    3    0    0  0.81356471740E+03  0.51506811324E+03 -0.73195446425E+03  0.12095205862E+04  0.00000000000E+00 0. -1.
          4    1    6    6  502    0 -0.15739001742E+03 -0.11536502598E+03 -0.33429304765E+02  0.19798541669E+03  0.00000000000E+00 0. -1.
          1    1    5    5  503    0 -0.35267915387E+01  0.22247839850E+02 -0.51922896370E+01  0.23116325578E+02  0.00000000000E+00 0. -1.
         -2    1    5    5    0  503  0.36699109507E+02  0.29494925755E+02  0.12108301726E+03  0.12991486579E+03  0.00000000000E+00 0.  1.
         -3    1    6    6    0  502 -0.11895965027E+04 -0.73896307726E+03 -0.42972941498E+03  0.14648800766E+04  0.00000000000E+00 0.  1.
<mgrwt>
<rscale>  0 0.34513528E+04</rscale>
<asrwt>0</asrwt>
<pdfrwt beam="1">  1        2 0.41636662E+00 0.34513528E+04</pdfrwt>
<pdfrwt beam="2">  1       -2 0.16928407E+00 0.34513528E+04</pdfrwt>
<totfact> 0.46816261E-01</totfact>
</mgrwt>
</event>
<event>
12    1  0.1960998E-007  0.1569073E+04  0.7818608E-02  0.8839776E-01
         -2   -1    0    0    0  501 -0.00000000000E+00  0.00000000000E+00  0.30932879525E+03  0.30932879525E+03  0.00000000000E+00 0.  1.
          2   -1    0    0  501    0  0.00000000000E+00 -0.00000000000E+00 -0.19897837524E+04  0.19897837524E+04  0.00000000000E+00 0. -1.
         23    2    1    2    0    0 -0.20802348050E+02  0.43771105968E+03 -0.98404427574E+03  0.10813002396E+04  0.94039152105E+02 0.  0.
        254    2    1    2    0    0  0.20802348050E+02 -0.43771105968E+03 -0.69641068140E+03  0.12178123080E+04  0.89780580917E+03 0.  0.
        -24    2    4    4    0    0 -0.28093086968E+03 -0.41558979041E+02  0.68047690102E+02  0.30224017438E+03  0.77905921496E+02 0.  0.
         24    2    4    4    0    0  0.30173321773E+03 -0.39615208064E+03 -0.76445837151E+03  0.91557213365E+03  0.76787528174E+02 0.  0.
         13    1    3    3    0    0 -0.47167901681E+02  0.32876672594E+03 -0.79392637979E+03  0.86059948151E+03  0.00000000000E+00 0. -1.
        -13    1    3    3    0    0  0.26365553632E+02  0.10894433374E+03 -0.19011789595E+03  0.22070075811E+03  0.00000000000E+00 0.  1.
          2    1    6    6  502    0  0.11622073342E+03 -0.19990492095E+03 -0.39901931850E+03  0.46117854767E+03  0.00000000000E+00 0. -1.
          1    1    5    5  503    0 -0.46729796458E+02 -0.26437077887E+01  0.42915965600E+02  0.63501521016E+02  0.00000000000E+00 0. -1.
         -2    1    5    5    0  503 -0.23420107322E+03 -0.38915271252E+02  0.25131724502E+02  0.23873865336E+03  0.00000000000E+00 0.  1.
         -1    1    6    6    0  502  0.18551248430E+03 -0.19624715969E+03 -0.36543905301E+03  0.45439358598E+03  0.00000000000E+00 0.  1.
<mgrwt>
<rscale>  0 0.15690729E+04</rscale>
<asrwt>0</asrwt>
<pdfrwt beam="1">  1        2 0.30612059E+00 0.15690729E+04</pdfrwt>
<pdfrwt beam="2">  1       -2 0.47589043E-01 0.15690729E+04</pdfrwt>
<totfact> 0.27232160E+01</totfact>
</mgrwt>
</event>
<event>
12    1  0.1960998E-007  0.1574956E+04  0.7818608E-02  0.8836083E-01
         -2   -1    0    0    0  501 -0.00000000000E+00  0.00000000000E+00  0.26024954339E+03  0.26024954339E+03  0.00000000000E+00 0. -1.
          2   -1    0    0  501    0  0.00000000000E+00 -0.00000000000E+00 -0.23827954437E+04  0.23827954437E+04  0.00000000000E+00 0.  1.
         23    2    1    2    0    0 -0.17817502227E+03  0.15592406944E+03 -0.15082293922E+04  0.15290405228E+04  0.84559842804E+02 0.  0.
        254    2    1    2    0    0  0.17817502227E+03 -0.15592406944E+03 -0.61431650814E+03  0.11140044643E+04  0.89864482432E+03 0.  0.
        -24    2    4    4    0    0 -0.33099811625E+03  0.81704903248E+01 -0.41733113123E+03  0.53857441239E+03  0.79187213099E+02 0.  0.
         24    2    4    4    0    0  0.50917313852E+03 -0.16409455976E+03 -0.19698537691E+03  0.57543005189E+03  0.78308341654E+02 0.  0.
         11    1    3    3    0    0 -0.65865518148E+02  0.85581032834E+02 -0.46211102560E+03  0.47456188179E+03  0.00000000000E+00 0. -1.
        -11    1    3    3    0    0 -0.11230950412E+03  0.70343036601E+02 -0.10461183666E+04  0.10544786411E+04  0.00000000000E+00 0.  1.
          4    1    6    6  502    0  0.28304135183E+02 -0.27631226580E+01 -0.30244535126E+02  0.41514946950E+02  0.00000000000E+00 0. -1.
          3    1    5    5  503    0 -0.16192123521E+03  0.30389336363E+02 -0.25186600030E+03  0.30096258951E+03  0.00000000000E+00 0. -1.
         -4    1    5    5    0  503 -0.16907688103E+03 -0.22218846038E+02 -0.16546513093E+03  0.23761182288E+03  0.00000000000E+00 0.  1.
         -3    1    6    6    0  502  0.48086900334E+03 -0.16133143710E+03 -0.16674084179E+03  0.53391510494E+03  0.00000000000E+00 0.  1.
<mgrwt>
<rscale>  0 0.15749558E+04</rscale>
<asrwt>0</asrwt>
<pdfrwt beam="1">  1        2 0.36658393E+00 0.15749558E+04</pdfrwt>
<pdfrwt beam="2">  1       -2 0.40038389E-01 0.15749558E+04</pdfrwt>
<totfact> 0.23102615E+01</totfact>
</mgrwt>
</event>
<event>
12    1  0.1960998E-007  0.1443343E+04  0.7818608E-02  0.8923028E-01
         -1   -1    0    0    0  501 -0.00000000000E+00  0.00000000000E+00  0.36675610427E+03  0.36675610427E+03  0.00000000000E+00 0.  1.
          1   -1    0    0  501    0  0.00000000000E+00 -0.00000000000E+00 -0.14200445594E+04  0.14200445594E+04  0.00000000000E+00 0. -1.
         23    2    1    2    0    0  0.36047474775E+03  0.66250092060E+02 -0.34649244044E+02  0.37890078917E+03  0.89633249747E+02 0.  0.
        254    2    1    2    0    0 -0.36047474775E+03 -0.66250092060E+02 -0.10186392111E+04  0.14078998745E+04  0.90012504453E+03 0.  0.
        -24    2    4    4    0    0 -0.63953960385E+03  0.28893685520E+01 -0.52775366547E+03  0.83323199887E+03  0.82051076665E+02 0.  0.
         24    2    4    4    0    0  0.27906485610E+03 -0.69139460612E+02 -0.49088554561E+03  0.57466787563E+03  0.81345494438E+02 0.  0.
         11    1    3    3    0    0  0.31060977127E+03  0.28993362111E+02 -0.10507236980E+02  0.31213690440E+03  0.00000000000E+00 0.  1.
        -11    1    3    3    0    0  0.49864976476E+02  0.37256729949E+02 -0.24142007064E+02  0.66763884776E+02  0.00000000000E+00 0. -1.
          4    1    6    6  502    0  0.20610918573E+03 -0.62349800935E+02 -0.42359745084E+03  0.47518764134E+03  0.00000000000E+00 0. -1.
          1    1    5    5  503    0 -0.56279870244E+03  0.82687738820E+01 -0.42716512409E+03  0.70659804367E+03  0.00000000000E+00 0. -1.
         -2    1    5    5    0  503 -0.76740901411E+02 -0.53794053299E+01 -0.10058854138E+03  0.12663395520E+03  0.00000000000E+00 0.  1.
         -3    1    6    6    0  502  0.72955670364E+02 -0.67896596768E+01 -0.67288094774E+02  0.99480234293E+02  0.00000000000E+00 0.  1.
<mgrwt>
<rscale>  0 0.14433434E+04</rscale>
<asrwt>0</asrwt>
<pdfrwt beam="1">  1        1 0.21846840E+00 0.14433434E+04</pdfrwt>
<pdfrwt beam="2">  1       -1 0.56424014E-01 0.14433434E+04</pdfrwt>
<totfact> 0.22973103E+01</totfact>
</mgrwt>
</event>
<event>
12    1  0.1960998E-007  0.1842066E+04  0.7818608E-02  0.8684243E-01
         -2   -1    0    0    0  501 -0.00000000000E+00  0.00000000000E+00  0.77898002903E+03  0.77898002903E+03  0.00000000000E+00 0. -1.
          2   -1    0    0  501    0  0.00000000000E+00 -0.00000000000E+00 -0.10889908331E+04  0.10889908331E+04  0.00000000000E+00 0.  1.
         23    2    1    2    0    0  0.37544412998E+03  0.56819687657E+03 -0.27438236128E+03  0.73956144584E+03  0.88653633393E+02 0.  0.
        254    2    1    2    0    0 -0.37544412998E+03 -0.56819687657E+03 -0.35628442804E+02  0.11284094163E+04  0.89901748568E+03 0.  0.
        -24    2    4    4    0    0 -0.44254959198E+03 -0.76396159723E+03 -0.11198728248E+03  0.89347624708E+03  0.79190840752E+02 0.  0.
         24    2    4    4    0    0  0.67105462001E+02  0.19576472065E+03  0.76358839675E+02  0.23493316921E+03  0.80845239298E+02 0.  0.
         11    1    3    3    0    0  0.78735897473E+02  0.19284198718E+03 -0.80665795931E+02  0.22337041926E+03  0.00000000000E+00 0. -1.
        -11    1    3    3    0    0  0.29670823251E+03  0.37535488940E+03 -0.19371656535E+03  0.51619102658E+03  0.00000000000E+00 0.  1.
          2    1    6    6  502    0  0.36023555081E+02  0.14257987787E+03  0.89213309657E+02  0.17200503689E+03  0.00000000000E+00 0. -1.
          3    1    5    5  503    0 -0.40436246375E+03 -0.66064467681E+03 -0.11624688911E+03  0.78324563856E+03  0.00000000000E+00 0. -1.
         -4    1    5    5    0  503 -0.38187128227E+02 -0.10331692041E+03  0.42596066342E+01  0.11023060852E+03  0.00000000000E+00 0.  1.
         -1    1    6    6    0  502  0.31081906920E+02  0.53184842783E+02 -0.12854469982E+02  0.62928132327E+02  0.00000000000E+00 0.  1.
<mgrwt>
<rscale>  0 0.18420664E+04</rscale>
<asrwt>0</asrwt>
<pdfrwt beam="1">  1        2 0.16753705E+00 0.18420664E+04</pdfrwt>
<pdfrwt beam="2">  1       -2 0.11984308E+00 0.18420664E+04</pdfrwt>
<totfact> 0.11094357E+01</totfact>
</mgrwt>
</event>
<event>
12    1  0.2451671E-007  0.2060498E+04  0.7818608E-02  0.8578847E-01
          2   -1    0    0  501    0  0.00000000000E+00  0.00000000000E+00  0.18396059729E+04  0.18396059729E+04  0.00000000000E+00 0. -1.
         -2   -1    0    0    0  501 -0.00000000000E+00 -0.00000000000E+00 -0.57697847927E+03  0.57697847927E+03  0.00000000000E+00 0.  1.
         23    2    1    2    0    0 -0.81423825269E+03  0.15885813094E+03  0.46804098993E+03  0.95680495290E+03  0.90518018792E+02 0.  0.
        254    2    1    2    0    0  0.81423825269E+03 -0.15885813094E+03  0.79458650373E+03  0.14597794993E+04  0.90076003286E+03 0.  0.
        -24    2    4    4    0    0  0.39082059875E+03 -0.34581075532E+02 -0.13867220315E+03  0.42429828958E+03  0.82840010970E+02 0.  0.
         24    2    4    4    0    0  0.42341765394E+03 -0.12427705541E+03  0.93325870688E+03  0.10354812097E+04  0.80760297058E+02 0.  0.
         11    1    3    3    0    0 -0.21688681429E+03  0.81445283755E+02  0.14485669566E+03  0.27323375841E+03  0.00000000000E+00 0. -1.
        -11    1    3    3    0    0 -0.59735143839E+03  0.77412847188E+02  0.32318429427E+03  0.68357119448E+03  0.00000000000E+00 0.  1.
          4    1    6    6  502    0  0.66449411307E+02  0.98914058182E+01  0.13303795302E+03  0.14903845516E+03  0.00000000000E+00 0. -1.
          3    1    5    5  503    0  0.74231616502E+01  0.67611225496E+01  0.68272079894E+01  0.12141946959E+02  0.00000000000E+00 0. -1.
         -4    1    5    5    0  503  0.38339743710E+03 -0.41342198081E+02 -0.14549941114E+03  0.41215634262E+03  0.00000000000E+00 0.  1.
         -1    1    6    6    0  502  0.35696824263E+03 -0.13416846123E+03  0.80022075385E+03  0.88644275457E+03  0.00000000000E+00 0.  1.
<mgrwt>
<rscale>  0 0.20604981E+04</rscale>
<asrwt>0</asrwt>
<pdfrwt beam="1">  1        2 0.28301630E+00 0.20604981E+04</pdfrwt>
<pdfrwt beam="2">  1       -2 0.88765921E-01 0.20604981E+04</pdfrwt>
<totfact> 0.82733292E+00</totfact>
</mgrwt>
</event>
<event>
12    1  0.1960998E-007  0.2660041E+04  0.7818608E-02  0.8348088E-01
          2   -1    0    0  501    0  0.00000000000E+00  0.00000000000E+00  0.19752025416E+04  0.19752025416E+04  0.00000000000E+00 0. -1.
         -2   -1    0    0    0  501 -0.00000000000E+00 -0.00000000000E+00 -0.89558113242E+03  0.89558113242E+03  0.00000000000E+00 0.  1.
         23    2    1    2    0    0 -0.37400930969E+03  0.99649113843E+03  0.10208271048E+04  0.14773778307E+04  0.87634034871E+02 0.  0.
        254    2    1    2    0    0  0.37400930969E+03 -0.99649113843E+03  0.58794304429E+02  0.13934058434E+04  0.89735473552E+03 0.  0.
        -24    2    4    4    0    0  0.64632979933E+03 -0.78925622719E+03 -0.51598153578E+02  0.10244681397E+04  0.78771810193E+02 0.  0.
         24    2    4    4    0    0 -0.27232048964E+03 -0.20723491124E+03  0.11039245801E+03  0.36893770369E+03  0.82606155367E+02 0.  0.
         13    1    3    3    0    0 -0.20160092584E+03  0.62569650809E+03  0.58870608952E+03  0.88244768308E+03  0.00000000000E+00 0.  1.
        -13    1    3    3    0    0 -0.17240838384E+03  0.37079463035E+03  0.43212101527E+03  0.59493014763E+03  0.00000000000E+00 0. -1.
          2    1    6    6  502    0 -0.26905853374E+01  0.62834038015E+01  0.70365653832E+01  0.98098759004E+01  0.00000000000E+00 0. -1.
          3    1    5    5  503    0  0.19519565910E+03 -0.27646233139E+03 -0.45306015176E+02  0.34144604408E+03  0.00000000000E+00 0. -1.
         -4    1    5    5    0  503  0.45113414023E+03 -0.51279389580E+03 -0.62921384021E+01  0.68302209558E+03  0.00000000000E+00 0.  1.
         -1    1    6    6    0  502 -0.26962990430E+03 -0.21351831505E+03  0.10335589262E+03  0.35912782779E+03  0.00000000000E+00 0.  1.
<mgrwt>
<rscale>  0 0.26600407E+04</rscale>
<asrwt>0</asrwt>
<pdfrwt beam="1">  1        2 0.30387731E+00 0.26600407E+04</pdfrwt>
<pdfrwt beam="2">  1       -2 0.13778171E+00 0.26600407E+04</pdfrwt>
<totfact> 0.22727034E+00</totfact>
</mgrwt>
</event>
<event>
12    1  0.1960998E-007  0.1214647E+04  0.7818608E-02  0.9100132E-01
          2   -1    0    0  501    0  0.00000000000E+00  0.00000000000E+00  0.16263516907E+04  0.16263516907E+04  0.00000000000E+00 0. -1.
         -2   -1    0    0    0  501 -0.00000000000E+00 -0.00000000000E+00 -0.22679077346E+03  0.22679077346E+03  0.00000000000E+00 0.  1.
         23    2    1    2    0    0 -0.15076244075E+03  0.17234032738E+03  0.14193047714E+03  0.28416359090E+03  0.90411194379E+02 0.  0.
        254    2    1    2    0    0  0.15076244075E+03 -0.17234032738E+03  0.12576304401E+04  0.15689788733E+04  0.90974165502E+03 0.  0.
        -24    2    4    4    0    0 -0.29755657822E+03 -0.14888661712E+03  0.97348440584E+03  0.10318455499E+04  0.79537465335E+02 0.  0.
         24    2    4    4    0    0  0.44831901898E+03 -0.23453710265E+02  0.28414603427E+03  0.53713332339E+03  0.78950737791E+02 0.  0.
         13    1    3    3    0    0 -0.13463267634E+03  0.16023745953E+03  0.88825332884E+02  0.22735861703E+03  0.00000000000E+00 0.  1.
        -13    1    3    3    0    0 -0.16129764416E+02  0.12102867852E+02  0.53105144259E+02  0.56804973876E+02  0.00000000000E+00 0. -1.
          2    1    6    6  502    0  0.90005023441E+02  0.20024150656E+02  0.82264373704E+02  0.12356900111E+03  0.00000000000E+00 0. -1.
          1    1    5    5  503    0 -0.26277113546E+01 -0.17531057639E+02  0.32584857091E+02  0.37094686419E+02  0.00000000000E+00 0. -1.
         -2    1    5    5    0  503 -0.29492886687E+03 -0.13135555948E+03  0.94089954875E+03  0.99475086346E+03  0.00000000000E+00 0.  1.
         -1    1    6    6    0  502  0.35831399554E+03 -0.43477860921E+02  0.20188166057E+03  0.41356432228E+03  0.00000000000E+00 0.  1.
<mgrwt>
<rscale>  0 0.12146465E+04</rscale>
<asrwt>0</asrwt>
<pdfrwt beam="1">  1        2 0.25020794E+00 0.12146465E+04</pdfrwt>
<pdfrwt beam="2">  1       -2 0.34890889E-01 0.12146465E+04</pdfrwt>
<totfact> 0.81868737E+01</totfact>
</mgrwt>
</event>
<event>
12    1  0.1960998E-007  0.3112305E+04  0.7818608E-02  0.8212369E-01
         -2   -1    0    0    0  501 -0.00000000000E+00  0.00000000000E+00  0.91885582724E+03  0.91885582724E+03  0.00000000000E+00 0. -1.
          2   -1    0    0  501    0  0.00000000000E+00 -0.00000000000E+00 -0.26354628940E+04  0.26354628940E+04  0.00000000000E+00 0.  1.
         23    2    1    2    0    0  0.12305553865E+03 -0.88267142554E+03  0.48222415511E+03  0.10174758957E+04  0.92008431589E+02 0.  0.
        254    2    1    2    0    0 -0.12305553865E+03  0.88267142554E+03 -0.21988312219E+04  0.25368428256E+04  0.89803188600E+03 0.  0.
        -24    2    4    4    0    0 -0.73985966245E+01  0.36893105439E+02  0.69153653261E+02  0.11221448300E+03  0.79962628613E+02 0.  0.
         24    2    4    4    0    0 -0.11565694203E+03  0.84577832010E+03 -0.22679848752E+04  0.24246283426E+04  0.79685072178E+02 0.  0.
         11    1    3    3    0    0 -0.34263688029E+01 -0.27746097748E+03  0.14006749374E+03  0.31082991624E+03  0.00000000000E+00 0.  1.
        -11    1    3    3    0    0  0.12648190746E+03 -0.60521044806E+03  0.34215666136E+03  0.70664597945E+03  0.00000000000E+00 0. -1.
          2    1    6    6  502    0 -0.67248459928E+02  0.70540130000E+03 -0.18514858473E+04  0.19824513089E+04  0.00000000000E+00 0. -1.
          3    1    5    5  503    0 -0.35974711067E+02 -0.10682077882E+01  0.12108256786E+02  0.37972763747E+02  0.00000000000E+00 0. -1.
         -4    1    5    5    0  503  0.28576114442E+02  0.37961313227E+02  0.57045396476E+02  0.74241719253E+02  0.00000000000E+00 0.  1.
         -1    1    6    6    0  502 -0.48408482102E+02  0.14037702010E+03 -0.41649902790E+03  0.44217703373E+03  0.00000000000E+00 0.  1.
<mgrwt>
<rscale>  0 0.31123049E+04</rscale>
<asrwt>0</asrwt>
<pdfrwt beam="1">  1        2 0.40545582E+00 0.31123049E+04</pdfrwt>
<pdfrwt beam="2">  1       -2 0.14136244E+00 0.31123049E+04</pdfrwt>
<totfact> 0.86122151E-01</totfact>
</mgrwt>
</event>
<event>
12    1  0.1960998E-007  0.2743920E+04  0.7818608E-02  0.8320893E-01
         -2   -1    0    0    0  501 -0.00000000000E+00  0.00000000000E+00  0.66229394172E+03  0.66229394172E+03  0.00000000000E+00 0.  1.
          2   -1    0    0  501    0  0.00000000000E+00 -0.00000000000E+00 -0.28420529172E+04  0.28420529172E+04  0.00000000000E+00 0. -1.
         23    2    1    2    0    0  0.62036798953E+03 -0.10458876269E+04 -0.11370954017E+04  0.16673072852E+04  0.90500057127E+02 0.  0.
        254    2    1    2    0    0 -0.62036798953E+03  0.10458876269E+04 -0.10426635738E+04  0.18370395737E+04  0.89934959649E+03 0.  0.
        -24    2    4    4    0    0 -0.14382404781E+03 -0.14976426857E+03 -0.15801939252E+03  0.27297185658E+03  0.80179880309E+02 0.  0.
         24    2    4    4    0    0 -0.47654394173E+03  0.11956518954E+04 -0.88464418125E+03  0.15640677171E+04  0.83874386862E+02 0.  0.
         13    1    3    3    0    0  0.22062327246E+03 -0.33743456041E+03 -0.32463280177E+03  0.51761295086E+03  0.00000000000E+00 0.  1.
        -13    1    3    3    0    0  0.39974471707E+03 -0.70845306646E+03 -0.81246259995E+03  0.11496943344E+04  0.00000000000E+00 0. -1.
          4    1    6    6  502    0 -0.99784801837E+02  0.30678983047E+03 -0.18613056296E+03  0.37245347794E+03  0.00000000000E+00 0. -1.
          3    1    5    5  503    0 -0.51580422789E+01  0.50566545089E+00 -0.32791053894E+02  0.33198107072E+02  0.00000000000E+00 0. -1.
         -4    1    5    5    0  503 -0.13866600553E+03 -0.15026993402E+03 -0.12522833862E+03  0.23977374951E+03  0.00000000000E+00 0.  1.
         -3    1    6    6    0  502 -0.37675913989E+03  0.88886206497E+03 -0.69851361829E+03  0.11916142392E+04  0.00000000000E+00 0.  1.
<mgrwt>
<rscale>  0 0.27439201E+04</rscale>
<asrwt>0</asrwt>
<pdfrwt beam="1">  1        2 0.43723890E+00 0.27439201E+04</pdfrwt>
<pdfrwt beam="2">  1       -2 0.10189138E+00 0.27439201E+04</pdfrwt>
<totfact> 0.15050337E+00</totfact>
</mgrwt>
</event>
<event>
12    1  0.1960998E-007  0.1610497E+04  0.7818608E-02  0.8814125E-01
         -1   -1    0    0    0  501 -0.00000000000E+00  0.00000000000E+00  0.72809048452E+03  0.72809048452E+03  0.00000000000E+00 0.  1.
          1   -1    0    0  501    0  0.00000000000E+00 -0.00000000000E+00 -0.89058303254E+03  0.89058303254E+03  0.00000000000E+00 0. -1.
         23    2    1    2    0    0 -0.38502956441E+03 -0.19995335654E+03  0.28242314232E+03  0.52548940761E+03  0.90261707982E+02 0.  0.
        254    2    1    2    0    0  0.38502956441E+03  0.19995335654E+03 -0.44491569034E+03  0.10931841095E+04  0.89937334595E+03 0.  0.
        -24    2    4    4    0    0  0.14257740736E+03 -0.28887011921E+03 -0.42798424643E+03  0.54141385826E+03  0.78639607449E+02 0.  0.
         24    2    4    4    0    0  0.24245215705E+03  0.48882347575E+03 -0.16931443911E+02  0.55177025120E+03  0.80201604800E+02 0.  0.
         11    1    3    3    0    0 -0.17300458342E+02  0.96938406885E+01  0.13678708976E+02  0.24091149524E+02  0.00000000000E+00 0. -1.
        -11    1    3    3    0    0 -0.36772910607E+03 -0.20964719722E+03  0.26874443335E+03  0.50139825808E+03  0.00000000000E+00 0.  1.
          4    1    6    6  502    0  0.35062609518E+01  0.48648935048E+02 -0.14612017594E+02  0.50916832240E+02  0.00000000000E+00 0. -1.
          1    1    5    5  503    0  0.10663068960E+03 -0.12930179015E+03 -0.23044659427E+03  0.28494681910E+03  0.00000000000E+00 0. -1.
         -2    1    5    5    0  503  0.35946717759E+02 -0.15956832906E+03 -0.19753765215E+03  0.25646703916E+03  0.00000000000E+00 0.  1.
         -3    1    6    6    0  502  0.23894589610E+03  0.44017454070E+03 -0.23194263167E+01  0.50085341896E+03  0.00000000000E+00 0.  1.
<mgrwt>
<rscale>  0 0.16104969E+04</rscale>
<asrwt>0</asrwt>
<pdfrwt beam="1">  1        1 0.13701277E+00 0.16104969E+04</pdfrwt>
<pdfrwt beam="2">  1       -1 0.11201392E+00 0.16104969E+04</pdfrwt>
<totfact> 0.12985595E+01</totfact>
</mgrwt>
</event>
<event>
12    1  0.1960998E-007  0.2117933E+04  0.7818608E-02  0.8553385E-01
         -1   -1    0    0    0  501 -0.00000000000E+00  0.00000000000E+00  0.89366586484E+03  0.89366586484E+03  0.00000000000E+00 0.  1.
          1   -1    0    0  501    0  0.00000000000E+00 -0.00000000000E+00 -0.12548427140E+04  0.12548427140E+04  0.00000000000E+00 0. -1.
         23    2    1    2    0    0  0.10413275539E+03  0.49675075969E+02  0.72040455050E+03  0.73505835219E+03  0.89536701030E+02 0.  0.
        254    2    1    2    0    0 -0.10413275539E+03 -0.49675075969E+02 -0.10815813996E+04  0.14134502266E+04  0.90261396798E+03 0.  0.
        -24    2    4    4    0    0  0.88539076394E+02 -0.42255976525E+03 -0.76345120608E+03  0.88059216128E+03  0.78669480664E+02 0.  0.
         24    2    4    4    0    0 -0.19267183178E+03  0.37288468928E+03 -0.31813019354E+03  0.53285806533E+03  0.81027597081E+02 0.  0.
         11    1    3    3    0    0  0.71752412334E+02 -0.15281708693E+02  0.37569401245E+03  0.38278966847E+03  0.00000000000E+00 0.  1.
        -11    1    3    3    0    0  0.32380343053E+02  0.64956784662E+02  0.34471053805E+03  0.35226868372E+03  0.00000000000E+00 0. -1.
          4    1    6    6  502    0 -0.41773872710E+02  0.73671726818E+02 -0.26835620556E+02  0.88841039527E+02  0.00000000000E+00 0. -1.
          3    1    5    5  503    0  0.15716912574E+02 -0.34558989758E+02 -0.11827894443E+03  0.12422259782E+03  0.00000000000E+00 0. -1.
         -4    1    5    5    0  503  0.72822163820E+02 -0.38800077549E+03 -0.64517226165E+03  0.75636956345E+03  0.00000000000E+00 0.  1.
         -3    1    6    6    0  502 -0.15089795907E+03  0.29921296246E+03 -0.29129457298E+03  0.44401702580E+03  0.00000000000E+00 0.  1.
<mgrwt>
<rscale>  0 0.21179330E+04</rscale>
<asrwt>0</asrwt>
<pdfrwt beam="1">  1        1 0.19305272E+00 0.21179330E+04</pdfrwt>
<pdfrwt beam="2">  1       -1 0.13748706E+00 0.21179330E+04</pdfrwt>
<totfact> 0.39337879E+00</totfact>
</mgrwt>
</event>
<event>
12    1  0.1960998E-007  0.3803221E+04  0.7818608E-02  0.8045464E-01
          1   -1    0    0  501    0  0.00000000000E+00  0.00000000000E+00  0.17935960969E+04  0.17935960969E+04  0.00000000000E+00 0. -1.
         -1   -1    0    0    0  501 -0.00000000000E+00 -0.00000000000E+00 -0.20161299860E+04  0.20161299860E+04  0.00000000000E+00 0.  1.
         23    2    1    2    0    0 -0.39911060302E+02  0.17876260135E+04  0.43414485227E+02  0.17901653198E+04  0.74882560301E+02 0.  0.
        254    2    1    2    0    0  0.39911060302E+02 -0.17876260135E+04 -0.26594837439E+03  0.20195607631E+04  0.90038740610E+03 0.  0.
        -24    2    4    4    0    0  0.28654231922E+03 -0.12726393569E+04  0.13960328900E+03  0.13144642877E+04  0.81300995518E+02 0.  0.
         24    2    4    4    0    0 -0.24663125892E+03 -0.51498665663E+03 -0.40555166339E+03  0.70509647543E+03  0.81551539529E+02 0.  0.
         11    1    3    3    0    0 -0.11731751560E+02  0.41198980669E+03 -0.21428188940E+02  0.41271346246E+03  0.00000000000E+00 0.  1.
        -11    1    3    3    0    0 -0.28179308742E+02  0.13756362068E+04  0.64842674167E+02  0.13774518573E+04  0.00000000000E+00 0. -1.
          2    1    6    6  502    0 -0.33401991605E+02 -0.93357810765E+02 -0.36842648135E+02  0.10577690956E+03  0.00000000000E+00 0. -1.
          3    1    5    5  503    0  0.90471184102E+01 -0.14534300880E+03  0.46481984773E+01  0.14569847737E+03  0.00000000000E+00 0. -1.
         -4    1    5    5    0  503  0.27749520081E+03 -0.11272963481E+04  0.13495509052E+03  0.11687658103E+04  0.00000000000E+00 0.  1.
         -3    1    6    6    0  502 -0.21322926731E+03 -0.42162884587E+03 -0.36870901525E+03  0.59931956587E+03  0.00000000000E+00 0.  1.
<mgrwt>
<rscale>  0 0.38032212E+04</rscale>
<asrwt>0</asrwt>
<pdfrwt beam="1">  1        1 0.27593786E+00 0.38032212E+04</pdfrwt>
<pdfrwt beam="2">  1       -1 0.31017384E+00 0.38032212E+04</pdfrwt>
<totfact> 0.92830155E-02</totfact>
</mgrwt>
</event>
<event>
12    1  0.1960998E-007  0.1760839E+04  0.7818608E-02  0.8727407E-01
         -2   -1    0    0    0  501 -0.00000000000E+00  0.00000000000E+00  0.63168315966E+03  0.63168315966E+03  0.00000000000E+00 0.  1.
          2   -1    0    0  501    0  0.00000000000E+00 -0.00000000000E+00 -0.12271001578E+04  0.12271001578E+04  0.00000000000E+00 0. -1.
         23    2    1    2    0    0  0.45514010778E+03  0.51569504561E+02  0.25866681500E+03  0.53425803230E+03  0.93333768691E+02 0.  0.
        254    2    1    2    0    0 -0.45514010778E+03 -0.51569504561E+02 -0.85408381317E+03  0.13245252852E+04  0.90282674954E+03 0.  0.
        -24    2    4    4    0    0  0.21952978635E+03 -0.11264904020E+03 -0.47978510139E+03  0.54637752753E+03  0.86322220285E+02 0.  0.
         24    2    4    4    0    0 -0.67466989413E+03  0.61079535640E+02 -0.37429871178E+03  0.77814775767E+03  0.80648815285E+02 0.  0.
         11    1    3    3    0    0  0.27202935479E+02  0.26054341502E+02  0.11365262712E+02  0.39344600726E+02  0.00000000000E+00 0. -1.
        -11    1    3    3    0    0  0.42793717230E+03  0.25515163059E+02  0.24730155229E+03  0.49491343157E+03  0.00000000000E+00 0.  1.
          4    1    6    6  502    0 -0.15475138331E+03  0.31465674464E+02 -0.54635631002E+02  0.16710215881E+03  0.00000000000E+00 0. -1.
          1    1    5    5  503    0 -0.18414703724E+01 -0.46834369404E+01  0.18976724082E+01  0.53783599057E+01  0.00000000000E+00 0. -1.
         -2    1    5    5    0  503  0.22137125672E+03 -0.10796560326E+03 -0.48168277380E+03  0.54099916762E+03  0.00000000000E+00 0.  1.
         -3    1    6    6    0  502 -0.51991851082E+03  0.29613861176E+02 -0.31966308077E+03  0.61104559885E+03  0.00000000000E+00 0.  1.
<mgrwt>
<rscale>  0 0.17608390E+04</rscale>
<asrwt>0</asrwt>
<pdfrwt beam="1">  1        2 0.18878464E+00 0.17608390E+04</pdfrwt>
<pdfrwt beam="2">  1       -2 0.97182026E-01 0.17608390E+04</pdfrwt>
<totfact> 0.15273939E+01</totfact>
</mgrwt>
</event>
<event>
12    1  0.1960998E-007  0.3021960E+04  0.7818608E-02  0.8237488E-01
         -1   -1    0    0    0  501 -0.00000000000E+00  0.00000000000E+00  0.96466746568E+03  0.96466746568E+03  0.00000000000E+00 0.  1.
          1   -1    0    0  501    0  0.00000000000E+00 -0.00000000000E+00 -0.23666816573E+04  0.23666816573E+04  0.00000000000E+00 0. -1.
         23    2    1    2    0    0  0.42395856857E+03  0.21351249302E+02  0.80271724272E+03  0.91251267285E+03  0.90153550353E+02 0.  0.
        254    2    1    2    0    0 -0.42395856857E+03 -0.21351249302E+02 -0.22047314344E+04  0.24188364502E+04  0.89985128284E+03 0.  0.
        -24    2    4    4    0    0  0.26322473609E+03  0.91342184288E+02 -0.72924517924E+03  0.78530487365E+03  0.85291012434E+02 0.  0.
         24    2    4    4    0    0 -0.68718330466E+03 -0.11269343359E+03 -0.14754862551E+04  0.16335315765E+04  0.80280870826E+02 0.  0.
         11    1    3    3    0    0  0.41166002952E+02  0.22642584351E+02  0.13381887459E+03  0.14182671688E+03  0.00000000000E+00 0.  1.
        -11    1    3    3    0    0  0.38279256562E+03 -0.12913350495E+01  0.66889836813E+03  0.77068595597E+03  0.00000000000E+00 0. -1.
          2    1    6    6  502    0 -0.57022501240E+03 -0.10525566648E+03 -0.12867688696E+04  0.14113856467E+04  0.00000000000E+00 0. -1.
          3    1    5    5  503    0  0.15735429381E+03  0.47298350492E+02 -0.31238673304E+03  0.35296314074E+03  0.00000000000E+00 0. -1.
         -4    1    5    5    0  503  0.10587044229E+03  0.44043833796E+02 -0.41685844620E+03  0.43234173291E+03  0.00000000000E+00 0.  1.
         -1    1    6    6    0  502 -0.11695829227E+03 -0.74377671069E+01 -0.18871738552E+03  0.22214592976E+03  0.00000000000E+00 0.  1.
<mgrwt>
<rscale>  0 0.30219602E+04</rscale>
<asrwt>0</asrwt>
<pdfrwt beam="1">  1        1 0.36410487E+00 0.30219602E+04</pdfrwt>
<pdfrwt beam="2">  1       -1 0.14841038E+00 0.30219602E+04</pdfrwt>
<totfact> 0.51071559E-01</totfact>
</mgrwt>
</event>
<event>
12    1  0.1960998E-007  0.2364850E+04  0.7818608E-02  0.8452782E-01
          1   -1    0    0  501    0  0.00000000000E+00  0.00000000000E+00  0.14067617665E+04  0.14067617665E+04  0.00000000000E+00 0. -1.
         -1   -1    0    0    0  501 -0.00000000000E+00 -0.00000000000E+00 -0.99386319407E+03  0.99386319407E+03  0.00000000000E+00 0.  1.
         23    2    1    2    0    0  0.37403375530E+03  0.93094077879E+03  0.58835150218E+02  0.10093066667E+04  0.93200798652E+02 0.  0.
        254    2    1    2    0    0 -0.37403375530E+03 -0.93094077879E+03  0.35406342218E+03  0.13913182938E+04  0.89657888892E+03 0.  0.
        -24    2    4    4    0    0 -0.46456450335E+03 -0.13709402773E+03 -0.49766390075E+02  0.49310550073E+03  0.77854935979E+02 0.  0.
         24    2    4    4    0    0  0.90530748049E+02 -0.79384675107E+03  0.40382981226E+03  0.89821279309E+03  0.72933009511E+02 0.  0.
         13    1    3    3    0    0  0.74278859993E+02  0.13429142469E+03  0.36936303397E+02  0.15784747795E+03  0.00000000000E+00 0. -1.
        -13    1    3    3    0    0  0.29975489531E+03  0.79664935410E+03  0.21898846821E+02  0.85145918877E+03  0.00000000000E+00 0.  1.
          4    1    6    6  502    0  0.80216774047E+02 -0.58975146488E+03  0.26733113647E+03  0.65246261019E+03  0.00000000000E+00 0. -1.
          3    1    5    5  503    0 -0.44864105441E+03 -0.13150007345E+03 -0.62889035744E+02  0.47172671732E+03  0.00000000000E+00 0. -1.
         -4    1    5    5    0  503 -0.15923448945E+02 -0.55939542786E+01  0.13122645669E+02  0.21378783411E+02  0.00000000000E+00 0.  1.
         -3    1    6    6    0  502  0.10313974001E+02 -0.20409528619E+03  0.13649867579E+03  0.24575018290E+03  0.00000000000E+00 0.  1.
<mgrwt>
<rscale>  0 0.23648499E+04</rscale>
<asrwt>0</asrwt>
<pdfrwt beam="1">  1        1 0.21642489E+00 0.23648499E+04</pdfrwt>
<pdfrwt beam="2">  1       -1 0.15290203E+00 0.23648499E+04</pdfrwt>
<totfact> 0.22626386E+00</totfact>
</mgrwt>
</event>
<event>
12    1  0.1960998E-007  0.2463698E+04  0.7818608E-02  0.8416034E-01
         -2   -1    0    0    0  501 -0.00000000000E+00  0.00000000000E+00  0.13238098707E+04  0.13238098707E+04  0.00000000000E+00 0.  1.
          2   -1    0    0  501    0  0.00000000000E+00 -0.00000000000E+00 -0.11462760505E+04  0.11462760505E+04  0.00000000000E+00 0. -1.
         23    2    1    2    0    0  0.40362175180E+03  0.97589426483E+03  0.21510779996E+03  0.10814426342E+04  0.89256208611E+02 0.  0.
        254    2    1    2    0    0 -0.40362175180E+03 -0.97589426483E+03 -0.37573979779E+02  0.13886432871E+04  0.90090967368E+03 0.  0.
        -24    2    4    4    0    0 -0.11166574391E+03  0.13789385610E+03  0.11076785227E+03  0.22482246712E+03  0.82411593311E+02 0.  0.
         24    2    4    4    0    0 -0.29195600789E+03 -0.11137881209E+04 -0.14834183205E+03  0.11638208200E+04  0.81922603465E+02 0.  0.
         13    1    3    3    0    0  0.35636070938E+03  0.84207786401E+03  0.15545855076E+03  0.92749956617E+03  0.00000000000E+00 0. -1.
        -13    1    3    3    0    0  0.47261042420E+02  0.13381640082E+03  0.59649249200E+02  0.15394306801E+03  0.00000000000E+00 0.  1.
          4    1    6    6  502    0 -0.37878332110E+02 -0.26995113810E+03 -0.20906741874E+02  0.27339619028E+03  0.00000000000E+00 0. -1.
          3    1    5    5  503    0 -0.11477985038E+02  0.23262754538E+02 -0.12629189663E+02  0.28851279362E+02  0.00000000000E+00 0. -1.
         -4    1    5    5    0  503 -0.10018775887E+03  0.11463110156E+03  0.12339704194E+03  0.19597118776E+03  0.00000000000E+00 0.  1.
         -3    1    6    6    0  502 -0.25407767578E+03 -0.84383698283E+03 -0.12743509018E+03  0.89042462967E+03  0.00000000000E+00 0.  1.
<mgrwt>
<rscale>  0 0.24636977E+04</rscale>
<asrwt>0</asrwt>
<pdfrwt beam="1">  1        2 0.17635016E+00 0.24636977E+04</pdfrwt>
<pdfrwt beam="2">  1       -2 0.20366306E+00 0.24636977E+04</pdfrwt>
<totfact> 0.22975048E+00</totfact>
</mgrwt>
</event>
<event>
12    1  0.1960998E-007  0.2735054E+04  0.7818608E-02  0.8323720E-01
         -2   -1    0    0    0  501 -0.00000000000E+00  0.00000000000E+00  0.70463333957E+03  0.70463333957E+03  0.00000000000E+00 0.  1.
          2   -1    0    0  501    0  0.00000000000E+00 -0.00000000000E+00 -0.26540477614E+04  0.26540477614E+04  0.00000000000E+00 0. -1.
         23    2    1    2    0    0 -0.99978502005E+03  0.34678875416E+03 -0.13213197117E+03  0.10704234570E+04  0.92276719977E+02 0.  0.
        254    2    1    2    0    0  0.99978502005E+03 -0.34678875416E+03 -0.18172824506E+04  0.22882576440E+04  0.90209479187E+03 0.  0.
        -24    2    4    4    0    0 -0.15280437027E+03 -0.75003189009E+02 -0.38460410953E+03  0.42788611007E+03  0.78686391379E+02 0.  0.
         24    2    4    4    0    0  0.11525893903E+04 -0.27178556516E+03 -0.14326783411E+04  0.18603715339E+04  0.78008454737E+02 0.  0.
         11    1    3    3    0    0 -0.83130474603E+03  0.28765466912E+03 -0.14442854209E+03  0.89144399331E+03  0.00000000000E+00 0. -1.
        -11    1    3    3    0    0 -0.16848027402E+03  0.59134085040E+02  0.12296570922E+02  0.17897946364E+03  0.00000000000E+00 0.  1.
          2    1    6    6  502    0  0.94864423764E+03 -0.19268559575E+03 -0.11667494144E+04  0.15160335829E+04  0.00000000000E+00 0. -1.
          1    1    5    5  503    0 -0.15481839885E+03 -0.83879799788E+02 -0.37673820355E+03  0.41585602250E+03  0.00000000000E+00 0. -1.
         -2    1    5    5    0  503  0.20140285818E+01  0.88766107790E+01 -0.78659059797E+01  0.12030087570E+02  0.00000000000E+00 0.  1.
         -1    1    6    6    0  502  0.20394515268E+03 -0.79099969408E+02 -0.26592892673E+03  0.34433795105E+03  0.00000000000E+00 0.  1.
<mgrwt>
<rscale>  0 0.27350543E+04</rscale>
<asrwt>0</asrwt>
<pdfrwt beam="1">  1        2 0.40831504E+00 0.27350543E+04</pdfrwt>
<pdfrwt beam="2">  1       -2 0.10840513E+00 0.27350543E+04</pdfrwt>
<totfact> 0.16832657E+00</totfact>
</mgrwt>
</event>
<event>
12    1  0.1960998E-007  0.2520701E+04  0.7818608E-02  0.8395648E-01
         -2   -1    0    0    0  501 -0.00000000000E+00  0.00000000000E+00  0.82838107323E+03  0.82838107323E+03  0.00000000000E+00 0.  1.
          2   -1    0    0  501    0  0.00000000000E+00 -0.00000000000E+00 -0.19175756656E+04  0.19175756656E+04  0.00000000000E+00 0. -1.
         23    2    1    2    0    0  0.94301504508E+03  0.56032690326E+03 -0.45629751893E+03  0.11917296425E+04  0.93640275302E+02 0.  0.
        254    2    1    2    0    0 -0.94301504508E+03 -0.56032690326E+03 -0.63289707348E+03  0.15542270964E+04  0.90101029288E+03 0.  0.
        -24    2    4    4    0    0 -0.10415504752E+04 -0.63769508412E+03 -0.41769689892E+03  0.12931623003E+04  0.79470892566E+02 0.  0.
         24    2    4    4    0    0  0.98535430136E+02  0.77368180867E+02 -0.21520017456E+03  0.26106479614E+03  0.78413304029E+02 0.  0.
         11    1    3    3    0    0  0.65490420407E+03  0.33900802297E+03 -0.31536020628E+03  0.80204614322E+03  0.00000000000E+00 0.  1.
        -11    1    3    3    0    0  0.28811084101E+03  0.22131888028E+03 -0.14093731266E+03  0.38968349923E+03  0.00000000000E+00 0. -1.
          4    1    6    6  502    0  0.19108172598E+02 -0.16152377903E+02 -0.39703992382E+02  0.46930039239E+02  0.00000000000E+00 0. -1.
          3    1    5    5  503    0 -0.11235249644E+03 -0.99170742195E+02 -0.49179682782E+02  0.15772305083E+03  0.00000000000E+00 0. -1.
         -4    1    5    5    0  503 -0.92919797878E+03 -0.53852434193E+03 -0.36851721613E+03  0.11354392495E+04  0.00000000000E+00 0.  1.
         -3    1    6    6    0  502  0.79427257538E+02  0.93520558770E+02 -0.17549618218E+03  0.21413475690E+03  0.00000000000E+00 0.  1.
<mgrwt>
<rscale>  0 0.25207010E+04</rscale>
<asrwt>0</asrwt>
<pdfrwt beam="1">  1        2 0.29501164E+00 0.25207010E+04</pdfrwt>
<pdfrwt beam="2">  1       -2 0.12744324E+00 0.25207010E+04</pdfrwt>
<totfact> 0.30190935E+00</totfact>
</mgrwt>
</event>
<event>
12    1  0.1960998E-007  0.2345371E+04  0.7818608E-02  0.8460244E-01
          1   -1    0    0  501    0  0.00000000000E+00  0.00000000000E+00  0.81214824600E+03  0.81214824600E+03  0.00000000000E+00 0. -1.
         -1   -1    0    0    0  501 -0.00000000000E+00 -0.00000000000E+00 -0.16932760268E+04  0.16932760268E+04  0.00000000000E+00 0.  1.
         23    2    1    2    0    0 -0.84264204491E+03 -0.52860694423E+03 -0.29965083680E+03  0.10428974249E+04  0.91506816669E+02 0.  0.
        254    2    1    2    0    0  0.84264204491E+03  0.52860694423E+03 -0.58147694404E+03  0.14625268480E+04  0.90077656899E+03 0.  0.
        -24    2    4    4    0    0  0.10201053137E+04  0.40958001788E+03 -0.55177698342E+03  0.12325127109E+04  0.79114480598E+02 0.  0.
         24    2    4    4    0    0 -0.17746326880E+03  0.11902692634E+03 -0.29699960612E+02  0.23001413704E+03  0.79773395390E+02 0.  0.
         13    1    3    3    0    0 -0.21060973311E+03 -0.17771428611E+03 -0.68808228285E+02  0.28403063118E+03  0.00000000000E+00 0.  1.
        -13    1    3    3    0    0 -0.63203231180E+03 -0.35089265811E+03 -0.23084260852E+03  0.75886679370E+03  0.00000000000E+00 0. -1.
          4    1    6    6  502    0 -0.63639612128E+01  0.14778428358E+02 -0.24843240559E+02  0.29598793025E+02  0.00000000000E+00 0. -1.
          1    1    5    5  503    0  0.20661494379E+03  0.49593755475E+02 -0.11035471422E+03  0.23943149026E+03  0.00000000000E+00 0. -1.
         -2    1    5    5    0  503  0.81349036992E+03  0.35998626241E+03 -0.44142226921E+03  0.99308122066E+03  0.00000000000E+00 0.  1.
         -3    1    6    6    0  502 -0.17109930759E+03  0.10424849798E+03 -0.48567200533E+01  0.20041534402E+03  0.00000000000E+00 0.  1.
<mgrwt>
<rscale>  0 0.23453709E+04</rscale>
<asrwt>0</asrwt>
<pdfrwt beam="1">  1        1 0.12494588E+00 0.23453709E+04</pdfrwt>
<pdfrwt beam="2">  1       -1 0.26050400E+00 0.23453709E+04</pdfrwt>
<totfact> 0.11569257E+00</totfact>
</mgrwt>
</event>
<event>
12    1  0.1960998E-007  0.3019815E+04  0.7818608E-02  0.8238095E-01
          2   -1    0    0  501    0  0.00000000000E+00  0.00000000000E+00  0.51795655603E+04  0.51795655603E+04  0.00000000000E+00 0. -1.
         -2   -1    0    0    0  501 -0.00000000000E+00 -0.00000000000E+00 -0.44015673798E+03  0.44015673798E+03  0.00000000000E+00 0.  1.
         23    2    1    2    0    0  0.51504491585E+03  0.12329521638E+04  0.27590027219E+04  0.30669333133E+04  0.92420912741E+02 0.  0.
        254    2    1    2    0    0 -0.51504491585E+03 -0.12329521638E+04  0.19804061004E+04  0.25527889850E+04  0.89960045354E+03 0.  0.
        -24    2    4    4    0    0 -0.76268475358E+03 -0.90218926702E+03  0.13612616406E+04  0.18041568865E+04  0.79468924491E+02 0.  0.
         24    2    4    4    0    0  0.24763983773E+03 -0.33076289673E+03  0.61914445981E+03  0.74863209855E+03  0.79878493792E+02 0.  0.
         13    1    3    3    0    0  0.19996094333E+03  0.49932679538E+03  0.10095923806E+04  0.11439354887E+04  0.00000000000E+00 0.  1.
        -13    1    3    3    0    0  0.31508397252E+03  0.73362536837E+03  0.17494103413E+04  0.19229978245E+04  0.00000000000E+00 0. -1.
          2    1    6    6  502    0  0.14471572840E+02 -0.31059419346E+02  0.98025426337E+02  0.10384169759E+03  0.00000000000E+00 0. -1.
          1    1    5    5  503    0 -0.24522972229E+03 -0.34042405015E+03  0.51292978607E+03  0.66266365228E+03  0.00000000000E+00 0. -1.
         -2    1    5    5    0  503 -0.51745503129E+03 -0.56176521687E+03  0.84833185455E+03  0.11414932342E+04  0.00000000000E+00 0.  1.
         -1    1    6    6    0  502  0.23316826489E+03 -0.29970347739E+03  0.52111903348E+03  0.64479040095E+03  0.00000000000E+00 0.  1.
<mgrwt>
<rscale>  0 0.30198150E+04</rscale>
<asrwt>0</asrwt>
<pdfrwt beam="1">  1        2 0.79685620E+00 0.30198150E+04</pdfrwt>
<pdfrwt beam="2">  1       -2 0.67716425E-01 0.30198150E+04</pdfrwt>
<totfact> 0.33659678E-02</totfact>
</mgrwt>
</event>
<event>
12    1  0.2239381E-007  0.3731049E+04  0.7818608E-02  0.8061116E-01
          2   -1    0    0  501    0  0.00000000000E+00  0.00000000000E+00  0.18224124938E+04  0.18224124938E+04  0.00000000000E+00 0. -1.
         -2   -1    0    0    0  501 -0.00000000000E+00 -0.00000000000E+00 -0.19096567920E+04  0.19096567920E+04  0.00000000000E+00 0.  1.
         23    2    1    2    0    0  0.11074700967E+04 -0.69221373907E+03  0.11328435747E+04  0.17311741795E+04  0.89328603964E+02 0.  0.
        254    2    1    2    0    0 -0.11074700967E+04  0.69221373907E+03 -0.12200878728E+04  0.20008951063E+04  0.89962043849E+03 0.  0.
        -24    2    4    4    0    0 -0.30833625873E+02  0.46867458675E+03 -0.28568805179E+03  0.55573259407E+03  0.81329406889E+02 0.  0.
         24    2    4    4    0    0 -0.10766364708E+04  0.22353915232E+03 -0.93439982099E+03  0.14451625122E+04  0.79220062173E+02 0.  0.
         13    1    3    3    0    0  0.89232426453E+03 -0.52761327519E+03  0.93129551936E+03  0.13935313795E+04  0.00000000000E+00 0. -1.
        -13    1    3    3    0    0  0.21514583219E+03 -0.16460046388E+03  0.20154805530E+03  0.33764280003E+03  0.00000000000E+00 0.  1.
          4    1    6    6  502    0 -0.10633326264E+04  0.22108053118E+03 -0.90854816032E+03  0.14159846875E+04  0.00000000000E+00 0. -1.
          3    1    5    5  503    0 -0.21930492312E+02  0.44885713531E+03 -0.28819442994E+03  0.53386300102E+03  0.00000000000E+00 0. -1.
         -4    1    5    5    0  503 -0.89031335602E+01  0.19817451447E+02  0.25063781430E+01  0.21869593056E+02  0.00000000000E+00 0.  1.
         -3    1    6    6    0  502 -0.13303844448E+02  0.24586211350E+01 -0.25851660667E+02  0.29177824700E+02  0.00000000000E+00 0.  1.
<mgrwt>
<rscale>  0 0.37310494E+04</rscale>
<asrwt>0</asrwt>
<pdfrwt beam="1">  1        2 0.28037115E+00 0.37310494E+04</pdfrwt>
<pdfrwt beam="2">  1       -2 0.29379335E+00 0.37310494E+04</pdfrwt>
<totfact> 0.23453131E-01</totfact>
</mgrwt>
</event>
<event>
12    1  0.1960998E-007  0.2430164E+04  0.7818608E-02  0.8428296E-01
         -1   -1    0    0    0  501 -0.00000000000E+00  0.00000000000E+00  0.38898376455E+03  0.38898376455E+03  0.00000000000E+00 0.  1.
          1   -1    0    0  501    0  0.00000000000E+00 -0.00000000000E+00 -0.37955934615E+04  0.37955934615E+04  0.00000000000E+00 0. -1.
         23    2    1    2    0    0 -0.30092585920E+03 -0.88035364648E+03 -0.22995368563E+04  0.24822089929E+04  0.88954005561E+02 0.  0.
        254    2    1    2    0    0  0.30092585920E+03  0.88035364648E+03 -0.11070728406E+04  0.17023682332E+04  0.89825854365E+03 0.  0.
        -24    2    4    4    0    0  0.20036523731E+03  0.48195091885E+03 -0.11657867273E+04  0.12797533504E+04  0.79290780190E+02 0.  0.
         24    2    4    4    0    0  0.10056062188E+03  0.39840272763E+03  0.58713886688E+02  0.42261488275E+03  0.79491172941E+02 0.  0.
         13    1    3    3    0    0 -0.18052070086E+03 -0.44599577201E+03 -0.10923935332E+04  0.11936597436E+04  0.00000000000E+00 0. -1.
        -13    1    3    3    0    0 -0.12040515834E+03 -0.43435787448E+03 -0.12071433231E+04  0.12885492493E+04  0.00000000000E+00 0.  1.
          4    1    6    6  502    0  0.24116032075E+02  0.20250869775E+03  0.59110191812E+02  0.21233315907E+03  0.00000000000E+00 0. -1.
          3    1    5    5  503    0  0.52514243033E+01  0.55279200519E+02 -0.85043209260E+02  0.10156630794E+03  0.00000000000E+00 0. -1.
         -4    1    5    5    0  503  0.19511381301E+03  0.42667171833E+03 -0.10807435180E+04  0.11781870425E+04  0.00000000000E+00 0.  1.
         -3    1    6    6    0  502  0.76444589807E+02  0.19589402988E+03 -0.39630512371E+00  0.21028172368E+03  0.00000000000E+00 0.  1.
<mgrwt>
<rscale>  0 0.24301640E+04</rscale>
<asrwt>0</asrwt>
<pdfrwt beam="1">  1        1 0.58393748E+00 0.24301640E+04</pdfrwt>
<pdfrwt beam="2">  1       -1 0.59843654E-01 0.24301640E+04</pdfrwt>
<totfact> 0.36458241E-01</totfact>
</mgrwt>
</event>
<event>
12    1  0.1960998E-007  0.1439970E+04  0.7818608E-02  0.8925384E-01
         -2   -1    0    0    0  501 -0.00000000000E+00  0.00000000000E+00  0.59381084815E+03  0.59381084815E+03  0.00000000000E+00 0. -1.
          2   -1    0    0  501    0  0.00000000000E+00 -0.00000000000E+00 -0.87296888196E+03  0.87296888196E+03  0.00000000000E+00 0.  1.
         23    2    1    2    0    0  0.37305639647E+03  0.20248786417E+03 -0.14780763999E+03  0.46117599071E+03  0.10326560843E+03 0.  0.
        254    2    1    2    0    0 -0.37305639647E+03 -0.20248786417E+03 -0.13135039382E+03  0.10056037394E+04  0.90211614809E+03 0.  0.
        -24    2    4    4    0    0 -0.26842494820E+03 -0.54296320920E+03  0.19216910075E+02  0.61034754073E+03  0.72758720972E+02 0.  0.
         24    2    4    4    0    0 -0.10463144827E+03  0.34047534503E+03 -0.15056730390E+03  0.39525619867E+03  0.81766429800E+02 0.  0.
         13    1    3    3    0    0  0.23799568867E+03  0.96739914652E+02 -0.43913915857E+02  0.26063190694E+03  0.00000000000E+00 0. -1.
        -13    1    3    3    0    0  0.13506070780E+03  0.10574794952E+03 -0.10389372413E+03  0.20054408377E+03  0.00000000000E+00 0.  1.
          4    1    6    6  502    0 -0.10313553593E+03  0.33260823550E+03 -0.15970429022E+03  0.38310656143E+03  0.00000000000E+00 0. -1.
          1    1    5    5  503    0 -0.22379194310E+03 -0.41383556067E+03  0.39931716595E+02  0.47216231008E+03  0.00000000000E+00 0. -1.
         -4    1    5    5    0  503 -0.44633005099E+02 -0.12912764853E+03 -0.20714806521E+02  0.13818523065E+03  0.00000000000E+00 0.  1.
         -3    1    6    6    0  502 -0.14959123423E+01  0.78671095303E+01  0.91369863207E+01  0.12149637242E+02  0.00000000000E+00 0.  1.
<mgrwt>
<rscale>  0 0.14399700E+04</rscale>
<asrwt>0</asrwt>
<pdfrwt beam="1">  1        2 0.13430291E+00 0.14399700E+04</pdfrwt>
<pdfrwt beam="2">  1       -2 0.91355515E-01 0.14399700E+04</pdfrwt>
<totfact> 0.30321183E+01</totfact>
</mgrwt>
</event>
<event>
12    1  0.1960998E-007  0.1936657E+04  0.7818608E-02  0.8636822E-01
          2   -1    0    0  501    0  0.00000000000E+00  0.00000000000E+00  0.12159817440E+04  0.12159817440E+04  0.00000000000E+00 0. -1.
         -2   -1    0    0    0  501 -0.00000000000E+00 -0.00000000000E+00 -0.77111386857E+03  0.77111386857E+03  0.00000000000E+00 0.  1.
         23    2    1    2    0    0 -0.70029483384E+02 -0.75009145497E+03  0.12350195500E+03  0.76909499605E+03  0.93343777039E+02 0.  0.
        254    2    1    2    0    0  0.70029483384E+02  0.75009145497E+03  0.32136592040E+03  0.12180006165E+04  0.90150325990E+03 0.  0.
        -24    2    4    4    0    0  0.41752670898E+03  0.51021132684E+03 -0.27416294677E+02  0.66496122964E+03  0.82326380709E+02 0.  0.
         24    2    4    4    0    0 -0.34749722560E+03  0.23988012812E+03  0.34878221508E+03  0.55303938684E+03  0.76855267750E+02 0.  0.
         13    1    3    3    0    0 -0.39218810775E+02 -0.21872544707E+03  0.75442898718E+02  0.23467118972E+03  0.00000000000E+00 0. -1.
        -13    1    3    3    0    0 -0.30810672609E+02 -0.53136600789E+03  0.48059056282E+02  0.53442380634E+03  0.00000000000E+00 0.  1.
          4    1    6    6  502    0 -0.54442375633E+02  0.22629241484E+02  0.20926975543E+02  0.62561914453E+02  0.00000000000E+00 0. -1.
          1    1    5    5  503    0  0.30883595517E+03  0.35895920204E+03  0.15661386608E+02  0.47378965265E+03  0.00000000000E+00 0. -1.
         -2    1    5    5    0  503  0.10869075381E+03  0.15125212481E+03 -0.43077681286E+02  0.19117157699E+03  0.00000000000E+00 0.  1.
         -3    1    6    6    0  502 -0.29305484996E+03  0.21725088664E+03  0.32785523953E+03  0.49047747239E+03  0.00000000000E+00 0.  1.
<mgrwt>
<rscale>  0 0.19366573E+04</rscale>
<asrwt>0</asrwt>
<pdfrwt beam="1">  1        2 0.18707411E+00 0.19366573E+04</pdfrwt>
<pdfrwt beam="2">  1       -2 0.11863290E+00 0.19366573E+04</pdfrwt>
<totfact> 0.94546609E+00</totfact>
</mgrwt>
</event>
<event>
12    1  0.1960998E-007  0.1248734E+04  0.7818608E-02  0.9071237E-01
          2   -1    0    0  501    0  0.00000000000E+00  0.00000000000E+00  0.20207453914E+04  0.20207453914E+04  0.00000000000E+00 0. -1.
         -2   -1    0    0    0  501 -0.00000000000E+00 -0.00000000000E+00 -0.19291611551E+03  0.19291611551E+03  0.00000000000E+00 0.  1.
         23    2    1    2    0    0 -0.23734630959E+03 -0.16828551621E+03  0.66941661134E+03  0.73719148388E+03  0.10334117633E+03 0.  0.
        254    2    1    2    0    0  0.23734630959E+03  0.16828551621E+03  0.11584126645E+04  0.14764700230E+04  0.86798072668E+03 0.  0.
        -24    2    4    4    0    0  0.20147505046E+03  0.39680211847E+03  0.11447605623E+04  0.12307702070E+04  0.79211363529E+02 0.  0.
         24    2    4    4    0    0  0.35871259126E+02 -0.22851660226E+03  0.13652102191E+02  0.24569981604E+03  0.81703335106E+02 0.  0.
         13    1    3    3    0    0 -0.69765913066E+02 -0.24546286857E+02  0.27937781220E+03  0.28900132313E+03  0.00000000000E+00 0. -1.
        -13    1    3    3    0    0 -0.16758039652E+03 -0.14373922935E+03  0.39003879915E+03  0.44819016075E+03  0.00000000000E+00 0.  1.
          4    1    6    6  502    0 -0.50264692033E+01 -0.50102288841E+02 -0.28510342262E+02  0.57864880157E+02  0.00000000000E+00 0. -1.
          3    1    5    5  503    0  0.33023640420E+01  0.38214760587E+02  0.59951706034E+02  0.71172189733E+02  0.00000000000E+00 0. -1.
         -4    1    5    5    0  503  0.19817268642E+03  0.35858735788E+03  0.10848088563E+04  0.11595980172E+04  0.00000000000E+00 0.  1.
         -3    1    6    6    0  502  0.40897728330E+02 -0.17841431342E+03  0.42162444453E+02  0.18783493588E+03  0.00000000000E+00 0.  1.
<mgrwt>
<rscale>  0 0.12487343E+04</rscale>
<asrwt>0</asrwt>
<pdfrwt beam="1">  1        2 0.31088389E+00 0.12487343E+04</pdfrwt>
<pdfrwt beam="2">  1       -2 0.29679404E-01 0.12487343E+04</pdfrwt>
<totfact> 0.67029566E+01</totfact>
</mgrwt>
</event>
<event>
12    1  0.1960998E-007  0.3261008E+04  0.7818608E-02  0.8172888E-01
         -2   -1    0    0    0  501 -0.00000000000E+00  0.00000000000E+00  0.12842951478E+04  0.12842951478E+04  0.00000000000E+00 0. -1.
          2   -1    0    0  501    0  0.00000000000E+00 -0.00000000000E+00 -0.20700402494E+04  0.20700402494E+04  0.00000000000E+00 0.  1.
         23    2    1    2    0    0 -0.35050212408E+03  0.12028809029E+04 -0.12216757813E+04  0.17523290338E+04  0.91603070814E+02 0.  0.
        254    2    1    2    0    0  0.35050212408E+03 -0.12028809029E+04  0.43593067965E+03  0.16020063634E+04  0.89811726693E+03 0.  0.
        -24    2    4    4    0    0 -0.21884622309E+03 -0.64993025896E+02 -0.32450318366E+02  0.24369749851E+03  0.78852297638E+02 0.  0.
         24    2    4    4    0    0  0.56934834717E+03 -0.11378878770E+04  0.46838099802E+03  0.13583088649E+04  0.81705886498E+02 0.  0.
         13    1    3    3    0    0 -0.94549738355E+02  0.20593238788E+03 -0.20430936561E+03  0.30510673260E+03  0.00000000000E+00 0. -1.
        -13    1    3    3    0    0 -0.25595238572E+03  0.99694851506E+03 -0.10173664157E+04  0.14472223012E+04  0.00000000000E+00 0.  1.
          2    1    6    6  502    0  0.71623990135E+02 -0.18137950887E+03  0.97705839905E+02  0.21811683418E+03  0.00000000000E+00 0. -1.
          3    1    5    5  503    0 -0.13561206275E+03 -0.12510930020E+02 -0.47334605431E+02  0.14417947082E+03  0.00000000000E+00 0. -1.
         -4    1    5    5    0  503 -0.83234160341E+02 -0.52482095876E+02  0.14884287066E+02  0.99518027697E+02  0.00000000000E+00 0.  1.
         -1    1    6    6    0  502  0.49772435704E+03 -0.95650836818E+03  0.37067515811E+03  0.11401920307E+04  0.00000000000E+00 0.  1.
<mgrwt>
<rscale>  0 0.32610076E+04</rscale>
<asrwt>0</asrwt>
<pdfrwt beam="1">  1        2 0.31846773E+00 0.32610076E+04</pdfrwt>
<pdfrwt beam="2">  1       -2 0.19758387E+00 0.32610076E+04</pdfrwt>
<totfact> 0.70596865E-01</totfact>
</mgrwt>
</event>
<event>
12    1  0.1960998E-007  0.1548465E+04  0.7818608E-02  0.8852849E-01
         -2   -1    0    0    0  501 -0.00000000000E+00  0.00000000000E+00  0.26354270851E+03  0.26354270851E+03  0.00000000000E+00 0. -1.
          2   -1    0    0  501    0  0.00000000000E+00 -0.00000000000E+00 -0.22745292180E+04  0.22745292180E+04  0.00000000000E+00 0.  1.
         23    2    1    2    0    0 -0.38609500103E+03 -0.60629829282E+02 -0.13635065226E+03  0.42431593578E+03  0.93312308769E+02 0.  0.
        254    2    1    2    0    0  0.38609500103E+03  0.60629829282E+02 -0.18746358572E+04  0.21137559907E+04  0.89496338756E+03 0.  0.
        -24    2    4    4    0    0 -0.28107994688E+03  0.85176525643E+02 -0.60420218581E+03  0.67640305873E+03  0.78739059389E+02 0.  0.
         24    2    4    4    0    0  0.66717494791E+03 -0.24546696360E+02 -0.12704336714E+04  0.14373529320E+04  0.79099849441E+02 0.  0.
         13    1    3    3    0    0 -0.30164926017E+03 -0.63662289876E+02 -0.14241470055E+03  0.33959845442E+03  0.00000000000E+00 0. -1.
        -13    1    3    3    0    0 -0.84445740861E+02  0.30324605931E+01  0.60640482851E+01  0.84717481362E+02  0.00000000000E+00 0.  1.
          2    1    6    6  502    0  0.61114210746E+03 -0.17826140569E+00 -0.11497724593E+04  0.13021026901E+04  0.00000000000E+00 0. -1.
          1    1    5    5  503    0 -0.27983710731E+03  0.71292504145E+02 -0.58759701399E+03  0.65472259669E+03  0.00000000000E+00 0. -1.
         -2    1    5    5    0  503 -0.12428395699E+01  0.13884021498E+02 -0.16605171818E+02  0.21680462040E+02  0.00000000000E+00 0.  1.
         -1    1    6    6    0  502  0.56032840455E+02 -0.24368434955E+02 -0.12066121209E+03  0.13525024191E+03  0.00000000000E+00 0.  1.
<mgrwt>
<rscale>  0 0.15484645E+04</rscale>
<asrwt>0</asrwt>
<pdfrwt beam="1">  1        2 0.34992759E+00 0.15484645E+04</pdfrwt>
<pdfrwt beam="2">  1       -2 0.40545030E-01 0.15484645E+04</pdfrwt>
<totfact> 0.26017728E+01</totfact>
</mgrwt>
</event>
<event>
12    1  0.1960998E-007  0.2866082E+04  0.7818608E-02  0.8283041E-01
          2   -1    0    0  501    0  0.00000000000E+00  0.00000000000E+00  0.23281242597E+04  0.23281242597E+04  0.00000000000E+00 0. -1.
         -2   -1    0    0    0  501 -0.00000000000E+00 -0.00000000000E+00 -0.88208629554E+03  0.88208629554E+03  0.00000000000E+00 0.  1.
         23    2    1    2    0    0  0.10188666923E+04  0.21083844340E+03 -0.20088903375E+03  0.10641869445E+04  0.97955413534E+02 0.  0.
        254    2    1    2    0    0 -0.10188666923E+04 -0.21083844340E+03  0.16469269979E+04  0.21460236108E+04  0.90028140912E+03 0.  0.
        -24    2    4    4    0    0 -0.26209853240E+03  0.21055501909E+03  0.81222375839E+02  0.35493556876E+03  0.79706504662E+02 0.  0.
         24    2    4    4    0    0 -0.75676815990E+03 -0.42139346249E+03  0.15657046221E+04  0.17910880420E+04  0.79340484971E+02 0.  0.
         11    1    3    3    0    0  0.23666608391E+03  0.69145753388E+02 -0.85289076552E+02  0.26089499241E+03  0.00000000000E+00 0. -1.
        -11    1    3    3    0    0  0.78220060839E+03  0.14169269001E+03 -0.11559995720E+03  0.80329195207E+03  0.00000000000E+00 0.  1.
          4    1    6    6  502    0 -0.60592270819E+03 -0.36740355575E+03  0.12428485285E+04  0.14306642394E+04  0.00000000000E+00 0. -1.
          3    1    5    5  503    0 -0.21632496249E+03  0.20674297499E+03  0.75817461531E+02  0.30868662844E+03  0.00000000000E+00 0. -1.
         -4    1    5    5    0  503 -0.45773569905E+02  0.38120441003E+01  0.54049143086E+01  0.46248940321E+02  0.00000000000E+00 0.  1.
         -3    1    6    6    0  502 -0.15084545171E+03 -0.53989906742E+02  0.32285609358E+03  0.36042380262E+03  0.00000000000E+00 0.  1.
<mgrwt>
<rscale>  0 0.28660820E+04</rscale>
<asrwt>0</asrwt>
<pdfrwt beam="1">  1        2 0.35817296E+00 0.28660820E+04</pdfrwt>
<pdfrwt beam="2">  1       -2 0.13570559E+00 0.28660820E+04</pdfrwt>
<totfact> 0.14720486E+00</totfact>
</mgrwt>
</event>
<event>
12    1  0.1960998E-007  0.1338113E+04  0.7818608E-02  0.8999875E-01
          2   -1    0    0  501    0  0.00000000000E+00  0.00000000000E+00  0.25466462633E+04  0.25466462633E+04  0.00000000000E+00 0. -1.
         -2   -1    0    0    0  501 -0.00000000000E+00 -0.00000000000E+00 -0.17577497999E+03  0.17577497999E+03  0.00000000000E+00 0.  1.
         23    2    1    2    0    0 -0.21088192152E+03 -0.27345571425E+03  0.83234025911E+03  0.90697628794E+03  0.10279332401E+03 0.  0.
        254    2    1    2    0    0  0.21088192152E+03  0.27345571425E+03  0.15385310242E+04  0.18154449554E+04  0.89972965998E+03 0.  0.
        -24    2    4    4    0    0  0.17198413479E+03 -0.19320136926E+03  0.81889372606E+02  0.28323672731E+03  0.81313360800E+02 0.  0.
         24    2    4    4    0    0  0.38897786724E+02  0.46665708352E+03  0.14566416516E+04  0.15322082281E+04  0.81088109801E+02 0.  0.
         13    1    3    3    0    0  0.51882079310E+00 -0.53077374066E+02  0.15890788467E+03  0.16753863024E+03  0.00000000000E+00 0. -1.
        -13    1    3    3    0    0 -0.21140074231E+03 -0.22037834019E+03  0.67343237444E+03  0.73943765770E+03  0.00000000000E+00 0.  1.
          2    1    6    6  502    0  0.59109664813E+02  0.39928356260E+03  0.11978517164E+04  0.12640292917E+04  0.00000000000E+00 0. -1.
          3    1    5    5  503    0  0.13884699902E+03 -0.18567881836E+03  0.51174175978E+02  0.23743190394E+03  0.00000000000E+00 0. -1.
         -4    1    5    5    0  503  0.33137135775E+02 -0.75225509046E+01  0.30715196629E+02  0.45804823364E+02  0.00000000000E+00 0.  1.
         -1    1    6    6    0  502 -0.20211878089E+02  0.67373520919E+02  0.25878993528E+03  0.26817893642E+03  0.00000000000E+00 0.  1.
<mgrwt>
<rscale>  0 0.13381131E+04</rscale>
<asrwt>0</asrwt>
<pdfrwt beam="1">  1        2 0.39179171E+00 0.13381131E+04</pdfrwt>
<pdfrwt beam="2">  1       -2 0.27042306E-01 0.13381131E+04</pdfrwt>
<totfact> 0.39926486E+01</totfact>
</mgrwt>
</event>
<event>
12    1  0.1960998E-007  0.2920075E+04  0.7818608E-02  0.8266929E-01
         -1   -1    0    0    0  501 -0.00000000000E+00  0.00000000000E+00  0.62047007792E+03  0.62047007792E+03  0.00000000000E+00 0.  1.
          1   -1    0    0  501    0  0.00000000000E+00 -0.00000000000E+00 -0.34356370419E+04  0.34356370419E+04  0.00000000000E+00 0. -1.
         23    2    1    2    0    0 -0.44601636947E+03 -0.10235395250E+04 -0.22516332096E+04  0.25149355084E+04  0.92112646492E+02 0.  0.
        254    2    1    2    0    0  0.44601636947E+03  0.10235395250E+04 -0.56353375438E+03  0.15411716115E+04  0.90059751427E+03 0.  0.
        -24    2    4    4    0    0 -0.13799466271E+02  0.89619744670E+03 -0.55641810764E+03  0.10581379316E+04  0.81819820557E+02 0.  0.
         24    2    4    4    0    0  0.45981583574E+03  0.12734207826E+03 -0.71156467456E+01  0.48303367988E+03  0.74995305040E+02 0.  0.
         11    1    3    3    0    0 -0.10933420663E+03 -0.35972628895E+03 -0.75401821161E+03  0.84255589437E+03  0.00000000000E+00 0. -1.
        -11    1    3    3    0    0 -0.33668216284E+03 -0.66381323601E+03 -0.14976149980E+04  0.16723796140E+04  0.00000000000E+00 0.  1.
          4    1    6    6  502    0  0.10799228081E+03  0.43389854202E+02  0.27781366081E+02  0.11965289993E+03  0.00000000000E+00 0. -1.
          1    1    5    5  503    0 -0.23727916894E+02  0.22367302131E+03 -0.17443246752E+03  0.28463892957E+03  0.00000000000E+00 0. -1.
         -2    1    5    5    0  503  0.99284506233E+01  0.67252442539E+03 -0.38198564012E+03  0.77349900203E+03  0.00000000000E+00 0.  1.
         -3    1    6    6    0  502  0.35182355493E+03  0.83952224059E+02 -0.34897012826E+02  0.36338077995E+03  0.00000000000E+00 0.  1.
<mgrwt>
<rscale>  0 0.29200753E+04</rscale>
<asrwt>0</asrwt>
<pdfrwt beam="1">  1        1 0.52855955E+00 0.29200753E+04</pdfrwt>
<pdfrwt beam="2">  1       -1 0.95456934E-01 0.29200753E+04</pdfrwt>
<totfact> 0.25460800E-01</totfact>
</mgrwt>
</event>
<event>
12    1  0.1960998E-007  0.3105679E+04  0.7818608E-02  0.8214181E-01
         -2   -1    0    0    0  501 -0.00000000000E+00  0.00000000000E+00  0.18789380573E+04  0.18789380573E+04  0.00000000000E+00 0.  1.
          2   -1    0    0  501    0  0.00000000000E+00 -0.00000000000E+00 -0.12833366732E+04  0.12833366732E+04  0.00000000000E+00 0. -1.
         23    2    1    2    0    0 -0.11746657147E+04  0.75507888493E+03  0.53962402754E+03  0.14997465106E+04  0.89787756928E+02 0.  0.
        254    2    1    2    0    0  0.11746657147E+04 -0.75507888493E+03  0.55977356565E+02  0.16625282200E+04  0.90049039643E+03 0.  0.
        -24    2    4    4    0    0 -0.85869444952E+02 -0.66600466047E+02  0.17266545482E+03  0.21932642790E+03  0.80508006030E+02 0.  0.
         24    2    4    4    0    0  0.12605351596E+04 -0.68847841888E+03 -0.11668809825E+03  0.14432017921E+04  0.79144667837E+02 0.  0.
         13    1    3    3    0    0 -0.49426358923E+03  0.36709957814E+03  0.25481343722E+03  0.66632460835E+03  0.00000000000E+00 0.  1.
        -13    1    3    3    0    0 -0.68040212543E+03  0.38797930679E+03  0.28481059032E+03  0.83342190225E+03  0.00000000000E+00 0. -1.
          2    1    6    6  502    0  0.10234893280E+04 -0.53985168580E+03 -0.12043985607E+03  0.11633898771E+04  0.00000000000E+00 0. -1.
          3    1    5    5  503    0 -0.59006635034E+02 -0.84369589304E+02  0.13466059016E+03  0.16950954286E+03  0.00000000000E+00 0. -1.
         -4    1    5    5    0  503 -0.26862809918E+02  0.17769123257E+02  0.38004864661E+02  0.49816885048E+02  0.00000000000E+00 0.  1.
         -1    1    6    6    0  502  0.23704583164E+03 -0.14862673308E+03  0.37517578206E+01  0.27981191499E+03  0.00000000000E+00 0.  1.
<mgrwt>
<rscale>  0 0.31056787E+04</rscale>
<asrwt>0</asrwt>
<pdfrwt beam="1">  1        2 0.19743641E+00 0.31056787E+04</pdfrwt>
<pdfrwt beam="2">  1       -2 0.28906739E+00 0.31056787E+04</pdfrwt>
<totfact> 0.53186570E-01</totfact>
</mgrwt>
</event>
<event>
12    1  0.1960998E-007  0.1339243E+04  0.7818608E-02  0.8999011E-01
         -1   -1    0    0    0  501 -0.00000000000E+00  0.00000000000E+00  0.81460696038E+03  0.81460696038E+03  0.00000000000E+00 0.  1.
          1   -1    0    0  501    0  0.00000000000E+00 -0.00000000000E+00 -0.55044073221E+03  0.55044073221E+03  0.00000000000E+00 0. -1.
         23    2    1    2    0    0  0.20670299087E+03 -0.18503090324E+03  0.30546027893E+03  0.42232677359E+03  0.89951987740E+02 0.  0.
        254    2    1    2    0    0 -0.20670299087E+03  0.18503090324E+03 -0.41294050760E+02  0.94272091900E+03  0.90003053887E+03 0.  0.
        -24    2    4    4    0    0 -0.45147238452E+03  0.10667536834E+03 -0.31009330444E+03  0.56271579437E+03  0.72692912886E+02 0.  0.
         24    2    4    4    0    0  0.24476939365E+03  0.78355534898E+02  0.26879925368E+03  0.38000512463E+03  0.78097439458E+02 0.  0.
         13    1    3    3    0    0  0.15572660999E+03 -0.14985775862E+03  0.28378494730E+03  0.35670999593E+03  0.00000000000E+00 0.  1.
        -13    1    3    3    0    0  0.50976380878E+02 -0.35173144621E+02  0.21675331629E+02  0.65616777665E+02  0.00000000000E+00 0. -1.
          4    1    6    6  502    0  0.11824769306E+03  0.78408800106E+01  0.15870503344E+03  0.19806888689E+03  0.00000000000E+00 0. -1.
          1    1    5    5  503    0 -0.33474263499E+03  0.62433282087E+02 -0.25904332290E+03  0.42784809165E+03  0.00000000000E+00 0. -1.
         -2    1    5    5    0  503 -0.11672974953E+03  0.44242086255E+02 -0.51049981535E+02  0.13486770272E+03  0.00000000000E+00 0.  1.
         -3    1    6    6    0  502  0.12652170059E+03  0.70514654888E+02  0.11009422024E+03  0.18193623774E+03  0.00000000000E+00 0.  1.
<mgrwt>
<rscale>  0 0.13392428E+04</rscale>
<asrwt>0</asrwt>
<pdfrwt beam="1">  1        1 0.84683190E-01 0.13392428E+04</pdfrwt>
<pdfrwt beam="2">  1       -1 0.12532415E+00 0.13392428E+04</pdfrwt>
<totfact> 0.21112415E+01</totfact>
</mgrwt>
</event>
<event>
12    1  0.1960998E-007  0.3310733E+04  0.7818608E-02  0.8160170E-01
         -2   -1    0    0    0  501 -0.00000000000E+00  0.00000000000E+00  0.16127964788E+04  0.16127964788E+04  0.00000000000E+00 0.  1.
          2   -1    0    0  501    0  0.00000000000E+00 -0.00000000000E+00 -0.16990600566E+04  0.16990600566E+04  0.00000000000E+00 0. -1.
         23    2    1    2    0    0 -0.12182435120E+04 -0.54957123941E+03  0.70940207354E+03  0.15156325703E+04  0.88005592908E+02 0.  0.
        254    2    1    2    0    0  0.12182435120E+04  0.54957123941E+03 -0.79566565132E+03  0.17962239651E+04  0.89843803486E+03 0.  0.
        -24    2    4    4    0    0  0.43465824908E+02  0.38008731309E+03 -0.35338339718E+03  0.52704839020E+03  0.80898310883E+02 0.  0.
         24    2    4    4    0    0  0.11747776871E+04  0.16948392633E+03 -0.44228225413E+03  0.12691755749E+04  0.79784912693E+02 0.  0.
         11    1    3    3    0    0 -0.89447620476E+03 -0.36821846500E+03  0.53819292925E+03  0.11069436065E+04  0.00000000000E+00 0.  1.
        -11    1    3    3    0    0 -0.32376730724E+03 -0.18135277441E+03  0.17120914429E+03  0.40868896377E+03  0.00000000000E+00 0. -1.
          2    1    6    6  502    0  0.10019251758E+04  0.17286701143E+03 -0.37675471179E+03  0.10842883263E+04  0.00000000000E+00 0. -1.
          1    1    5    5  503    0  0.65203345160E+02  0.26756231564E+03 -0.26655050160E+03  0.38326262390E+03  0.00000000000E+00 0. -1.
         -2    1    5    5    0  503 -0.21737520252E+02  0.11252499744E+03 -0.86832895579E+02  0.14378576630E+03  0.00000000000E+00 0.  1.
         -1    1    6    6    0  502  0.17285251125E+03 -0.33830851031E+01 -0.65527542341E+02  0.18488724865E+03  0.00000000000E+00 0.  1.
<mgrwt>
<rscale>  0 0.33107329E+04</rscale>
<asrwt>0</asrwt>
<pdfrwt beam="1">  1        2 0.26139385E+00 0.33107329E+04</pdfrwt>
<pdfrwt beam="2">  1       -2 0.24812254E+00 0.33107329E+04</pdfrwt>
<totfact> 0.54076364E-01</totfact>
</mgrwt>
</event>
<event>
12    1  0.2595114E-007  0.3073993E+04  0.7818608E-02  0.8222912E-01
         -1   -1    0    0    0  501 -0.00000000000E+00  0.00000000000E+00  0.13694381150E+04  0.13694381150E+04  0.00000000000E+00 0.  1.
          1   -1    0    0  501    0  0.00000000000E+00 -0.00000000000E+00 -0.17250570718E+04  0.17250570718E+04  0.00000000000E+00 0. -1.
         23    2    1    2    0    0  0.85824555582E+02  0.13049993049E+04  0.34082272207E+03  0.13542376237E+04  0.86083525244E+02 0.  0.
        254    2    1    2    0    0 -0.85824555582E+02 -0.13049993049E+04 -0.69644167880E+03  0.17402575631E+04  0.91273015395E+03 0.  0.
        -24    2    4    4    0    0 -0.99095880689E+02  0.95663570780E+02  0.26413849178E+02  0.16193765487E+03  0.80960486001E+02 0.  0.
         24    2    4    4    0    0  0.13271325108E+02 -0.14006628757E+04 -0.72285552797E+03  0.15783199083E+04  0.80876443323E+02 0.  0.
         11    1    3    3    0    0  0.72130908948E+02  0.49562350199E+03  0.14464922958E+03  0.52131461074E+03  0.00000000000E+00 0.  1.
        -11    1    3    3    0    0  0.13693646633E+02  0.80937580291E+03  0.19617349249E+03  0.83292301292E+03  0.00000000000E+00 0. -1.
          2    1    6    6  502    0 -0.12343000811E+02 -0.94197134505E+02 -0.66968510231E+02  0.11623352004E+03  0.00000000000E+00 0. -1.
          3    1    5    5  503    0  0.14123838488E+02  0.13963095907E+02  0.10637833273E+00  0.19861071907E+02  0.00000000000E+00 0. -1.
         -4    1    5    5    0  503 -0.11321971918E+03  0.81700474873E+02  0.26307470846E+02  0.14207658297E+03  0.00000000000E+00 0.  1.
         -1    1    6    6    0  502  0.25614325918E+02 -0.13064657412E+04 -0.65588701774E+03  0.14620863882E+04  0.00000000000E+00 0.  1.
<mgrwt>
<rscale>  0 0.30739934E+04</rscale>
<asrwt>0</asrwt>
<pdfrwt beam="1">  1        1 0.26539339E+00 0.30739934E+04</pdfrwt>
<pdfrwt beam="2">  1       -1 0.21068279E+00 0.30739934E+04</pdfrwt>
<totfact> 0.49290656E-01</totfact>
</mgrwt>
</event>
<event>
12    1  0.1960998E-007  0.1746530E+04  0.7818608E-02  0.8735262E-01
          2   -1    0    0  501    0  0.00000000000E+00  0.00000000000E+00  0.11758419168E+04  0.11758419168E+04  0.00000000000E+00 0. -1.
         -2   -1    0    0    0  501 -0.00000000000E+00 -0.00000000000E+00 -0.64854990584E+03  0.64854990584E+03  0.00000000000E+00 0.  1.
         23    2    1    2    0    0 -0.58862451807E+03  0.28702918524E+02 -0.60599648420E+02  0.59947860081E+03  0.91649302437E+02 0.  0.
        254    2    1    2    0    0  0.58862451807E+03 -0.28702918524E+02  0.58789165938E+03  0.12249132218E+04  0.89860620801E+03 0.  0.
        -24    2    4    4    0    0  0.50417487749E+03 -0.38263776927E+02  0.81912688596E+03  0.96622566057E+03  0.83467048240E+02 0.  0.
         24    2    4    4    0    0  0.84449640579E+02  0.95608584030E+01 -0.23123522658E+03  0.25868756126E+03  0.78907366799E+02 0.  0.
         11    1    3    3    0    0 -0.16073399167E+03  0.48163010908E+02 -0.88056223755E+01  0.16802568459E+03  0.00000000000E+00 0.  1.
        -11    1    3    3    0    0 -0.42789052640E+03 -0.19460092384E+02 -0.51794026045E+02  0.43145291622E+03  0.00000000000E+00 0. -1.
          4    1    6    6  502    0  0.61888010971E+02  0.21819865452E+02 -0.72090520485E+02  0.97484745340E+02  0.00000000000E+00 0. -1.
          3    1    5    5  503    0  0.22887115843E+03 -0.58338023167E+02  0.36287539841E+03  0.43297100004E+03  0.00000000000E+00 0. -1.
         -4    1    5    5    0  503  0.27530371906E+03  0.20074246240E+02  0.45625148755E+03  0.53325466053E+03  0.00000000000E+00 0.  1.
         -3    1    6    6    0  502  0.22561629608E+02 -0.12259007049E+02 -0.15914470609E+03  0.16120281592E+03  0.00000000000E+00 0.  1.
<mgrwt>
<rscale>  0 0.17465305E+04</rscale>
<asrwt>0</asrwt>
<pdfrwt beam="1">  1        2 0.18089876E+00 0.17465305E+04</pdfrwt>
<pdfrwt beam="2">  1       -2 0.99776909E-01 0.17465305E+04</pdfrwt>
<totfact> 0.15421154E+01</totfact>
</mgrwt>
</event>
<event>
12    1  0.1960998E-007  0.1224772E+04  0.7818608E-02  0.9091446E-01
          2   -1    0    0  501    0  0.00000000000E+00  0.00000000000E+00  0.11904191137E+04  0.11904191137E+04  0.00000000000E+00 0. -1.
         -2   -1    0    0    0  501 -0.00000000000E+00 -0.00000000000E+00 -0.31502882079E+03  0.31502882079E+03  0.00000000000E+00 0.  1.
         23    2    1    2    0    0  0.94978127097E+02  0.24639635817E+03  0.14615083757E+03  0.31742739106E+03  0.98326351151E+02 0.  0.
        254    2    1    2    0    0 -0.94978127097E+02 -0.24639635817E+03  0.72923945534E+03  0.11880205434E+04  0.89992811847E+03 0.  0.
        -24    2    4    4    0    0 -0.41708771665E+03  0.12285139394E+03  0.34297311053E+03  0.55900556324E+03  0.76171102239E+02 0.  0.
         24    2    4    4    0    0  0.32210958955E+03 -0.36924775211E+03  0.38626634481E+03  0.62901498017E+03  0.79747514260E+02 0.  0.
         13    1    3    3    0    0  0.53082626672E+02  0.11081695284E+03  0.12260851031E+03  0.17358285945E+03  0.00000000000E+00 0. -1.
        -13    1    3    3    0    0  0.41895500425E+02  0.13557940532E+03  0.23542327252E+02  0.14384453162E+03  0.00000000000E+00 0.  1.
          2    1    6    6  502    0  0.30138979742E+03 -0.36399836888E+03  0.35465694091E+03  0.59085714709E+03  0.00000000000E+00 0. -1.
          1    1    5    5  503    0 -0.35988645974E+03  0.13162391705E+03  0.29020083387E+03  0.48068663745E+03  0.00000000000E+00 0. -1.
         -2    1    5    5    0  503 -0.57201256908E+02 -0.87725231051E+01  0.52772276659E+02  0.78318925792E+02  0.00000000000E+00 0.  1.
         -3    1    6    6    0  502  0.20719792134E+02 -0.52493832246E+01  0.31609403898E+02  0.38157833077E+02  0.00000000000E+00 0.  1.
<mgrwt>
<rscale>  0 0.12247715E+04</rscale>
<asrwt>0</asrwt>
<pdfrwt beam="1">  1        2 0.18314140E+00 0.12247715E+04</pdfrwt>
<pdfrwt beam="2">  1       -2 0.48465973E-01 0.12247715E+04</pdfrwt>
<totfact> 0.76217264E+01</totfact>
</mgrwt>
</event>
<event>
12    1  0.1960998E-007  0.1351289E+04  0.7818608E-02  0.8989853E-01
         -2   -1    0    0    0  501 -0.00000000000E+00  0.00000000000E+00  0.32100684141E+03  0.32100684141E+03  0.00000000000E+00 0.  1.
          2   -1    0    0  501    0  0.00000000000E+00 -0.00000000000E+00 -0.14220744745E+04  0.14220744745E+04  0.00000000000E+00 0. -1.
         23    2    1    2    0    0  0.29699071789E+03 -0.98705446558E+01 -0.56515527556E+03  0.64631716736E+03  0.10012233096E+03 0.  0.
        254    2    1    2    0    0 -0.29699071789E+03  0.98705446558E+01 -0.53591235757E+03  0.10967641486E+04  0.90960905254E+03 0.  0.
        -24    2    4    4    0    0  0.86194766762E+02  0.24804771543E+03 -0.57457179850E+03  0.63708079747E+03  0.82352801594E+02 0.  0.
         24    2    4    4    0    0 -0.38318548466E+03 -0.23817717077E+03  0.38659440931E+02  0.45968335111E+03  0.79086981164E+02 0.  0.
         11    1    3    3    0    0  0.16221673746E+03 -0.94339374957E+01 -0.40869810344E+03  0.43981519852E+03  0.00000000000E+00 0. -1.
        -11    1    3    3    0    0  0.13477398043E+03 -0.43660716009E+00 -0.15645717212E+03  0.20650196884E+03  0.00000000000E+00 0.  1.
          4    1    6    6  502    0 -0.34591708652E+03 -0.23630579456E+03  0.46670589318E+02  0.42151773770E+03  0.00000000000E+00 0. -1.
          3    1    5    5  503    0 -0.37415887558E+01  0.61716245206E+02 -0.81030036718E+02  0.10192527292E+03  0.00000000000E+00 0. -1.
         -4    1    5    5    0  503  0.89936355517E+02  0.18633147022E+03 -0.49354176178E+03  0.53515552456E+03  0.00000000000E+00 0.  1.
         -3    1    6    6    0  502 -0.37268398136E+02 -0.18713762089E+01 -0.80111483874E+01  0.38165613411E+02  0.00000000000E+00 0.  1.
<mgrwt>
<rscale>  0 0.13512892E+04</rscale>
<asrwt>0</asrwt>
<pdfrwt beam="1">  1        2 0.21878069E+00 0.13512892E+04</pdfrwt>
<pdfrwt beam="2">  1       -2 0.49385668E-01 0.13512892E+04</pdfrwt>
<totfact> 0.53264233E+01</totfact>
</mgrwt>
</event>
<event>
12    1  0.1960998E-007  0.1055849E+04  0.7818608E-02  0.9249326E-01
          1   -1    0    0  501    0  0.00000000000E+00  0.00000000000E+00  0.84188486231E+03  0.84188486231E+03  0.00000000000E+00 0. -1.
         -1   -1    0    0    0  501 -0.00000000000E+00 -0.00000000000E+00 -0.33104774500E+03  0.33104774500E+03  0.00000000000E+00 0.  1.
         23    2    1    2    0    0  0.92285992473E+02  0.53544891185E+02  0.96907375418E+02  0.17158857160E+03  0.93101228315E+02 0.  0.
        254    2    1    2    0    0 -0.92285992473E+02 -0.53544891185E+02  0.41392974189E+03  0.10013440357E+04  0.90552100299E+03 0.  0.
        -24    2    4    4    0    0 -0.13836556998E+03 -0.39579546795E+03  0.47898770923E+03  0.64163930316E+03  0.80453007151E+02 0.  0.
         24    2    4    4    0    0  0.46079577503E+02  0.34225057677E+03 -0.65057967338E+02  0.35970473255E+03  0.76786527107E+02 0.  0.
         13    1    3    3    0    0  0.74022274669E+02  0.63102997859E+02  0.30322565047E+02  0.10188593346E+03  0.00000000000E+00 0.  1.
        -13    1    3    3    0    0  0.18263717804E+02 -0.95581066738E+01  0.66584810371E+02  0.69702638138E+02  0.00000000000E+00 0. -1.
          4    1    6    6  502    0  0.46965261248E+02  0.11927612749E+03 -0.28811545205E+01  0.12822180549E+03  0.00000000000E+00 0. -1.
          3    1    5    5  503    0 -0.84486322473E+02 -0.19811408993E+03  0.18883825675E+03  0.28643850741E+03  0.00000000000E+00 0. -1.
         -4    1    5    5    0  503 -0.53879247504E+02 -0.19768137802E+03  0.29014945248E+03  0.35520079575E+03  0.00000000000E+00 0.  1.
         -3    1    6    6    0  502 -0.88568374436E+00  0.22297444928E+03 -0.62176812818E+02  0.23148292706E+03  0.00000000000E+00 0.  1.
<mgrwt>
<rscale>  0 0.10558486E+04</rscale>
<asrwt>0</asrwt>
<pdfrwt beam="1">  1        1 0.12952075E+00 0.10558486E+04</pdfrwt>
<pdfrwt beam="2">  1       -1 0.50930423E-01 0.10558486E+04</pdfrwt>
<totfact> 0.78764558E+01</totfact>
</mgrwt>
</event>
<event>
12    1  0.1960998E-007  0.2571912E+04  0.7818608E-02  0.8377805E-01
         -2   -1    0    0    0  501 -0.00000000000E+00  0.00000000000E+00  0.12496930662E+04  0.12496930662E+04  0.00000000000E+00 0. -1.
          2   -1    0    0  501    0  0.00000000000E+00 -0.00000000000E+00 -0.13232706874E+04  0.13232706874E+04  0.00000000000E+00 0.  1.
         23    2    1    2    0    0 -0.97628320979E+03  0.55186616584E+03 -0.13729892640E+03  0.11335962908E+04  0.92219220727E+02 0.  0.
        254    2    1    2    0    0  0.97628320979E+03 -0.55186616584E+03  0.63721305290E+02  0.14393674628E+04  0.90001839838E+03 0.  0.
        -24    2    4    4    0    0  0.72934691039E+03 -0.77537271513E+03 -0.74410635313E+02  0.10700477115E+04  0.79469486295E+02 0.  0.
         24    2    4    4    0    0  0.24693629939E+03  0.22350654930E+03  0.13813194060E+03  0.36931975123E+03  0.79899512489E+02 0.  0.
         11    1    3    3    0    0 -0.21289776655E+03  0.12872697318E+03  0.72444358922E+01  0.24889470560E+03  0.00000000000E+00 0. -1.
        -11    1    3    3    0    0 -0.76338544324E+03  0.42313919266E+03 -0.14454336229E+03  0.88470158522E+03  0.00000000000E+00 0.  1.
          4    1    6    6  502    0  0.43876072388E+02  0.51229564168E+01  0.14343321746E+02  0.46444432275E+02  0.00000000000E+00 0. -1.
          3    1    5    5  503    0  0.39074500521E+01  0.10252345303E+01 -0.30905490744E+01  0.50863312252E+01  0.00000000000E+00 0. -1.
         -4    1    5    5    0  503  0.72543946034E+03 -0.77639794966E+03 -0.71320086239E+02  0.10649613803E+04  0.00000000000E+00 0.  1.
         -3    1    6    6    0  502  0.20306022700E+03  0.21838359288E+03  0.12378861886E+03  0.32287531895E+03  0.00000000000E+00 0.  1.
<mgrwt>
<rscale>  0 0.25719115E+04</rscale>
<asrwt>0</asrwt>
<pdfrwt beam="1">  1        2 0.20358010E+00 0.25719115E+04</pdfrwt>
<pdfrwt beam="2">  1       -2 0.19226047E+00 0.25719115E+04</pdfrwt>
<totfact> 0.21266876E+00</totfact>
</mgrwt>
</event>
<event>
12    1  0.1960998E-007  0.1229625E+04  0.7818608E-02  0.9087314E-01
         -3   -1    0    0    0  501 -0.00000000000E+00  0.00000000000E+00  0.62491419841E+03  0.62491419841E+03  0.00000000000E+00 0.  1.
          3   -1    0    0  501    0  0.00000000000E+00 -0.00000000000E+00 -0.60487383311E+03  0.60487383311E+03  0.00000000000E+00 0. -1.
         23    2    1    2    0    0  0.21790184344E+03  0.16191776006E+03  0.43940453109E+02  0.28938908956E+03  0.90092770757E+02 0.  0.
        254    2    1    2    0    0 -0.21790184344E+03 -0.16191776006E+03 -0.23900087811E+02  0.94039894196E+03  0.90004465525E+03 0.  0.
        -24    2    4    4    0    0  0.13815933839E+03 -0.41993238322E+03 -0.15452577499E+03  0.47490610608E+03  0.78907447027E+02 0.  0.
         24    2    4    4    0    0 -0.35606118183E+03  0.25801462316E+03  0.13062568718E+03  0.46549283587E+03  0.79179537320E+02 0.  0.
         13    1    3    3    0    0  0.12061107728E+03  0.50640063345E+02 -0.11969022024E+02  0.13135716755E+03  0.00000000000E+00 0.  1.
        -13    1    3    3    0    0  0.97290766156E+02  0.11127769672E+03  0.55909475133E+02  0.15803192201E+03  0.00000000000E+00 0. -1.
          4    1    6    6  502    0 -0.17537142012E+02  0.15782716690E+02 -0.10682286268E+02  0.25898971717E+02  0.00000000000E+00 0. -1.
          3    1    5    5  503    0  0.49735366364E+02 -0.26333722777E+03 -0.75135082422E+02  0.27832603688E+03  0.00000000000E+00 0. -1.
         -4    1    5    5    0  503  0.88423972029E+02 -0.15659515545E+03 -0.79390692569E+02  0.19658006920E+03  0.00000000000E+00 0.  1.
         -3    1    6    6    0  502 -0.33852403982E+03  0.24223190647E+03  0.14130797345E+03  0.43959386416E+03  0.00000000000E+00 0.  1.
<mgrwt>
<rscale>  0 0.12296247E+04</rscale>
<asrwt>0</asrwt>
<pdfrwt beam="1">  1        3 0.93057513E-01 0.12296247E+04</pdfrwt>
<pdfrwt beam="2">  1       -3 0.96140646E-01 0.12296247E+04</pdfrwt>
<totfact> 0.25553259E+00</totfact>
</mgrwt>
</event>
<event>
12    1  0.1960998E-007  0.2461524E+04  0.7818608E-02  0.8416822E-01
          4   -1    0    0  501    0  0.00000000000E+00  0.00000000000E+00  0.95345808472E+03  0.95345808472E+03  0.00000000000E+00 0.  1.
         -4   -1    0    0    0  501 -0.00000000000E+00 -0.00000000000E+00 -0.15887170167E+04  0.15887170167E+04  0.00000000000E+00 0. -1.
         23    2    1    2    0    0 -0.40500309224E+03  0.94672644475E+03 -0.55461804044E+03  0.11731466708E+04  0.91397344720E+02 0.  0.
        254    2    1    2    0    0  0.40500309224E+03 -0.94672644475E+03 -0.80640891563E+02  0.13690284306E+04  0.89856409034E+03 0.  0.
        -24    2    4    4    0    0 -0.24174496289E+03 -0.23905363510E+03 -0.19553947533E+03  0.40018737423E+03  0.79542319179E+02 0.  0.
         24    2    4    4    0    0  0.64674805514E+03 -0.70767280965E+03  0.11489858377E+03  0.96884105636E+03  0.79796338215E+02 0.  0.
         11    1    3    3    0    0 -0.37749113644E+03  0.80856839361E+03 -0.49190783459E+03  0.10189483417E+04  0.00000000000E+00 0. -1.
        -11    1    3    3    0    0 -0.27511955802E+02  0.13815805114E+03 -0.62710205853E+02  0.15419832919E+03  0.00000000000E+00 0.  1.
          2    1    6    6  502    0  0.29036542980E+03 -0.36083827614E+03  0.82877870118E+02  0.47051576563E+03  0.00000000000E+00 0. -1.
          1    1    5    5  503    0 -0.73844623342E+01 -0.95921024364E+01  0.76869303407E+01  0.14339721447E+02  0.00000000000E+00 0. -1.
         -2    1    5    5    0  503 -0.23436050056E+03 -0.22946153267E+03 -0.20322640567E+03  0.38584765278E+03  0.00000000000E+00 0.  1.
         -1    1    6    6    0  502  0.35638262534E+03 -0.34683453351E+03  0.32020713651E+02  0.49832529073E+03  0.00000000000E+00 0.  1.
<mgrwt>
<rscale>  0 0.24615240E+04</rscale>
<asrwt>0</asrwt>
<pdfrwt beam="1">  1        4 0.14668586E+00 0.24615240E+04</pdfrwt>
<pdfrwt beam="2">  1       -4 0.24441800E+00 0.24615240E+04</pdfrwt>
<totfact> 0.38609084E-02</totfact>
</mgrwt>
</event>
<event>
12    1  0.1960998E-007  0.2187476E+04  0.7818608E-02  0.8523659E-01
          2   -1    0    0  501    0  0.00000000000E+00  0.00000000000E+00  0.12743602568E+04  0.12743602568E+04  0.00000000000E+00 0. -1.
         -2   -1    0    0    0  501 -0.00000000000E+00 -0.00000000000E+00 -0.93871617843E+03  0.93871617843E+03  0.00000000000E+00 0.  1.
         23    2    1    2    0    0 -0.76771046185E+03 -0.43985207895E+03  0.32655070287E+03  0.94764375465E+03  0.92434406957E+02 0.  0.
        254    2    1    2    0    0  0.76771046185E+03  0.43985207895E+03  0.90933755236E+01  0.12654326806E+04  0.90464798406E+03 0.  0.
        -24    2    4    4    0    0  0.23945201706E+03 -0.14524207916E+03  0.30483746116E+03  0.41981879289E+03  0.69924324114E+02 0.  0.
         24    2    4    4    0    0  0.52825844479E+03  0.58509415812E+03 -0.29574408564E+03  0.84561388771E+03  0.78778960081E+02 0.  0.
         11    1    3    3    0    0 -0.31129121631E+03 -0.21160373270E+03  0.17651481209E+03  0.41573530032E+03  0.00000000000E+00 0.  1.
        -11    1    3    3    0    0 -0.45641924554E+03 -0.22824834625E+03  0.15003589077E+03  0.53190845433E+03  0.00000000000E+00 0. -1.
          4    1    6    6  502    0  0.15653200685E+03  0.12249951958E+03 -0.74790007101E+02  0.21237218893E+03  0.00000000000E+00 0. -1.
          3    1    5    5  503    0  0.26192373661E+02 -0.45007338360E+02  0.42739910319E+02  0.67367654541E+02  0.00000000000E+00 0. -1.
         -4    1    5    5    0  503  0.21325964340E+03 -0.10023474081E+03  0.26209755084E+03  0.35245113835E+03  0.00000000000E+00 0.  1.
         -3    1    6    6    0  502  0.37172643794E+03  0.46259463854E+03 -0.22095407853E+03  0.63324169879E+03  0.00000000000E+00 0.  1.
<mgrwt>
<rscale>  0 0.21874758E+04</rscale>
<asrwt>0</asrwt>
<pdfrwt beam="1">  1        2 0.19605542E+00 0.21874758E+04</pdfrwt>
<pdfrwt beam="2">  1       -2 0.14441787E+00 0.21874758E+04</pdfrwt>
<totfact> 0.51859672E+00</totfact>
</mgrwt>
</event>
<event>
12    1  0.1960998E-007  0.1205924E+04  0.7818608E-02  0.9107687E-01
          2   -1    0    0  501    0  0.00000000000E+00  0.00000000000E+00  0.67605365410E+03  0.67605365410E+03  0.00000000000E+00 0. -1.
         -2   -1    0    0    0  501 -0.00000000000E+00 -0.00000000000E+00 -0.53777223587E+03  0.53777223587E+03  0.00000000000E+00 0.  1.
         23    2    1    2    0    0 -0.13704117280E+03 -0.50709259602E+02  0.24028196170E+03  0.29583028044E+03  0.91806435797E+02 0.  0.
        254    2    1    2    0    0  0.13704117280E+03  0.50709259602E+02 -0.10200054346E+03  0.91799560954E+03  0.90053323992E+03 0.  0.
        -24    2    4    4    0    0 -0.39964891517E+02 -0.38736804878E+03 -0.17128963065E+03  0.43294017114E+03  0.80286091287E+02 0.  0.
         24    2    4    4    0    0  0.17700606432E+03  0.43807730838E+03  0.69289087189E+02  0.48505543839E+03  0.85058366959E+02 0.  0.
         11    1    3    3    0    0 -0.51094927549E+02 -0.24051817714E+02  0.23599088059E+02  0.61205379778E+02  0.00000000000E+00 0.  1.
        -11    1    3    3    0    0 -0.85946245256E+02 -0.26657441888E+02  0.21668287364E+03  0.23462490066E+03  0.00000000000E+00 0. -1.
          4    1    6    6  502    0  0.18110694472E+03  0.38958634644E+03  0.49292193017E+02  0.43244302174E+03  0.00000000000E+00 0. -1.
          3    1    5    5  503    0 -0.43251941476E+02 -0.95299636426E+02 -0.57997183204E+02  0.11965126161E+03  0.00000000000E+00 0. -1.
         -4    1    5    5    0  503  0.32870499593E+01 -0.29206841235E+03 -0.11329244744E+03  0.31328890954E+03  0.00000000000E+00 0.  1.
         -3    1    6    6    0  502 -0.41008803989E+01  0.48490961937E+02  0.19996894173E+02  0.52612416654E+02  0.00000000000E+00 0.  1.
<mgrwt>
<rscale>  0 0.12059235E+04</rscale>
<asrwt>0</asrwt>
<pdfrwt beam="1">  1        2 0.10400825E+00 0.12059235E+04</pdfrwt>
<pdfrwt beam="2">  1       -2 0.82734190E-01 0.12059235E+04</pdfrwt>
<totfact> 0.54131016E+01</totfact>
</mgrwt>
</event>
<event>
12    1  0.1960998E-007  0.1617054E+04  0.7818608E-02  0.8810139E-01
          1   -1    0    0  501    0  0.00000000000E+00  0.00000000000E+00  0.14428074581E+04  0.14428074581E+04  0.00000000000E+00 0. -1.
         -1   -1    0    0    0  501 -0.00000000000E+00 -0.00000000000E+00 -0.45308609731E+03  0.45308609731E+03  0.00000000000E+00 0.  1.
         23    2    1    2    0    0 -0.50676317396E+03 -0.31810083996E+02  0.60241172683E+03  0.79285883441E+03  0.88906955612E+02 0.  0.
        254    2    1    2    0    0  0.50676317396E+03  0.31810083996E+02  0.38730963394E+03  0.11030347210E+04  0.89936424613E+03 0.  0.
        -24    2    4    4    0    0  0.22757193822E+02 -0.52386110406E+02 -0.26521992893E+03  0.28262004773E+03  0.79185139040E+02 0.  0.
         24    2    4    4    0    0  0.48400598014E+03  0.84196194402E+02  0.65252956287E+03  0.82041467324E+03  0.77036469838E+02 0.  0.
         13    1    3    3    0    0 -0.30193728016E+03 -0.13835103899E+02  0.42353928844E+03  0.52032976092E+03  0.00000000000E+00 0. -1.
        -13    1    3    3    0    0 -0.20482589380E+03 -0.17974980098E+02  0.17887243839E+03  0.27252907349E+03  0.00000000000E+00 0.  1.
          4    1    6    6  502    0  0.73474992654E+02 -0.50641590611E+01  0.65666207615E+02  0.98672544688E+02  0.00000000000E+00 0. -1.
          1    1    5    5  503    0  0.49755013175E+01 -0.27482448241E+02 -0.17373934106E+02  0.32892159567E+02  0.00000000000E+00 0. -1.
         -2    1    5    5    0  503  0.17781692505E+02 -0.24903662166E+02 -0.24784599483E+03  0.24972788817E+03  0.00000000000E+00 0.  1.
         -3    1    6    6    0  502  0.41053098748E+03  0.89260353463E+02  0.58686335526E+03  0.72174212855E+03  0.00000000000E+00 0.  1.
<mgrwt>
<rscale>  0 0.16170541E+04</rscale>
<asrwt>0</asrwt>
<pdfrwt beam="1">  1        1 0.22197038E+00 0.16170541E+04</pdfrwt>
<pdfrwt beam="2">  1       -1 0.69705554E-01 0.16170541E+04</pdfrwt>
<totfact> 0.14297597E+01</totfact>
</mgrwt>
</event>
<event>
12    1  0.1960998E-007  0.2638368E+04  0.7818608E-02  0.8355284E-01
         -2   -1    0    0    0  501 -0.00000000000E+00  0.00000000000E+00  0.58143134200E+03  0.58143134200E+03  0.00000000000E+00 0.  1.
          2   -1    0    0  501    0  0.00000000000E+00 -0.00000000000E+00 -0.29930395555E+04  0.29930395555E+04  0.00000000000E+00 0. -1.
         23    2    1    2    0    0 -0.56950014778E+03  0.10087292102E+04 -0.96323105262E+03  0.15095683843E+04  0.95486168892E+02 0.  0.
        254    2    1    2    0    0  0.56950014778E+03 -0.10087292102E+04 -0.14483771609E+04  0.20649025131E+04  0.90783310739E+03 0.  0.
        -24    2    4    4    0    0  0.58195659712E+03 -0.11596259371E+04 -0.12786984546E+04  0.18234419671E+04  0.80405688318E+02 0.  0.
         24    2    4    4    0    0 -0.12456449344E+02  0.15089672689E+03 -0.16967870625E+03  0.24146054603E+03  0.81162470522E+02 0.  0.
         13    1    3    3    0    0 -0.15857564569E+03  0.36750872491E+03 -0.35223582733E+03  0.53317818443E+03  0.00000000000E+00 0.  1.
        -13    1    3    3    0    0 -0.41092450209E+03  0.64122048528E+03 -0.61099522529E+03  0.97639019992E+03  0.00000000000E+00 0. -1.
          4    1    6    6  502    0 -0.78047490024E+01  0.15680867020E+03 -0.17265925557E+03  0.23336900328E+03  0.00000000000E+00 0. -1.
          1    1    5    5  503    0  0.46427029126E+03 -0.85686529625E+03 -0.93554420302E+03  0.13509285677E+04  0.00000000000E+00 0. -1.
         -2    1    5    5    0  503  0.11768630586E+03 -0.30276064083E+03 -0.34315425160E+03  0.47251339940E+03  0.00000000000E+00 0.  1.
         -3    1    6    6    0  502 -0.46517003417E+01 -0.59119433129E+01  0.29805493276E+01  0.80915427514E+01  0.00000000000E+00 0.  1.
<mgrwt>
<rscale>  0 0.26383684E+04</rscale>
<asrwt>0</asrwt>
<pdfrwt beam="1">  1        2 0.46046762E+00 0.26383684E+04</pdfrwt>
<pdfrwt beam="2">  1       -2 0.89450977E-01 0.26383684E+04</pdfrwt>
<totfact> 0.16619082E+00</totfact>
</mgrwt>
</event>
<event>
12    1  0.1960998E-007  0.3725963E+04  0.7818608E-02  0.8062232E-01
          2   -1    0    0  501    0  0.00000000000E+00  0.00000000000E+00  0.15924253511E+04  0.15924253511E+04  0.00000000000E+00 0. -1.
         -2   -1    0    0    0  501 -0.00000000000E+00 -0.00000000000E+00 -0.21795060223E+04  0.21795060223E+04  0.00000000000E+00 0.  1.
         23    2    1    2    0    0 -0.23272909028E+03  0.13999198028E+04  0.76587040661E+03  0.16152144202E+04  0.91770690627E+02 0.  0.
        254    2    1    2    0    0  0.23272909028E+03 -0.13999198028E+04 -0.13529510778E+04  0.21567169532E+04  0.89833908599E+03 0.  0.
        -24    2    4    4    0    0  0.13842813181E+03 -0.11739515221E+04 -0.14579416995E+04  0.18789610677E+04  0.87041201025E+02 0.  0.
         24    2    4    4    0    0  0.94300958463E+02 -0.22596828072E+03  0.10499062170E+03  0.27775588553E+03  0.78555500405E+02 0.  0.
         13    1    3    3    0    0 -0.88258375951E+02  0.51232365846E+03  0.23087430670E+03  0.56883039427E+03  0.00000000000E+00 0.  1.
        -13    1    3    3    0    0 -0.14447071433E+03  0.88759614435E+03  0.53499609991E+03  0.10463840259E+04  0.00000000000E+00 0. -1.
          2    1    6    6  502    0  0.10181161935E+03 -0.18962996701E+03  0.10745962999E+03  0.24056745894E+03  0.00000000000E+00 0. -1.
          3    1    5    5  503    0  0.12874965572E+03 -0.73261800860E+03 -0.91432610499E+03  0.11786847953E+04  0.00000000000E+00 0. -1.
         -4    1    5    5    0  503  0.96784760947E+01 -0.44133351350E+03 -0.54361559452E+03  0.70027627237E+03  0.00000000000E+00 0.  1.
         -1    1    6    6    0  502 -0.75106608841E+01 -0.36338313718E+02 -0.24690082974E+01  0.37188426597E+02  0.00000000000E+00 0.  1.
<mgrwt>
<rscale>  0 0.37259633E+04</rscale>
<asrwt>0</asrwt>
<pdfrwt beam="1">  1        2 0.24498852E+00 0.37259633E+04</pdfrwt>
<pdfrwt beam="2">  1       -2 0.33530862E+00 0.37259633E+04</pdfrwt>
<totfact> 0.17470848E-01</totfact>
</mgrwt>
</event>
<event>
12    1  0.1960998E-007  0.1739963E+04  0.7818608E-02  0.8738895E-01
         -2   -1    0    0    0  501 -0.00000000000E+00  0.00000000000E+00  0.40807401985E+03  0.40807401985E+03  0.00000000000E+00 0. -1.
          2   -1    0    0  501    0  0.00000000000E+00 -0.00000000000E+00 -0.18547312989E+04  0.18547312989E+04  0.00000000000E+00 0.  1.
         23    2    1    2    0    0 -0.62492377269E+03  0.45094372142E+02 -0.40940341220E+03  0.75355778128E+03  0.87606801857E+02 0.  0.
        254    2    1    2    0    0  0.62492377269E+03 -0.45094372142E+02 -0.10372538668E+04  0.15092475374E+04  0.89964955454E+03 0.  0.
        -24    2    4    4    0    0  0.49678176834E+03 -0.38894661765E+03 -0.91683583409E+03  0.11159150865E+04  0.81283065917E+02 0.  0.
         24    2    4    4    0    0  0.12814200435E+03  0.34385224550E+03 -0.12041803272E+03  0.39333245097E+03  0.74533042106E+02 0.  0.
         13    1    3    3    0    0 -0.15748947410E+03 -0.69233405155E+01 -0.64501225030E+02  0.17032696536E+03  0.00000000000E+00 0. -1.
        -13    1    3    3    0    0 -0.46743429858E+03  0.52017712658E+02 -0.34490218717E+03  0.58323081592E+03  0.00000000000E+00 0.  1.
          4    1    6    6  502    0  0.54885916107E+02  0.20577459007E+03 -0.36999759476E+02  0.21615880252E+03  0.00000000000E+00 0. -1.
          3    1    5    5  503    0  0.15662897317E+03 -0.10167638992E+03 -0.33170355112E+03  0.38065465888E+03  0.00000000000E+00 0. -1.
         -4    1    5    5    0  503  0.34015279517E+03 -0.28727022773E+03 -0.58513228296E+03  0.73526042758E+03  0.00000000000E+00 0.  1.
         -3    1    6    6    0  502  0.73256088243E+02  0.13807765544E+03 -0.83418273243E+02  0.17717364845E+03  0.00000000000E+00 0.  1.
<mgrwt>
<rscale>  0 0.17399628E+04</rscale>
<asrwt>0</asrwt>
<pdfrwt beam="1">  1        2 0.28534328E+00 0.17399628E+04</pdfrwt>
<pdfrwt beam="2">  1       -2 0.62780618E-01 0.17399628E+04</pdfrwt>
<totfact> 0.17949353E+01</totfact>
</mgrwt>
</event>
<event>
12    1  0.1960998E-007  0.2388485E+04  0.7818608E-02  0.8443827E-01
         -2   -1    0    0    0  501 -0.00000000000E+00  0.00000000000E+00  0.47984053410E+03  0.47984053410E+03  0.00000000000E+00 0.  1.
          2   -1    0    0  501    0  0.00000000000E+00 -0.00000000000E+00 -0.29722682162E+04  0.29722682162E+04  0.00000000000E+00 0. -1.
         23    2    1    2    0    0 -0.50400022854E+03  0.60630327433E+03 -0.13161939337E+03  0.80466740588E+03  0.92445002793E+02 0.  0.
        254    2    1    2    0    0  0.50400022854E+03 -0.60630327433E+03 -0.23608082887E+04  0.26474413444E+04  0.90216960995E+03 0.  0.
        -24    2    4    4    0    0  0.15393692966E+03 -0.17436312370E+03 -0.27988185337E+02  0.24790866047E+03  0.81094316691E+02 0.  0.
         24    2    4    4    0    0  0.35006329888E+03 -0.43194015063E+03 -0.23328201034E+04  0.23995326839E+04  0.81184108939E+02 0.  0.
         11    1    3    3    0    0 -0.11833264041E+03  0.86638917821E+02 -0.27057447377E+02  0.14913423928E+03  0.00000000000E+00 0. -1.
        -11    1    3    3    0    0 -0.38566758813E+03  0.51966435651E+03 -0.10456194599E+03  0.65553316660E+03  0.00000000000E+00 0.  1.
          4    1    6    6  502    0  0.13169390077E+03 -0.17689724951E+03 -0.10947853791E+04  0.11167770353E+04  0.00000000000E+00 0. -1.
          3    1    5    5  503    0  0.34504515731E+02 -0.38061215179E+01 -0.18829139691E+02  0.39491577182E+02  0.00000000000E+00 0. -1.
         -4    1    5    5    0  503  0.11943241393E+03 -0.17055700218E+03 -0.91590456465E+01  0.20841708329E+03  0.00000000000E+00 0.  1.
         -3    1    6    6    0  502  0.21836939811E+03 -0.25504290112E+03 -0.12380347243E+04  0.12827556486E+04  0.00000000000E+00 0.  1.
<mgrwt>
<rscale>  0 0.23884847E+04</rscale>
<asrwt>0</asrwt>
<pdfrwt beam="1">  1        2 0.45727204E+00 0.23884847E+04</pdfrwt>
<pdfrwt beam="2">  1       -2 0.73821619E-01 0.23884847E+04</pdfrwt>
<totfact> 0.26986983E+00</totfact>
</mgrwt>
</event>
<event>
12    1  0.1960998E-007  0.2070964E+04  0.7818608E-02  0.8574143E-01
         -1   -1    0    0    0  501 -0.00000000000E+00  0.00000000000E+00  0.68518194967E+03  0.68518194967E+03  0.00000000000E+00 0.  1.
          1   -1    0    0  501    0  0.00000000000E+00 -0.00000000000E+00 -0.15648734368E+04  0.15648734368E+04  0.00000000000E+00 0. -1.
         23    2    1    2    0    0 -0.83630206598E+03  0.39991920770E+02 -0.36972676028E+03  0.91935110294E+03  0.86649142691E+02 0.  0.
        254    2    1    2    0    0  0.83630206598E+03 -0.39991920770E+02 -0.50996472684E+03  0.13307042835E+04  0.89983852345E+03 0.  0.
        -24    2    4    4    0    0  0.18914701534E+03 -0.18665357829E+03 -0.59469478833E+03  0.65632383500E+03  0.80516665454E+02 0.  0.
         24    2    4    4    0    0  0.64715505064E+03  0.14666165752E+03  0.84730061498E+02  0.67438044852E+03  0.85384452193E+02 0.  0.
         11    1    3    3    0    0 -0.30862834675E+03  0.17658387438E+02 -0.18259754803E+03  0.35903361905E+03  0.00000000000E+00 0. -1.
        -11    1    3    3    0    0 -0.52767371923E+03  0.22333533332E+02 -0.18712921226E+03  0.56031748389E+03  0.00000000000E+00 0.  1.
          4    1    6    6  502    0  0.42931164605E+03  0.11566513398E+03  0.92773916792E+02  0.45419589638E+03  0.00000000000E+00 0. -1.
          1    1    5    5  503    0  0.12993359077E+03 -0.11223172775E+03 -0.46354504570E+03  0.49432045083E+03  0.00000000000E+00 0. -1.
         -2    1    5    5    0  503  0.59213424574E+02 -0.74421850533E+02 -0.13114974264E+03  0.16200338416E+03  0.00000000000E+00 0.  1.
         -3    1    6    6    0  502  0.21784340459E+03  0.30996523540E+02 -0.80438552940E+01  0.22018455214E+03  0.00000000000E+00 0.  1.
<mgrwt>
<rscale>  0 0.20709641E+04</rscale>
<asrwt>0</asrwt>
<pdfrwt beam="1">  1        1 0.24074976E+00 0.20709641E+04</pdfrwt>
<pdfrwt beam="2">  1       -1 0.10541261E+00 0.20709641E+04</pdfrwt>
<totfact> 0.45884284E+00</totfact>
</mgrwt>
</event>
<event>
12    1  0.1960998E-007  0.1624868E+04  0.7818608E-02  0.8805415E-01
         -2   -1    0    0    0  501 -0.00000000000E+00  0.00000000000E+00  0.86847882398E+03  0.86847882398E+03  0.00000000000E+00 0.  1.
          2   -1    0    0  501    0  0.00000000000E+00 -0.00000000000E+00 -0.76000576244E+03  0.76000576244E+03  0.00000000000E+00 0. -1.
         23    2    1    2    0    0 -0.15337544760E+03 -0.39267142632E+03 -0.32994394888E+03  0.54291451220E+03  0.90433849738E+02 0.  0.
        254    2    1    2    0    0  0.15337544760E+03  0.39267142632E+03  0.43841701043E+03  0.10855700742E+04  0.89918742988E+03 0.  0.
        -24    2    4    4    0    0  0.17086513092E+03  0.24413785753E+03 -0.23732307525E+03  0.38908436978E+03  0.79159448695E+02 0.  0.
         24    2    4    4    0    0 -0.17489683316E+02  0.14853356879E+03  0.67574008567E+03  0.69648570445E+03  0.78099699306E+02 0.  0.
         11    1    3    3    0    0 -0.10229974715E+03 -0.25503141688E+03 -0.26713282966E+03  0.38323127553E+03  0.00000000000E+00 0. -1.
        -11    1    3    3    0    0 -0.51075700447E+02 -0.13764000944E+03 -0.62811119223E+02  0.15968323667E+03  0.00000000000E+00 0.  1.
          2    1    6    6  502    0 -0.27102993451E+02  0.72349511923E+02  0.48078649295E+03  0.48695449062E+03  0.00000000000E+00 0. -1.
          1    1    5    5  503    0  0.48250920811E+02  0.12412523982E+03 -0.74731015182E+02  0.15270871340E+03  0.00000000000E+00 0. -1.
         -2    1    5    5    0  503  0.12261421010E+03  0.12001261771E+03 -0.16259206007E+03  0.23637565637E+03  0.00000000000E+00 0.  1.
         -1    1    6    6    0  502  0.96133101348E+01  0.76184056871E+02  0.19495359273E+03  0.20953121383E+03  0.00000000000E+00 0.  1.
<mgrwt>
<rscale>  0 0.16248679E+04</rscale>
<asrwt>0</asrwt>
<pdfrwt beam="1">  1        2 0.11692396E+00 0.16248679E+04</pdfrwt>
<pdfrwt beam="2">  1       -2 0.13361213E+00 0.16248679E+04</pdfrwt>
<totfact> 0.14285572E+01</totfact>
</mgrwt>
</event>
<event>
12    1  0.1960998E-007  0.1600762E+04  0.7818608E-02  0.8820080E-01
         -2   -1    0    0    0  501 -0.00000000000E+00  0.00000000000E+00  0.21257848069E+03  0.21257848069E+03  0.00000000000E+00 0.  1.
          2   -1    0    0  501    0  0.00000000000E+00 -0.00000000000E+00 -0.30135196053E+04  0.30135196053E+04  0.00000000000E+00 0. -1.
         23    2    1    2    0    0 -0.44292222315E+01 -0.42508591490E+03 -0.16199144267E+04  0.16772168612E+04  0.90642134763E+02 0.  0.
        254    2    1    2    0    0  0.44292222315E+01  0.42508591490E+03 -0.11810266980E+04  0.15488812248E+04  0.90746423307E+03 0.  0.
        -24    2    4    4    0    0 -0.31210028989E+03  0.18388807256E+03 -0.10634637196E+04  0.11264245707E+04  0.81583186080E+02 0.  0.
         24    2    4    4    0    0  0.31652951212E+03  0.24119784235E+03 -0.11756297833E+03  0.42245665417E+03  0.79254271713E+02 0.  0.
         11    1    3    3    0    0  0.19835129186E+02 -0.34013599515E+03 -0.13834405716E+04  0.14247784890E+04  0.00000000000E+00 0. -1.
        -11    1    3    3    0    0 -0.24264351417E+02 -0.84949919754E+02 -0.23647385511E+03  0.25243837222E+03  0.00000000000E+00 0.  1.
          4    1    6    6  502    0  0.13693940646E+02  0.34080305815E+01 -0.21330990409E+02  0.25576353037E+02  0.00000000000E+00 0. -1.
          1    1    5    5  503    0 -0.87144283466E+02  0.95892367520E+02 -0.35428983319E+03  0.37724098159E+03  0.00000000000E+00 0. -1.
         -2    1    5    5    0  503 -0.22495600642E+03  0.87995705039E+02 -0.70917388645E+03  0.74918358908E+03  0.00000000000E+00 0.  1.
         -3    1    6    6    0  502  0.30283557147E+03  0.23778981176E+03 -0.96231987917E+02  0.39688030113E+03  0.00000000000E+00 0.  1.
<mgrwt>
<rscale>  0 0.16007616E+04</rscale>
<asrwt>0</asrwt>
<pdfrwt beam="1">  1        2 0.46361840E+00 0.16007616E+04</pdfrwt>
<pdfrwt beam="2">  1       -2 0.32704381E-01 0.16007616E+04</pdfrwt>
<totfact> 0.14359940E+01</totfact>
</mgrwt>
</event>
<event>
12    1  0.1960998E-007  0.1694153E+04  0.7818608E-02  0.8764706E-01
          1   -1    0    0  501    0  0.00000000000E+00  0.00000000000E+00  0.10363896798E+04  0.10363896798E+04  0.00000000000E+00 0. -1.
         -1   -1    0    0    0  501 -0.00000000000E+00 -0.00000000000E+00 -0.69234474583E+03  0.69234474583E+03  0.00000000000E+00 0.  1.
         23    2    1    2    0    0 -0.36802404930E+03  0.47817003299E+03  0.10311060207E+03  0.61905041355E+03  0.92213539910E+02 0.  0.
        254    2    1    2    0    0  0.36802404930E+03 -0.47817003299E+03  0.24093433195E+03  0.11096840121E+04  0.89958933583E+03 0.  0.
        -24    2    4    4    0    0  0.22196742767E+03 -0.68894300013E+03  0.36407550450E+03  0.81417047254E+03  0.80066153939E+02 0.  0.
         24    2    4    4    0    0  0.14605662163E+03  0.21077296714E+03 -0.12314117254E+03  0.29551353959E+03  0.80042009643E+02 0.  0.
         13    1    3    3    0    0 -0.24860272761E+03  0.38503918606E+03  0.89687475129E+02  0.46701427619E+03  0.00000000000E+00 0. -1.
        -13    1    3    3    0    0 -0.11942132169E+03  0.93130846933E+02  0.13423126938E+02  0.15203613735E+03  0.00000000000E+00 0.  1.
          4    1    6    6  502    0  0.12335867645E+03  0.20938919757E+03 -0.12384739226E+03  0.27276248951E+03  0.00000000000E+00 0. -1.
          1    1    5    5  503    0  0.21138009760E+03 -0.60759382355E+03  0.29872456348E+03  0.70928708215E+03  0.00000000000E+00 0. -1.
         -2    1    5    5    0  503  0.10587330071E+02 -0.81349176583E+02  0.65350941014E+02  0.10488339039E+03  0.00000000000E+00 0.  1.
         -3    1    6    6    0  502  0.22697945174E+02  0.13837695717E+01  0.70621972091E+00  0.22751050077E+02  0.00000000000E+00 0.  1.
<mgrwt>
<rscale>  0 0.16941534E+04</rscale>
<asrwt>0</asrwt>
<pdfrwt beam="1">  1        1 0.15944457E+00 0.16941534E+04</pdfrwt>
<pdfrwt beam="2">  1       -1 0.10651458E+00 0.16941534E+04</pdfrwt>
<totfact> 0.11115130E+01</totfact>
</mgrwt>
</event>
<event>
12    1  0.1960998E-007  0.3370450E+04  0.7818608E-02  0.8145197E-01
         -2   -1    0    0    0  501 -0.00000000000E+00  0.00000000000E+00  0.17232543772E+04  0.17232543772E+04  0.00000000000E+00 0.  1.
          2   -1    0    0  501    0  0.00000000000E+00 -0.00000000000E+00 -0.16480345764E+04  0.16480345764E+04  0.00000000000E+00 0. -1.
         23    2    1    2    0    0  0.13494626706E+04 -0.11911866151E+03  0.81493029749E+03  0.15836370702E+04  0.92499866429E+02 0.  0.
        254    2    1    2    0    0 -0.13494626706E+04  0.11911866151E+03 -0.73971049671E+03  0.17876518834E+04  0.90182530591E+03 0.  0.
        -24    2    4    4    0    0  0.45986551882E+02  0.14997111341E+02  0.11292764725E+03  0.14713284232E+03  0.80967545803E+02 0.  0.
         24    2    4    4    0    0 -0.13954492225E+04  0.10412155017E+03 -0.85263814396E+03  0.16405190411E+04  0.78683478812E+02 0.  0.
         13    1    3    3    0    0  0.29436435266E+03 -0.64394270633E+02  0.18461375017E+03  0.35338255611E+03  0.00000000000E+00 0. -1.
        -13    1    3    3    0    0  0.10550983180E+04 -0.54724390877E+02  0.63031654732E+03  0.12302545141E+04  0.00000000000E+00 0.  1.
          2    1    6    6  502    0 -0.96467311992E+03  0.88332901341E+02 -0.62765251313E+03  0.11542723279E+04  0.00000000000E+00 0. -1.
          1    1    5    5  503    0  0.44029771939E+02 -0.18872448076E+02  0.99899574762E+02  0.11079131352E+03  0.00000000000E+00 0. -1.
         -2    1    5    5    0  503  0.19567799427E+01  0.33869559417E+02  0.13028072485E+02  0.36341528800E+02  0.00000000000E+00 0.  1.
         -1    1    6    6    0  502 -0.43077610260E+03  0.15788648827E+02 -0.22498563083E+03  0.48624671318E+03  0.00000000000E+00 0.  1.
<mgrwt>
<rscale>  0 0.33704497E+04</rscale>
<asrwt>0</asrwt>
<pdfrwt beam="1">  1        2 0.25354378E+00 0.33704497E+04</pdfrwt>
<pdfrwt beam="2">  1       -2 0.26511606E+00 0.33704497E+04</pdfrwt>
<totfact> 0.45196336E-01</totfact>
</mgrwt>
</event>
<event>
12    1  0.1960998E-007  0.5144700E+04  0.7818608E-02  0.7806565E-01
          2   -1    0    0  501    0  0.00000000000E+00  0.00000000000E+00  0.23421348063E+04  0.23421348063E+04  0.00000000000E+00 0. -1.
         -2   -1    0    0    0  501 -0.00000000000E+00 -0.00000000000E+00 -0.28251941518E+04  0.28251941518E+04  0.00000000000E+00 0.  1.
         23    2    1    2    0    0  0.12499813911E+04 -0.18374531480E+04  0.90026949723E+03  0.23994100558E+04  0.89419791982E+02 0.  0.
        254    2    1    2    0    0 -0.12499813911E+04  0.18374531480E+04 -0.13833288427E+04  0.27679189022E+04  0.89949364273E+03 0.  0.
        -24    2    4    4    0    0 -0.77241899108E+03  0.46204983443E+03 -0.76521718587E+03  0.11840907116E+04  0.79952013335E+02 0.  0.
         24    2    4    4    0    0 -0.47756239999E+03  0.13754033135E+04 -0.61811165686E+03  0.15838281907E+04  0.81545057640E+02 0.  0.
         11    1    3    3    0    0  0.97992742117E+03 -0.14081593758E+04  0.72997306233E+03  0.18644117705E+04  0.00000000000E+00 0.  1.
        -11    1    3    3    0    0  0.27005396991E+03 -0.42929377215E+03  0.17029643490E+03  0.53499828523E+03  0.00000000000E+00 0. -1.
          4    1    6    6  502    0 -0.29177209019E+03  0.87686084101E+03 -0.35142009228E+03  0.98869204931E+03  0.00000000000E+00 0. -1.
          3    1    5    5  503    0 -0.49979317149E+03  0.33577094519E+03 -0.53709240434E+03  0.80684793654E+03  0.00000000000E+00 0. -1.
         -4    1    5    5    0  503 -0.27262581960E+03  0.12627888924E+03 -0.22812478153E+03  0.37724277505E+03  0.00000000000E+00 0.  1.
         -3    1    6    6    0  502 -0.18579030980E+03  0.49854247251E+03 -0.26669156457E+03  0.59513614134E+03  0.00000000000E+00 0.  1.
<mgrwt>
<rscale>  0 0.51447004E+04</rscale>
<asrwt>0</asrwt>
<pdfrwt beam="1">  1        2 0.36032843E+00 0.51447004E+04</pdfrwt>
<pdfrwt beam="2">  1       -2 0.43464525E+00 0.51447004E+04</pdfrwt>
<totfact> 0.13573958E-02</totfact>
</mgrwt>
</event>
<event>
12    1  0.1960998E-007  0.1964350E+04  0.7818608E-02  0.8623472E-01
         -2   -1    0    0    0  501 -0.00000000000E+00  0.00000000000E+00  0.16010675682E+04  0.16010675682E+04  0.00000000000E+00 0.  1.
          2   -1    0    0  501    0  0.00000000000E+00 -0.00000000000E+00 -0.60251526113E+03  0.60251526113E+03  0.00000000000E+00 0. -1.
         23    2    1    2    0    0  0.44182421332E+03 -0.34631727567E+03 -0.20030613678E+03  0.60265070371E+03  0.89000176153E+02 0.  0.
        254    2    1    2    0    0 -0.44182421332E+03  0.34631727567E+03  0.11988584439E+04  0.16009321256E+04  0.90032094920E+03 0.  0.
        -24    2    4    4    0    0 -0.56524057987E+03 -0.10856622499E+03  0.61653277990E+03  0.84733146861E+03  0.81082739614E+02 0.  0.
         24    2    4    4    0    0  0.12341636655E+03  0.45488350066E+03  0.58232566396E+03  0.75360065702E+03  0.81609880831E+02 0.  0.
         11    1    3    3    0    0  0.19915769046E+03 -0.16201171588E+03 -0.45045110900E+02  0.26065426098E+03  0.00000000000E+00 0.  1.
        -11    1    3    3    0    0  0.24266652286E+03 -0.18430555978E+03 -0.15526102588E+03  0.34199644273E+03  0.00000000000E+00 0. -1.
          2    1    6    6  502    0  0.10657357758E+03  0.39481817050E+03  0.54332511879E+03  0.68003051395E+03  0.00000000000E+00 0. -1.
          1    1    5    5  503    0 -0.52465155550E+03 -0.10637785331E+03  0.53831796720E+03  0.75918491566E+03  0.00000000000E+00 0. -1.
         -2    1    5    5    0  503 -0.40589024369E+02 -0.21883716795E+01  0.78214812705E+02  0.88146552947E+02  0.00000000000E+00 0.  1.
         -1    1    6    6    0  502  0.16842788974E+02  0.60065330163E+02  0.39000545168E+02  0.73570143070E+02  0.00000000000E+00 0.  1.
<mgrwt>
<rscale>  0 0.19643499E+04</rscale>
<asrwt>0</asrwt>
<pdfrwt beam="1">  1        2 0.92694656E-01 0.19643499E+04</pdfrwt>
<pdfrwt beam="2">  1       -2 0.24631809E+00 0.19643499E+04</pdfrwt>
<totfact> 0.31122393E+00</totfact>
</mgrwt>
</event>
<event>
12    1  0.1960998E-007  0.1617115E+04  0.7818608E-02  0.8810102E-01
          2   -1    0    0  501    0  0.00000000000E+00  0.00000000000E+00  0.23437986440E+04  0.23437986440E+04  0.00000000000E+00 0. -1.
         -2   -1    0    0    0  501 -0.00000000000E+00 -0.00000000000E+00 -0.27893413114E+03  0.27893413114E+03  0.00000000000E+00 0.  1.
         23    2    1    2    0    0  0.70386514089E+02 -0.47481620359E+03  0.11646670713E+04  0.12626502407E+04  0.86206466168E+02 0.  0.
        254    2    1    2    0    0 -0.70386514089E+02  0.47481620359E+03  0.90019744148E+03  0.13600825344E+04  0.89948005986E+03 0.  0.
        -24    2    4    4    0    0 -0.30474642707E+03  0.16948138486E+03  0.89872672772E+03  0.96724703733E+03  0.79137699489E+02 0.  0.
         24    2    4    4    0    0  0.23435991298E+03  0.30533481873E+03  0.14707137682E+01  0.39283549704E+03  0.78508880989E+02 0.  0.
         13    1    3    3    0    0  0.59755849474E+02 -0.31651457832E+03  0.87458306397E+03  0.93201275507E+03  0.00000000000E+00 0. -1.
        -13    1    3    3    0    0  0.10630664615E+02 -0.15830162527E+03  0.29008400737E+03  0.33063748567E+03  0.00000000000E+00 0.  1.
          2    1    6    6  502    0  0.83110503435E+02  0.58628348597E+02 -0.15859102268E+02  0.10293760326E+03  0.00000000000E+00 0. -1.
          3    1    5    5  503    0 -0.43473054874E+02  0.14998724504E+02  0.62186717251E+02  0.77343752425E+02  0.00000000000E+00 0. -1.
         -4    1    5    5    0  503 -0.26127337220E+03  0.15448266036E+03  0.83654001046E+03  0.88990328490E+03  0.00000000000E+00 0.  1.
         -3    1    6    6    0  502  0.15124940955E+03  0.24670647013E+03  0.17329816037E+02  0.28989789378E+03  0.00000000000E+00 0.  1.
<mgrwt>
<rscale>  0 0.16171153E+04</rscale>
<asrwt>0</asrwt>
<pdfrwt beam="1">  1        2 0.36058439E+00 0.16171153E+04</pdfrwt>
<pdfrwt beam="2">  1       -2 0.42912945E-01 0.16171153E+04</pdfrwt>
<totfact> 0.21133434E+01</totfact>
</mgrwt>
</event>
<event>
12    1  0.1960998E-007  0.1727760E+04  0.7818608E-02  0.8745688E-01
          1   -1    0    0  501    0  0.00000000000E+00  0.00000000000E+00  0.74679522890E+03  0.74679522890E+03  0.00000000000E+00 0. -1.
         -1   -1    0    0    0  501 -0.00000000000E+00 -0.00000000000E+00 -0.99932219016E+03  0.99932219016E+03  0.00000000000E+00 0.  1.
         23    2    1    2    0    0 -0.16189852207E+03 -0.42794048649E+03 -0.52253225655E+03  0.70052932237E+03  0.91417618250E+02 0.  0.
        254    2    1    2    0    0  0.16189852207E+03  0.42794048649E+03  0.27000529529E+03  0.10455880967E+04  0.90055950221E+03 0.  0.
        -24    2    4    4    0    0  0.50589430282E+03  0.18927310609E+03  0.98343879291E+01  0.54625054042E+03  0.80867690776E+02 0.  0.
         24    2    4    4    0    0 -0.34399578074E+03  0.23866738040E+03  0.26017090736E+03  0.49933755627E+03  0.79711218943E+02 0.  0.
         11    1    3    3    0    0 -0.15688031606E+03 -0.30260659647E+03 -0.37076129931E+03  0.50363292869E+03  0.00000000000E+00 0. -1.
        -11    1    3    3    0    0 -0.50182060105E+01 -0.12533389003E+03 -0.15177095724E+03  0.19689639368E+03  0.00000000000E+00 0.  1.
          2    1    6    6  502    0 -0.26103367947E+03  0.14425488319E+03  0.20604188761E+03  0.36249318971E+03  0.00000000000E+00 0. -1.
          1    1    5    5  503    0  0.36367510003E+03  0.11064580066E+03 -0.21533694582E+02  0.38074370853E+03  0.00000000000E+00 0. -1.
         -4    1    5    5    0  503  0.14221920279E+03  0.78627305434E+02  0.31368082511E+02  0.16550683189E+03  0.00000000000E+00 0.  1.
         -1    1    6    6    0  502 -0.82962101274E+02  0.94412497213E+02  0.54129019756E+02  0.13684436655E+03  0.00000000000E+00 0.  1.
<mgrwt>
<rscale>  0 0.17277605E+04</rscale>
<asrwt>0</asrwt>
<pdfrwt beam="1">  1        1 0.11489157E+00 0.17277605E+04</pdfrwt>
<pdfrwt beam="2">  1       -1 0.15374188E+00 0.17277605E+04</pdfrwt>
<totfact> 0.76393730E+00</totfact>
</mgrwt>
</event>
<event>
12    1  0.1960998E-007  0.1155610E+04  0.7818608E-02  0.9152624E-01
          2   -1    0    0  501    0  0.00000000000E+00  0.00000000000E+00  0.18997649199E+04  0.18997649199E+04  0.00000000000E+00 0. -1.
         -2   -1    0    0    0  501 -0.00000000000E+00 -0.00000000000E+00 -0.17573683589E+03  0.17573683589E+03  0.00000000000E+00 0.  1.
         23    2    1    2    0    0 -0.18446643889E+03 -0.17323750793E+02  0.16211271234E+03  0.26431884956E+03  0.96207813162E+02 0.  0.
        254    2    1    2    0    0  0.18446643889E+03  0.17323750793E+02  0.15619153717E+04  0.18111829063E+04  0.89804003927E+03 0.  0.
        -24    2    4    4    0    0  0.10444979284E+03 -0.29251137497E+03  0.14109949609E+04  0.14470771258E+04  0.81564481410E+02 0.  0.
         24    2    4    4    0    0  0.80016646053E+02  0.30983512576E+03  0.15092041084E+03  0.36410578049E+03  0.85997559116E+02 0.  0.
         13    1    3    3    0    0 -0.87003583963E+02  0.39565706243E+02  0.66860494571E+02  0.11664216419E+03  0.00000000000E+00 0.  1.
        -13    1    3    3    0    0 -0.97462854927E+02 -0.56889457035E+02  0.95252217770E+02  0.14767668537E+03  0.00000000000E+00 0. -1.
          2    1    6    6  502    0  0.88074130479E+02  0.18232781876E+03  0.77931593252E+02  0.21696501834E+03  0.00000000000E+00 0. -1.
          1    1    5    5  503    0  0.74888790082E+02 -0.20236002605E+03  0.11323103376E+04  0.11526858252E+04  0.00000000000E+00 0. -1.
         -2    1    5    5    0  503  0.29561002755E+02 -0.90151348922E+02  0.27868462328E+03  0.29439130057E+03  0.00000000000E+00 0.  1.
         -1    1    6    6    0  502 -0.80574844256E+01  0.12750730700E+03  0.72988817590E+02  0.14714076215E+03  0.00000000000E+00 0.  1.
<mgrwt>
<rscale>  0 0.11556101E+04</rscale>
<asrwt>0</asrwt>
<pdfrwt beam="1">  1        2 0.29227151E+00 0.11556101E+04</pdfrwt>
<pdfrwt beam="2">  1       -2 0.27036438E-01 0.11556101E+04</pdfrwt>
<totfact> 0.93545506E+01</totfact>
</mgrwt>
</event>
<event>
12    1  0.1960998E-007  0.1481587E+04  0.7818608E-02  0.8896790E-01
          1   -1    0    0  501    0  0.00000000000E+00  0.00000000000E+00  0.37218350367E+03  0.37218350367E+03  0.00000000000E+00 0. -1.
         -1   -1    0    0    0  501 -0.00000000000E+00 -0.00000000000E+00 -0.14744750989E+04  0.14744750989E+04  0.00000000000E+00 0.  1.
         23    2    1    2    0    0  0.58345107810E+02  0.45612641724E+03 -0.38763761181E+03  0.60875895004E+03  0.94175798703E+02 0.  0.
        254    2    1    2    0    0 -0.58345107810E+02 -0.45612641724E+03 -0.71465398345E+03  0.12378996526E+04  0.90011653338E+03 0.  0.
        -24    2    4    4    0    0 -0.68037126532E+02 -0.33502570605E+03 -0.91985103348E+03  0.98513103990E+03  0.86521486741E+02 0.  0.
         24    2    4    4    0    0  0.96920187219E+01 -0.12110071119E+03  0.20519705003E+03  0.25276861267E+03  0.83826157812E+02 0.  0.
         11    1    3    3    0    0  0.68079647665E+02  0.43818401927E+03 -0.34624337221E+03  0.56260514215E+03  0.00000000000E+00 0. -1.
        -11    1    3    3    0    0 -0.97345398544E+01  0.17942397961E+02 -0.41394239608E+02  0.46153807898E+02  0.00000000000E+00 0.  1.
          2    1    6    6  502    0 -0.21460382058E+02 -0.10324232463E+03  0.11681092962E+03  0.15736682901E+03  0.00000000000E+00 0. -1.
          3    1    5    5  503    0 -0.36639779405E+01 -0.49234400541E+02 -0.65997173705E+02  0.82420130235E+02  0.00000000000E+00 0. -1.
         -4    1    5    5    0  503 -0.64373148592E+02 -0.28579130550E+03 -0.85385385978E+03  0.90271090966E+03  0.00000000000E+00 0.  1.
         -1    1    6    6    0  502  0.31152400780E+02 -0.17858386555E+02  0.88386120409E+02  0.95401783661E+02  0.00000000000E+00 0.  1.
<mgrwt>
<rscale>  0 0.14815874E+04</rscale>
<asrwt>0</asrwt>
<pdfrwt beam="1">  1        1 0.57259000E-01 0.14815874E+04</pdfrwt>
<pdfrwt beam="2">  1       -1 0.22684232E+00 0.14815874E+04</pdfrwt>
<totfact> 0.63380286E+00</totfact>
</mgrwt>
</event>
<event>
12    1  0.1960998E-007  0.1486779E+04  0.7818608E-02  0.8893293E-01
          2   -1    0    0  501    0  0.00000000000E+00  0.00000000000E+00  0.11623238567E+04  0.11623238567E+04  0.00000000000E+00 0. -1.
         -2   -1    0    0    0  501 -0.00000000000E+00 -0.00000000000E+00 -0.47545090754E+03  0.47545090754E+03  0.00000000000E+00 0.  1.
         23    2    1    2    0    0  0.23221203071E+03 -0.20022975231E+03 -0.16497745102E+03  0.36005984847E+03  0.91712344947E+02 0.  0.
        254    2    1    2    0    0 -0.23221203071E+03  0.20022975231E+03  0.85185040018E+03  0.12777149158E+04  0.90160519117E+03 0.  0.
        -24    2    4    4    0    0 -0.48178867106E+03  0.35164499707E+03  0.36324813981E+03  0.70293432688E+03  0.79955795888E+02 0.  0.
         24    2    4    4    0    0  0.24957664035E+03 -0.15141524475E+03  0.48860226037E+03  0.57478058889E+03  0.80159096637E+02 0.  0.
         13    1    3    3    0    0  0.15471068916E+03 -0.18293169399E+03 -0.11102306875E+03  0.26405591037E+03  0.00000000000E+00 0. -1.
        -13    1    3    3    0    0  0.77501341554E+02 -0.17298058320E+02 -0.53954382272E+02  0.96003938100E+02  0.00000000000E+00 0.  1.
          4    1    6    6  502    0  0.11668637007E+03 -0.75584556393E+02  0.30903977866E+03  0.33887212768E+03  0.00000000000E+00 0. -1.
          3    1    5    5  503    0 -0.27392892467E+03  0.17566345684E+03  0.15704454909E+03  0.36132768540E+03  0.00000000000E+00 0. -1.
         -4    1    5    5    0  503 -0.20785974639E+03  0.17598154022E+03  0.20620359073E+03  0.34160664147E+03  0.00000000000E+00 0.  1.
         -3    1    6    6    0  502  0.13289027028E+03 -0.75830688360E+02  0.17956248171E+03  0.23590846121E+03  0.00000000000E+00 0.  1.
<mgrwt>
<rscale>  0 0.14867790E+04</rscale>
<asrwt>0</asrwt>
<pdfrwt beam="1">  1        2 0.17881905E+00 0.14867790E+04</pdfrwt>
<pdfrwt beam="2">  1       -2 0.73146294E-01 0.14867790E+04</pdfrwt>
<totfact> 0.32578658E+01</totfact>
</mgrwt>
</event>
<event>
12    1  0.1960998E-007  0.3412444E+04  0.7818608E-02  0.8134859E-01
          2   -1    0    0  501    0  0.00000000000E+00  0.00000000000E+00  0.15524933647E+04  0.15524933647E+04  0.00000000000E+00 0. -1.
         -2   -1    0    0    0  501 -0.00000000000E+00 -0.00000000000E+00 -0.18751731292E+04  0.18751731292E+04  0.00000000000E+00 0.  1.
         23    2    1    2    0    0  0.98798208104E+03  0.11966856747E+04 -0.47979239504E+03  0.16271013101E+04  0.95355831019E+02 0.  0.
        254    2    1    2    0    0 -0.98798208104E+03 -0.11966856747E+04  0.15711263049E+03  0.18005651838E+04  0.89954733380E+03 0.  0.
        -24    2    4    4    0    0 -0.62301821485E+03 -0.11896744217E+04 -0.96100861155E+02  0.13489926045E+04  0.84075833725E+02 0.  0.
         24    2    4    4    0    0 -0.36496386620E+03 -0.70112530698E+01  0.25321349165E+03  0.45157257929E+03  0.80950236019E+02 0.  0.
         13    1    3    3    0    0  0.61319953583E+02  0.86490824951E+02 -0.95328014700E+01  0.10645033496E+03  0.00000000000E+00 0.  1.
        -13    1    3    3    0    0  0.92666212746E+03  0.11101948498E+04 -0.47025959357E+03  0.15206509752E+04  0.00000000000E+00 0. -1.
          4    1    6    6  502    0 -0.13217927762E+03 -0.58490536055E+01  0.14029906592E+03  0.19284553600E+03  0.00000000000E+00 0. -1.
          3    1    5    5  503    0 -0.60722825571E+03 -0.11523497407E+04 -0.10725576822E+03  0.13069582546E+04  0.00000000000E+00 0. -1.
         -4    1    5    5    0  503 -0.15789959135E+02 -0.37324680959E+02  0.11154907061E+02  0.42034349879E+02  0.00000000000E+00 0.  1.
         -3    1    6    6    0  502 -0.23278458858E+03 -0.11621994643E+01  0.11291442573E+03  0.25872704328E+03  0.00000000000E+00 0.  1.
<mgrwt>
<rscale>  0 0.34124442E+04</rscale>
<asrwt>0</asrwt>
<pdfrwt beam="1">  1        2 0.23884513E+00 0.34124442E+04</pdfrwt>
<pdfrwt beam="2">  1       -2 0.28848817E+00 0.34124442E+04</pdfrwt>
<totfact> 0.36676944E-01</totfact>
</mgrwt>
</event>
<event>
12    1  0.1960998E-007  0.1234428E+04  0.7818608E-02  0.9083244E-01
         -2   -1    0    0    0  501 -0.00000000000E+00  0.00000000000E+00  0.20091311679E+03  0.20091311679E+03  0.00000000000E+00 0.  1.
          2   -1    0    0  501    0  0.00000000000E+00 -0.00000000000E+00 -0.18961095613E+04  0.18961095613E+04  0.00000000000E+00 0. -1.
         23    2    1    2    0    0 -0.79741130470E+02 -0.21111306949E+03 -0.67945918340E+03  0.72160154832E+03  0.90092378403E+02 0.  0.
        254    2    1    2    0    0  0.79741130470E+02  0.21111306949E+03 -0.10157372611E+04  0.13754211297E+04  0.89951860712E+03 0.  0.
        -24    2    4    4    0    0  0.36037233897E+03 -0.98187569486E+02 -0.82466294432E+03  0.90897945180E+03  0.81643435536E+02 0.  0.
         24    2    4    4    0    0 -0.28063120850E+03  0.30930063897E+03 -0.19107431676E+03  0.46644167793E+03  0.81471982478E+02 0.  0.
         13    1    3    3    0    0 -0.74342465415E+02 -0.22017698913E+03 -0.64681566447E+03  0.68729557870E+03  0.00000000000E+00 0. -1.
        -13    1    3    3    0    0 -0.53986650549E+01  0.90639196394E+01 -0.32643518927E+02  0.34305969620E+02  0.00000000000E+00 0.  1.
          2    1    6    6  502    0 -0.16914058263E+03  0.23122540349E+03 -0.10357671827E+03  0.30463397788E+03  0.00000000000E+00 0. -1.
          3    1    5    5  503    0  0.32853102179E+03 -0.83578360866E+02 -0.79016106061E+03  0.85980955820E+03  0.00000000000E+00 0. -1.
         -4    1    5    5    0  503  0.31841317187E+02 -0.14609208620E+02 -0.34501883715E+02  0.49169893599E+02  0.00000000000E+00 0.  1.
         -1    1    6    6    0  502 -0.11149062587E+03  0.78075235484E+02 -0.87497598496E+02  0.16180770005E+03  0.00000000000E+00 0.  1.
<mgrwt>
<rscale>  0 0.12344283E+04</rscale>
<asrwt>0</asrwt>
<pdfrwt beam="1">  1        2 0.29170916E+00 0.12344283E+04</pdfrwt>
<pdfrwt beam="2">  1       -2 0.30909711E-01 0.12344283E+04</pdfrwt>
<totfact> 0.72895039E+01</totfact>
</mgrwt>
</event>
<event>
12    1  0.1960998E-007  0.1986251E+04  0.7818608E-02  0.8613076E-01
         -2   -1    0    0    0  501 -0.00000000000E+00  0.00000000000E+00  0.40654742548E+03  0.40654742548E+03  0.00000000000E+00 0.  1.
          2   -1    0    0  501    0  0.00000000000E+00 -0.00000000000E+00 -0.24260353950E+04  0.24260353950E+04  0.00000000000E+00 0. -1.
         23    2    1    2    0    0 -0.39131648593E+03 -0.22241244146E+03 -0.17231285440E+04  0.17832800507E+04  0.91213341362E+02 0.  0.
        254    2    1    2    0    0  0.39131648593E+03  0.22241244146E+03 -0.29635942547E+03  0.10493027698E+04  0.90033966219E+03 0.  0.
        -24    2    4    4    0    0  0.31263570770E+03  0.24308187811E+03  0.26049023618E+03  0.48082543730E+03  0.80672503490E+02 0.  0.
         24    2    4    4    0    0  0.78680778225E+02 -0.20669436642E+02 -0.55684966164E+03  0.56847733247E+03  0.80417917101E+02 0.  0.
         11    1    3    3    0    0 -0.22557760281E+03 -0.77102799618E+02 -0.93453089839E+03  0.96445741049E+03  0.00000000000E+00 0. -1.
        -11    1    3    3    0    0 -0.16573888311E+03 -0.14530964185E+03 -0.78859764564E+03  0.81882264020E+03  0.00000000000E+00 0.  1.
          4    1    6    6  502    0  0.87664437903E+02 -0.30986886768E+01 -0.35547899074E+03  0.36614200578E+03  0.00000000000E+00 0. -1.
          1    1    5    5  503    0  0.42553467376E+02  0.10691615030E+02  0.51887722269E+02  0.67951776577E+02  0.00000000000E+00 0. -1.
         -2    1    5    5    0  503  0.27008224033E+03  0.23239026308E+03  0.20860251391E+03  0.41287366072E+03  0.00000000000E+00 0.  1.
         -3    1    6    6    0  502 -0.89836596777E+01 -0.17570747965E+02 -0.20137067091E+03  0.20233532669E+03  0.00000000000E+00 0.  1.
<mgrwt>
<rscale>  0 0.19862512E+04</rscale>
<asrwt>0</asrwt>
<pdfrwt beam="1">  1        2 0.37323621E+00 0.19862512E+04</pdfrwt>
<pdfrwt beam="2">  1       -2 0.62545758E-01 0.19862512E+04</pdfrwt>
<totfact> 0.84735179E+00</totfact>
</mgrwt>
</event>
<event>
12    1  0.1960998E-007  0.1814736E+04  0.7818608E-02  0.8698502E-01
          2   -1    0    0  501    0  0.00000000000E+00  0.00000000000E+00  0.14516223711E+04  0.14516223711E+04  0.00000000000E+00 0. -1.
         -2   -1    0    0    0  501 -0.00000000000E+00 -0.00000000000E+00 -0.56716972749E+03  0.56716972749E+03  0.00000000000E+00 0.  1.
         23    2    1    2    0    0  0.17745265129E+03  0.10907779223E+03 -0.38594455356E+03  0.44769636823E+03  0.89952384580E+02 0.  0.
        254    2    1    2    0    0 -0.17745265129E+03 -0.10907779223E+03  0.12703971971E+04  0.15710957303E+04  0.90058056116E+03 0.  0.
        -24    2    4    4    0    0 -0.10787865913E+03  0.39047019093E+03  0.53734098496E+03  0.67770773262E+03  0.80297332732E+02 0.  0.
         24    2    4    4    0    0 -0.69573992164E+02 -0.49954798316E+03  0.73305621217E+03  0.89338799769E+03  0.79887272816E+02 0.  0.
         13    1    3    3    0    0  0.90518084179E+02  0.81538059786E+02 -0.14107717247E+03  0.18639942959E+03  0.00000000000E+00 0. -1.
        -13    1    3    3    0    0  0.86934567112E+02  0.27539732446E+02 -0.24486738109E+03  0.26129693864E+03  0.00000000000E+00 0.  1.
          2    1    6    6  502    0 -0.35471128615E+01 -0.27447021532E+03  0.43034033766E+03  0.51043049216E+03  0.00000000000E+00 0. -1.
          3    1    5    5  503    0 -0.11175785630E+03  0.38270204356E+03  0.50063694454E+03  0.63999064276E+03  0.00000000000E+00 0. -1.
         -2    1    5    5    0  503  0.38791971756E+01  0.77681473698E+01  0.36704040424E+02  0.37717089863E+02  0.00000000000E+00 0.  1.
         -1    1    6    6    0  502 -0.66026879302E+02 -0.22507776783E+03  0.30271587451E+03  0.38295750554E+03  0.00000000000E+00 0.  1.
<mgrwt>
<rscale>  0 0.18147355E+04</rscale>
<asrwt>0</asrwt>
<pdfrwt beam="1">  1        2 0.22332652E+00 0.18147355E+04</pdfrwt>
<pdfrwt beam="2">  1       -2 0.87256882E-01 0.18147355E+04</pdfrwt>
<totfact> 0.14470016E+01</totfact>
</mgrwt>
</event>
<event>
12    1  0.1960998E-007  0.1923062E+04  0.7818608E-02  0.8643461E-01
         -1   -1    0    0    0  501 -0.00000000000E+00  0.00000000000E+00  0.91367408894E+03  0.91367408894E+03  0.00000000000E+00 0.  1.
          1   -1    0    0  501    0  0.00000000000E+00 -0.00000000000E+00 -0.10118949783E+04  0.10118949783E+04  0.00000000000E+00 0. -1.
         23    2    1    2    0    0 -0.30813236546E+03 -0.19188637007E+03 -0.69316272160E+03  0.78769160564E+03  0.90650831912E+02 0.  0.
        254    2    1    2    0    0  0.30813236546E+03  0.19188637007E+03  0.59494183225E+03  0.11378774616E+04  0.89946839862E+03 0.  0.
        -24    2    4    4    0    0  0.18647310526E+02 -0.20875426913E+02 -0.22376352147E+03  0.24023655358E+03  0.82825011284E+02 0.  0.
         24    2    4    4    0    0  0.28948505493E+03  0.21276179699E+03  0.81870535373E+03  0.89764090799E+03  0.80072243604E+02 0.  0.
         11    1    3    3    0    0 -0.99550968655E+02 -0.31921624031E+02 -0.27000412307E+03  0.28953689215E+03  0.00000000000E+00 0. -1.
        -11    1    3    3    0    0 -0.20858139680E+03 -0.15996474604E+03 -0.42315859853E+03  0.49815471350E+03  0.00000000000E+00 0.  1.
          4    1    6    6  502    0  0.75635228648E+02  0.73838009147E+02  0.16497545550E+03  0.19593274439E+03  0.00000000000E+00 0. -1.
          1    1    5    5  503    0  0.12811747648E+02 -0.46826998453E+02 -0.76603025761E+02  0.90691412039E+02  0.00000000000E+00 0. -1.
         -2    1    5    5    0  503  0.58355628780E+01  0.25951571540E+02 -0.14716049571E+03  0.14954514154E+03  0.00000000000E+00 0.  1.
         -3    1    6    6    0  502  0.21384982628E+03  0.13892378784E+03  0.65372989823E+03  0.70170816360E+03  0.00000000000E+00 0.  1.
<mgrwt>
<rscale>  0 0.19230624E+04</rscale>
<asrwt>0</asrwt>
<pdfrwt beam="1">  1        1 0.15567615E+00 0.19230624E+04</pdfrwt>
<pdfrwt beam="2">  1       -1 0.14056524E+00 0.19230624E+04</pdfrwt>
<totfact> 0.57367087E+00</totfact>
</mgrwt>
</event>
<event>
12    1  0.1960998E-007  0.1601071E+04  0.7818608E-02  0.8819891E-01
          2   -1    0    0  501    0  0.00000000000E+00  0.00000000000E+00  0.15568971122E+04  0.15568971122E+04  0.00000000000E+00 0. -1.
         -2   -1    0    0    0  501 -0.00000000000E+00 -0.00000000000E+00 -0.41162435658E+03  0.41162435658E+03  0.00000000000E+00 0.  1.
         23    2    1    2    0    0 -0.21628334998E+03 -0.26885714871E+03  0.90709600276E+03  0.97553858204E+03  0.98942978217E+02 0.  0.
        254    2    1    2    0    0  0.21628334998E+03  0.26885714871E+03  0.23817675286E+03  0.99298288674E+03  0.90012454354E+03 0.  0.
        -24    2    4    4    0    0  0.17252177650E+03 -0.31707392351E+03  0.61807673791E+02  0.37473676673E+03  0.79421782036E+02 0.  0.
         24    2    4    4    0    0  0.43761573474E+02  0.58593107222E+03  0.17636907906E+03  0.61824612001E+03  0.76758818117E+02 0.  0.
         11    1    3    3    0    0 -0.19570739691E+03 -0.17398073144E+03  0.66609107018E+03  0.71571502282E+03  0.00000000000E+00 0.  1.
        -11    1    3    3    0    0 -0.20575953068E+02 -0.94876417265E+02  0.24100493258E+03  0.25982355922E+03  0.00000000000E+00 0. -1.
          2    1    6    6  502    0  0.52733667562E+02  0.21966354854E+03  0.76414005771E+02  0.23847854102E+03  0.00000000000E+00 0. -1.
          3    1    5    5  503    0  0.52477848040E+02 -0.17575282328E+03  0.18728362895E+02  0.18437388916E+03  0.00000000000E+00 0. -1.
         -4    1    5    5    0  503  0.12004392846E+03 -0.14132110023E+03  0.43079310896E+02  0.19036287757E+03  0.00000000000E+00 0.  1.
         -1    1    6    6    0  502 -0.89720940872E+01  0.36626752368E+03  0.99955073293E+02  0.37976757899E+03  0.00000000000E+00 0.  1.
<mgrwt>
<rscale>  0 0.16010706E+04</rscale>
<asrwt>0</asrwt>
<pdfrwt beam="1">  1        2 0.23952263E+00 0.16010706E+04</pdfrwt>
<pdfrwt beam="2">  1       -2 0.63326825E-01 0.16010706E+04</pdfrwt>
<totfact> 0.26099093E+01</totfact>
</mgrwt>
</event>
<event>
12    1  0.1960998E-007  0.1540006E+04  0.7818608E-02  0.8858277E-01
          2   -1    0    0  501    0  0.00000000000E+00  0.00000000000E+00  0.75627434904E+03  0.75627434904E+03  0.00000000000E+00 0.  1.
         -2   -1    0    0    0  501 -0.00000000000E+00 -0.00000000000E+00 -0.78398082960E+03  0.78398082960E+03  0.00000000000E+00 0. -1.
         23    2    1    2    0    0  0.31631684881E+03 -0.34553100011E+03 -0.18865845775E+03  0.51333542466E+03  0.92050114902E+02 0.  0.
        254    2    1    2    0    0 -0.31631684881E+03  0.34553100011E+03  0.16095197719E+03  0.10269197540E+04  0.89956134936E+03 0.  0.
        -24    2    4    4    0    0  0.25653199646E+03 -0.11931338348E+00  0.22456629029E+03  0.35023275610E+03  0.80151639221E+02 0.  0.
         24    2    4    4    0    0 -0.57284884527E+03  0.34565031350E+03 -0.63614313094E+02  0.67668699787E+03  0.78921312137E+02 0.  0.
         11    1    3    3    0    0  0.17291695946E+03 -0.16730980542E+03 -0.49705923085E+02  0.24568989529E+03  0.00000000000E+00 0.  1.
        -11    1    3    3    0    0  0.14339988935E+03 -0.17822119469E+03 -0.13895253466E+03  0.26764552937E+03  0.00000000000E+00 0. -1.
          4    1    6    6  502    0 -0.12725484517E+03  0.55748257239E+02 -0.39956723221E+02  0.14456210961E+03  0.00000000000E+00 0. -1.
          3    1    5    5  503    0  0.98537945670E+02  0.38830541492E+02  0.83346359221E+02  0.13477445338E+03  0.00000000000E+00 0. -1.
         -4    1    5    5    0  503  0.15799405079E+03 -0.38949854876E+02  0.14121993106E+03  0.21545830272E+03  0.00000000000E+00 0.  1.
         -3    1    6    6    0  502 -0.44559400010E+03  0.28990205626E+03 -0.23657589873E+02  0.53212488826E+03  0.00000000000E+00 0.  1.
<mgrwt>
<rscale>  0 0.15400060E+04</rscale>
<asrwt>0</asrwt>
<pdfrwt beam="1">  1        2 0.11634990E+00 0.15400060E+04</pdfrwt>
<pdfrwt beam="2">  1       -2 0.12061244E+00 0.15400060E+04</pdfrwt>
<totfact> 0.18734076E+01</totfact>
</mgrwt>
</event>
<event>
12    1  0.1960998E-007  0.2029776E+04  0.7818608E-02  0.8592825E-01
          2   -1    0    0  501    0  0.00000000000E+00  0.00000000000E+00  0.24796655484E+04  0.24796655484E+04  0.00000000000E+00 0.  1.
         -2   -1    0    0    0  501 -0.00000000000E+00 -0.00000000000E+00 -0.41537744932E+03  0.41537744932E+03  0.00000000000E+00 0. -1.
         23    2    1    2    0    0 -0.12089736714E+03  0.59298549383E+03  0.16051821175E+04  0.17178894417E+04  0.91030402455E+02 0.  0.
        254    2    1    2    0    0  0.12089736714E+03 -0.59298549383E+03  0.45910598155E+03  0.11771535560E+04  0.89925759540E+03 0.  0.
        -24    2    4    4    0    0  0.22719480743E+03 -0.56883037708E+03 -0.78208603611E+02  0.62249450899E+03  0.78723247098E+02 0.  0.
         24    2    4    4    0    0 -0.10629744029E+03 -0.24155116748E+02  0.53731458516E+03  0.55465904703E+03  0.84006425625E+02 0.  0.
         11    1    3    3    0    0 -0.11846303707E+03  0.45036454790E+03  0.13034396339E+04  0.13841302671E+04  0.00000000000E+00 0.  1.
        -11    1    3    3    0    0 -0.24343300772E+01  0.14262094593E+03  0.30174248365E+03  0.33375917458E+03  0.00000000000E+00 0. -1.
          2    1    6    6  502    0 -0.59023420771E+02  0.17105614469E+00  0.11750241914E+03  0.13149377158E+03  0.00000000000E+00 0. -1.
          3    1    5    5  503    0  0.71483484751E+02 -0.12272070072E+03 -0.44321017696E+02  0.14877705329E+03  0.00000000000E+00 0. -1.
         -4    1    5    5    0  503  0.15571132268E+03 -0.44610967636E+03 -0.33887585914E+02  0.47371745570E+03  0.00000000000E+00 0.  1.
         -1    1    6    6    0  502 -0.47274019519E+02 -0.24326172893E+02  0.41981216602E+03  0.42316527545E+03  0.00000000000E+00 0.  1.
<mgrwt>
<rscale>  0 0.20297755E+04</rscale>
<asrwt>0</asrwt>
<pdfrwt beam="1">  1        2 0.38148700E+00 0.20297755E+04</pdfrwt>
<pdfrwt beam="2">  1       -2 0.63904224E-01 0.20297755E+04</pdfrwt>
<totfact> 0.75098870E+00</totfact>
</mgrwt>
</event>
<event>
12    1  0.1960998E-007  0.2151243E+04  0.7818608E-02  0.8539000E-01
         -1   -1    0    0    0  501 -0.00000000000E+00  0.00000000000E+00  0.43336004878E+03  0.43336004878E+03  0.00000000000E+00 0.  1.
          1   -1    0    0  501    0  0.00000000000E+00 -0.00000000000E+00 -0.26697474207E+04  0.26697474207E+04  0.00000000000E+00 0. -1.
         23    2    1    2    0    0 -0.18780210081E+03 -0.75277425668E+03 -0.15365615414E+04  0.17238459494E+04  0.93192146379E+02 0.  0.
        254    2    1    2    0    0  0.18780210081E+03  0.75277425668E+03 -0.69982583060E+03  0.13792615202E+04  0.90037072213E+03 0.  0.
        -24    2    4    4    0    0 -0.32475299274E+03  0.12062024898E+03 -0.11766983851E+03  0.37546402026E+03  0.84340315721E+02 0.  0.
         24    2    4    4    0    0  0.51255509355E+03  0.63215400770E+03 -0.58215599209E+03  0.10037974999E+04  0.79827365861E+02 0.  0.
         13    1    3    3    0    0 -0.15758801171E+03 -0.50485058540E+03 -0.11097124640E+04  0.12292964849E+04  0.00000000000E+00 0. -1.
        -13    1    3    3    0    0 -0.30214089099E+02 -0.24792367127E+03 -0.42684907736E+03  0.49454946446E+03  0.00000000000E+00 0.  1.
          2    1    6    6  502    0  0.16308138407E+03  0.25979557534E+03 -0.23241952730E+03  0.38484817197E+03  0.00000000000E+00 0. -1.
          3    1    5    5  503    0 -0.46739583102E+01 -0.68173402892E+01  0.51171996303E+01  0.97215095002E+01  0.00000000000E+00 0. -1.
         -4    1    5    5    0  503 -0.32007903443E+03  0.12743758927E+03 -0.12278703814E+03  0.36574251076E+03  0.00000000000E+00 0.  1.
         -1    1    6    6    0  502  0.34947370947E+03  0.37235843235E+03 -0.34973646479E+03  0.61894932795E+03  0.00000000000E+00 0.  1.
<mgrwt>
<rscale>  0 0.21512432E+04</rscale>
<asrwt>0</asrwt>
<pdfrwt beam="1">  1        1 0.41073037E+00 0.21512432E+04</pdfrwt>
<pdfrwt beam="2">  1       -1 0.66670777E-01 0.21512432E+04</pdfrwt>
<totfact> 0.21521325E+00</totfact>
</mgrwt>
</event>
<event>
12    1  0.1960998E-007  0.2275725E+04  0.7818608E-02  0.8487554E-01
          1   -1    0    0  501    0  0.00000000000E+00  0.00000000000E+00  0.12316769691E+04  0.12316769691E+04  0.00000000000E+00 0. -1.
         -1   -1    0    0    0  501 -0.00000000000E+00 -0.00000000000E+00 -0.10511937351E+04  0.10511937351E+04  0.00000000000E+00 0.  1.
         23    2    1    2    0    0 -0.31226947311E+03  0.89967697742E+03 -0.21529836196E+02  0.95686246777E+03  0.90506137099E+02 0.  0.
        254    2    1    2    0    0  0.31226947311E+03 -0.89967697742E+03  0.20201307018E+03  0.13260082365E+04  0.90030976621E+03 0.  0.
        -24    2    4    4    0    0 -0.67376249668E+02 -0.89097447214E+03  0.22421010673E+02  0.89741277222E+03  0.80448200684E+02 0.  0.
         24    2    4    4    0    0  0.37964572278E+03 -0.87025052752E+01  0.17959205950E+03  0.42859546425E+03  0.85053840102E+02 0.  0.
         11    1    3    3    0    0 -0.23537293650E+03  0.69247500436E+03 -0.54475858581E+02  0.73340961956E+03  0.00000000000E+00 0. -1.
        -11    1    3    3    0    0 -0.76896536605E+02  0.20720197306E+03  0.32946022386E+02  0.22345284821E+03  0.00000000000E+00 0.  1.
          2    1    6    6  502    0  0.17317210208E+03  0.36076265891E+02  0.66662914891E+02  0.18903443633E+03  0.00000000000E+00 0. -1.
          3    1    5    5  503    0 -0.90979909438E+01 -0.24824990354E+03  0.41035591366E+02  0.25178305702E+03  0.00000000000E+00 0. -1.
         -4    1    5    5    0  503 -0.58278258724E+02 -0.64272456861E+03 -0.18614580693E+02  0.64562971520E+03  0.00000000000E+00 0.  1.
         -1    1    6    6    0  502  0.20647362070E+03 -0.44778771167E+02  0.11292914461E+03  0.23956102791E+03  0.00000000000E+00 0.  1.
<mgrwt>
<rscale>  0 0.22757250E+04</rscale>
<asrwt>0</asrwt>
<pdfrwt beam="1">  1        1 0.18948877E+00 0.22757250E+04</pdfrwt>
<pdfrwt beam="2">  1       -1 0.16172211E+00 0.22757250E+04</pdfrwt>
<totfact> 0.26029448E+00</totfact>
</mgrwt>
</event>
<event>
12    1  0.1960998E-007  0.3413285E+04  0.7818608E-02  0.8134653E-01
          2   -1    0    0  501    0  0.00000000000E+00  0.00000000000E+00  0.16300221661E+04  0.16300221661E+04  0.00000000000E+00 0. -1.
         -2   -1    0    0    0  501 -0.00000000000E+00 -0.00000000000E+00 -0.17868643124E+04  0.17868643124E+04  0.00000000000E+00 0.  1.
         23    2    1    2    0    0  0.53023839909E+03  0.14288162499E+04 -0.51603323528E+03  0.16117066105E+04  0.92947632485E+02 0.  0.
        254    2    1    2    0    0 -0.53023839909E+03 -0.14288162499E+04  0.35919108894E+03  0.18051798680E+04  0.89832481965E+03 0.  0.
        -24    2    4    4    0    0 -0.62960806708E+03 -0.46686444369E+03  0.61465046408E+02  0.79022151514E+03  0.79393728653E+02 0.  0.
         24    2    4    4    0    0  0.99369667991E+02 -0.96195180625E+03  0.29772604253E+03  0.10149583529E+04  0.79208921433E+02 0.  0.
         11    1    3    3    0    0  0.35805831295E+03  0.85351083292E+03 -0.28791317605E+03  0.96931960381E+03  0.00000000000E+00 0. -1.
        -11    1    3    3    0    0  0.17218008614E+03  0.57530541702E+03 -0.22812005923E+03  0.64238700667E+03  0.00000000000E+00 0.  1.
          4    1    6    6  502    0  0.82005231477E+02 -0.71703364517E+03  0.25682209572E+03  0.76604157533E+03  0.00000000000E+00 0. -1.
          3    1    5    5  503    0 -0.38902845747E+03 -0.29607711384E+03  0.15331244355E+00  0.48888119372E+03  0.00000000000E+00 0. -1.
         -4    1    5    5    0  503 -0.24057960961E+03 -0.17078732985E+03  0.61311733964E+02  0.30134032143E+03  0.00000000000E+00 0.  1.
         -3    1    6    6    0  502  0.17364436514E+02 -0.24491816108E+03  0.40903946812E+02  0.24891677755E+03  0.00000000000E+00 0.  1.
<mgrwt>
<rscale>  0 0.34132849E+04</rscale>
<asrwt>0</asrwt>
<pdfrwt beam="1">  1        2 0.25077264E+00 0.34132849E+04</pdfrwt>
<pdfrwt beam="2">  1       -2 0.27490220E+00 0.34132849E+04</pdfrwt>
<totfact> 0.40165677E-01</totfact>
</mgrwt>
</event>
<event>
12    1  0.1960998E-007  0.1441777E+04  0.7818608E-02  0.8924121E-01
         -2   -1    0    0    0  501 -0.00000000000E+00  0.00000000000E+00  0.71718803927E+03  0.71718803927E+03  0.00000000000E+00 0.  1.
          2   -1    0    0  501    0  0.00000000000E+00 -0.00000000000E+00 -0.72460830954E+03  0.72460830954E+03  0.00000000000E+00 0. -1.
         23    2    1    2    0    0 -0.22836753367E+03  0.23551035755E+03 -0.28542230916E+03  0.44547795303E+03  0.96787670279E+02 0.  0.
        254    2    1    2    0    0  0.22836753367E+03 -0.23551035755E+03  0.27800203889E+03  0.99631839578E+03  0.89874821457E+03 0.  0.
        -24    2    4    4    0    0  0.53013733569E+03 -0.25386913713E+03  0.33110377965E+03  0.67939323317E+03  0.80313877355E+02 0.  0.
         24    2    4    4    0    0 -0.30176980201E+03  0.18358779584E+02 -0.53101740760E+02  0.31692516262E+03  0.78865110357E+02 0.  0.
         13    1    3    3    0    0 -0.17042351016E+03  0.13211019980E+03 -0.22784432298E+03  0.31370418107E+03  0.00000000000E+00 0. -1.
        -13    1    3    3    0    0 -0.57944023511E+02  0.10340015775E+03 -0.57577986186E+02  0.13177377196E+03  0.00000000000E+00 0.  1.
          4    1    6    6  502    0 -0.62919378028E+02 -0.22193161043E+02 -0.31246013095E+02  0.73672911323E+02  0.00000000000E+00 0. -1.
          3    1    5    5  503    0  0.27792717394E+03 -0.88725919145E+02  0.15904849652E+03  0.33228335346E+03  0.00000000000E+00 0. -1.
         -4    1    5    5    0  503  0.25221016175E+03 -0.16514321799E+03  0.17205528313E+03  0.34710987970E+03  0.00000000000E+00 0.  1.
         -3    1    6    6    0  502 -0.23885042399E+03  0.40551940627E+02 -0.21855727665E+02  0.24325225129E+03  0.00000000000E+00 0.  1.
<mgrwt>
<rscale>  0 0.14417773E+04</rscale>
<asrwt>0</asrwt>
<pdfrwt beam="1">  1        2 0.11147820E+00 0.14417773E+04</pdfrwt>
<pdfrwt beam="2">  1       -2 0.11033662E+00 0.14417773E+04</pdfrwt>
<totfact> 0.24812586E+01</totfact>
</mgrwt>
</event>
<event>
12    1  0.1960998E-007  0.1690723E+04  0.7818608E-02  0.8766673E-01
         -2   -1    0    0    0  501 -0.00000000000E+00  0.00000000000E+00  0.82984641748E+03  0.82984641748E+03  0.00000000000E+00 0.  1.
          2   -1    0    0  501    0  0.00000000000E+00 -0.00000000000E+00 -0.86116615667E+03  0.86116615667E+03  0.00000000000E+00 0. -1.
         23    2    1    2    0    0 -0.42664948883E+03 -0.36416250579E+03 -0.22843747484E+03  0.61272970370E+03  0.92789508832E+02 0.  0.
        254    2    1    2    0    0  0.42664948883E+03  0.36416250579E+03  0.19711773565E+03  0.10782828704E+04  0.89955234981E+03 0.  0.
        -24    2    4    4    0    0 -0.25087366111E+03 -0.41129428707E+02  0.39794841979E+02  0.26935803771E+03  0.79629763823E+02 0.  0.
         24    2    4    4    0    0  0.67752314993E+03  0.40529193450E+03  0.15732289367E+03  0.80892483274E+03  0.79433754033E+02 0.  0.
         13    1    3    3    0    0 -0.12643142499E+03 -0.16400867811E+03 -0.69285560212E+02  0.21836721497E+03  0.00000000000E+00 0.  1.
        -13    1    3    3    0    0 -0.30021806384E+03 -0.20015382768E+03 -0.15915191463E+03  0.39436248873E+03  0.00000000000E+00 0. -1.
          4    1    6    6  502    0  0.18671038134E+03  0.10070260800E+03  0.79703958528E+01  0.21228591325E+03  0.00000000000E+00 0. -1.
          3    1    5    5  503    0 -0.18990248380E+03 -0.33516727502E+02  0.64200754434E+02  0.20324384676E+03  0.00000000000E+00 0. -1.
         -4    1    5    5    0  503 -0.60971177303E+02 -0.76127012049E+01 -0.24405912456E+02  0.66114190943E+02  0.00000000000E+00 0.  1.
         -3    1    6    6    0  502  0.49081276860E+03  0.30458932650E+03  0.14935249782E+03  0.59663891948E+03  0.00000000000E+00 0.  1.
<mgrwt>
<rscale>  0 0.16907225E+04</rscale>
<asrwt>0</asrwt>
<pdfrwt beam="1">  1        2 0.13248710E+00 0.16907225E+04</pdfrwt>
<pdfrwt beam="2">  1       -2 0.12766868E+00 0.16907225E+04</pdfrwt>
<totfact> 0.13495384E+01</totfact>
</mgrwt>
</event>
<event>
12    1  0.1960998E-007  0.3022003E+04  0.7818608E-02  0.8237476E-01
         -1   -1    0    0    0  501 -0.00000000000E+00  0.00000000000E+00  0.19215853205E+04  0.19215853205E+04  0.00000000000E+00 0.  1.
          1   -1    0    0  501    0  0.00000000000E+00 -0.00000000000E+00 -0.11881464893E+04  0.11881464893E+04  0.00000000000E+00 0. -1.
         23    2    1    2    0    0 -0.83282842439E+03 -0.10860124379E+04  0.47039461022E+03  0.14499883106E+04  0.90381479285E+02 0.  0.
        254    2    1    2    0    0  0.83282842439E+03  0.10860124379E+04  0.26304422095E+03  0.16597434992E+04  0.90140447151E+03 0.  0.
        -24    2    4    4    0    0  0.94788417578E+03  0.58989989914E+03  0.13064098923E+03  0.11270079728E+04  0.81324049589E+02 0.  0.
         24    2    4    4    0    0 -0.11505575139E+03  0.49611253871E+03  0.13240323172E+03  0.53273552636E+03  0.83132714880E+02 0.  0.
         11    1    3    3    0    0 -0.72422928530E+03 -0.94756638324E+03  0.37715918420E+03  0.12508553708E+04  0.00000000000E+00 0. -1.
        -11    1    3    3    0    0 -0.10859913909E+03 -0.13844605462E+03  0.93235426019E+02  0.19913293980E+03  0.00000000000E+00 0.  1.
          4    1    6    6  502    0  0.10121956656E+02  0.11037035323E+02  0.54133213239E+01  0.15924013408E+02  0.00000000000E+00 0. -1.
          1    1    5    5  503    0  0.18181818953E+03  0.76804444090E+02  0.25190977978E+02  0.19897578257E+03  0.00000000000E+00 0. -1.
         -2    1    5    5    0  503  0.76606598625E+03  0.51309545505E+03  0.10545001125E+03  0.92803219026E+03  0.00000000000E+00 0.  1.
         -3    1    6    6    0  502 -0.12517770804E+03  0.48507550339E+03  0.12698991039E+03  0.51681151295E+03  0.00000000000E+00 0.  1.
<mgrwt>
<rscale>  0 0.30220025E+04</rscale>
<asrwt>0</asrwt>
<pdfrwt beam="1">  1        1 0.18279177E+00 0.30220025E+04</pdfrwt>
<pdfrwt beam="2">  1       -1 0.29562851E+00 0.30220025E+04</pdfrwt>
<totfact> 0.32641658E-01</totfact>
</mgrwt>
</event>
<event>
12    1  0.1960998E-007  0.1460769E+04  0.7818608E-02  0.8910969E-01
         -2   -1    0    0    0  501 -0.00000000000E+00  0.00000000000E+00  0.20507597365E+03  0.20507597365E+03  0.00000000000E+00 0.  1.
          2   -1    0    0  501    0  0.00000000000E+00 -0.00000000000E+00 -0.26012858034E+04  0.26012858034E+04  0.00000000000E+00 0. -1.
         23    2    1    2    0    0 -0.43241585684E+03  0.70014797429E+01 -0.95822257774E+03  0.10550104353E+04  0.88453468571E+02 0.  0.
        254    2    1    2    0    0  0.43241585684E+03 -0.70014797429E+01 -0.14379872520E+04  0.17513513417E+04  0.90132773807E+03 0.  0.
        -24    2    4    4    0    0  0.48534715595E+03 -0.33681034320E+03 -0.60281333263E+03  0.84808647352E+03  0.82847350584E+02 0.  0.
         24    2    4    4    0    0 -0.52931299116E+02  0.32980886346E+03 -0.83517391934E+03  0.90326486821E+03  0.82439903910E+02 0.  0.
         13    1    3    3    0    0 -0.10815008950E+03  0.24151387544E+02 -0.32518815943E+03  0.34355068100E+03  0.00000000000E+00 0. -1.
        -13    1    3    3    0    0 -0.32426576734E+03 -0.17149907801E+02 -0.63303441830E+03  0.71145975428E+03  0.00000000000E+00 0.  1.
          4    1    6    6  502    0 -0.32061639697E+02  0.31603425861E+02 -0.11677261436E+03  0.12515018470E+03  0.00000000000E+00 0. -1.
          1    1    5    5  503    0  0.94700444345E+02 -0.41086044616E+02 -0.14133017411E+03  0.17501558598E+03  0.00000000000E+00 0. -1.
         -2    1    5    5    0  503  0.39064671161E+03 -0.29572429859E+03 -0.46148315852E+03  0.67307088754E+03  0.00000000000E+00 0.  1.
         -1    1    6    6    0  502 -0.20869659419E+02  0.29820543760E+03 -0.71840130498E+03  0.77811468351E+03  0.00000000000E+00 0.  1.
<mgrwt>
<rscale>  0 0.14607686E+04</rscale>
<asrwt>0</asrwt>
<pdfrwt beam="1">  1        2 0.40019780E+00 0.14607686E+04</pdfrwt>
<pdfrwt beam="2">  1       -2 0.31550151E-01 0.14607686E+04</pdfrwt>
<totfact> 0.27573132E+01</totfact>
</mgrwt>
</event>
<event>
12    1  0.1960998E-007  0.1722457E+04  0.7818608E-02  0.8748659E-01
         -2   -1    0    0    0  501 -0.00000000000E+00  0.00000000000E+00  0.58624751275E+03  0.58624751275E+03  0.00000000000E+00 0.  1.
          2   -1    0    0  501    0  0.00000000000E+00 -0.00000000000E+00 -0.12651903725E+04  0.12651903725E+04  0.00000000000E+00 0. -1.
         23    2    1    2    0    0 -0.45478663372E+03 -0.90581655397E+02  0.19743170042E+03  0.51219636474E+03  0.91268402055E+02 0.  0.
        254    2    1    2    0    0  0.45478663372E+03  0.90581655397E+02 -0.87637456021E+03  0.13392415206E+04  0.90027749172E+03 0.  0.
        -24    2    4    4    0    0  0.45700029902E+03  0.95608822873E+02 -0.14683661768E+02  0.47382933495E+03  0.79424860208E+02 0.  0.
         24    2    4    4    0    0 -0.22136653020E+01 -0.50271674767E+01 -0.86169089844E+03  0.86541218561E+03  0.79980458945E+02 0.  0.
         11    1    3    3    0    0 -0.20826757931E+03 -0.29333577682E+02  0.13727077563E+03  0.25115554784E+03  0.00000000000E+00 0. -1.
        -11    1    3    3    0    0 -0.24651905441E+03 -0.61248077715E+02  0.60160924787E+02  0.26104081689E+03  0.00000000000E+00 0.  1.
          2    1    6    6  502    0  0.52217981368E+01  0.35869919323E+02 -0.29925310189E+03  0.30144043736E+03  0.00000000000E+00 0. -1.
          3    1    5    5  503    0  0.36109347750E+02  0.31251588645E+02 -0.38253917116E+01  0.47908041178E+02  0.00000000000E+00 0. -1.
         -4    1    5    5    0  503  0.42089095127E+03  0.64357234229E+02 -0.10858270057E+02  0.42592129377E+03  0.00000000000E+00 0.  1.
         -1    1    6    6    0  502 -0.74354634388E+01 -0.40897086800E+02 -0.56243779655E+03  0.56397174824E+03  0.00000000000E+00 0.  1.
<mgrwt>
<rscale>  0 0.17224572E+04</rscale>
<asrwt>0</asrwt>
<pdfrwt beam="1">  1        2 0.19464467E+00 0.17224572E+04</pdfrwt>
<pdfrwt beam="2">  1       -2 0.90191926E-01 0.17224572E+04</pdfrwt>
<totfact> 0.17310173E+01</totfact>
</mgrwt>
</event>
<event>
12    1  0.1960998E-007  0.3840739E+04  0.7818608E-02  0.8037468E-01
         -2   -1    0    0    0  501 -0.00000000000E+00  0.00000000000E+00  0.77261393720E+03  0.77261393720E+03  0.00000000000E+00 0.  1.
          2   -1    0    0  501    0  0.00000000000E+00 -0.00000000000E+00 -0.47731728379E+04  0.47731728379E+04  0.00000000000E+00 0. -1.
         23    2    1    2    0    0 -0.12508275554E+04 -0.12923788917E+04 -0.22298992647E+04  0.28662778874E+04  0.91024305774E+02 0.  0.
        254    2    1    2    0    0  0.12508275554E+04  0.12923788917E+04 -0.17706596360E+04  0.26795088877E+04  0.89984418626E+03 0.  0.
        -24    2    4    4    0    0  0.13187017569E+04  0.12378698235E+04 -0.13958731292E+04  0.22860271790E+04  0.78501253280E+02 0.  0.
         24    2    4    4    0    0 -0.67874201451E+02  0.54509068151E+02 -0.37478650677E+03  0.39348170865E+03  0.82369798208E+02 0.  0.
         13    1    3    3    0    0 -0.88980574279E+03 -0.97196900865E+03 -0.16587783669E+04  0.21184956181E+04  0.00000000000E+00 0. -1.
        -13    1    3    3    0    0 -0.36102181262E+03 -0.32040988302E+03 -0.57112089779E+03  0.74778226926E+03  0.00000000000E+00 0.  1.
          2    1    6    6  502    0 -0.45211771740E+02  0.64411971022E+02 -0.34895940821E+03  0.35772290239E+03  0.00000000000E+00 0. -1.
          3    1    5    5  503    0  0.63409051528E+03  0.54254946591E+03 -0.65295578179E+03  0.10596140606E+04  0.00000000000E+00 0. -1.
         -4    1    5    5    0  503  0.68461124158E+03  0.69532035760E+03 -0.74291734744E+03  0.12264131184E+04  0.00000000000E+00 0.  1.
         -1    1    6    6    0  502 -0.22662429711E+02 -0.99029028711E+01 -0.25827098560E+02  0.35758806268E+02  0.00000000000E+00 0.  1.
<mgrwt>
<rscale>  0 0.38407394E+04</rscale>
<asrwt>0</asrwt>
<pdfrwt beam="1">  1        2 0.73433426E+00 0.38407394E+04</pdfrwt>
<pdfrwt beam="2">  1       -2 0.11886369E+00 0.38407394E+04</pdfrwt>
<totfact> 0.27484021E-02</totfact>
</mgrwt>
</event>
<event>
12    1  0.1960998E-007  0.1188773E+04  0.7818608E-02  0.9122740E-01
          2   -1    0    0  501    0  0.00000000000E+00  0.00000000000E+00  0.19351415376E+04  0.19351415376E+04  0.00000000000E+00 0. -1.
         -2   -1    0    0    0  501 -0.00000000000E+00 -0.00000000000E+00 -0.18256825367E+03  0.18256825367E+03  0.00000000000E+00 0.  1.
         23    2    1    2    0    0  0.22851490416E+03  0.12621365649E+02  0.50693348589E+03  0.56367971065E+03  0.91514462239E+02 0.  0.
        254    2    1    2    0    0 -0.22851490416E+03 -0.12621365649E+02  0.12456397981E+04  0.15540300806E+04  0.90056239357E+03 0.  0.
        -24    2    4    4    0    0 -0.33506339567E+03 -0.37396037925E+03  0.48682182027E+03  0.70357886297E+03  0.76901803348E+02 0.  0.
         24    2    4    4    0    0  0.10654849151E+03  0.36133901361E+03  0.75881797779E+03  0.85045121767E+03  0.74458622170E+02 0.  0.
         13    1    3    3    0    0  0.11847722715E+03  0.40442934966E+02  0.33533220066E+03  0.35793877849E+03  0.00000000000E+00 0. -1.
        -13    1    3    3    0    0  0.11003767700E+03 -0.27821569316E+02  0.17160128522E+03  0.20574093217E+03  0.00000000000E+00 0.  1.
          4    1    6    6  502    0  0.93493060561E+02  0.19690844717E+03  0.46327222827E+03  0.51199125620E+03  0.00000000000E+00 0. -1.
          1    1    5    5  503    0 -0.31026395218E+03 -0.36307806652E+03  0.47636969672E+03  0.67454984276E+03  0.00000000000E+00 0. -1.
         -2    1    5    5    0  503 -0.24799443489E+02 -0.10882312736E+02  0.10452123548E+02  0.29029020212E+02  0.00000000000E+00 0.  1.
         -3    1    6    6    0  502  0.13055430951E+02  0.16443056644E+03  0.29554574953E+03  0.33845996147E+03  0.00000000000E+00 0.  1.
<mgrwt>
<rscale>  0 0.11887732E+04</rscale>
<asrwt>0</asrwt>
<pdfrwt beam="1">  1        2 0.29771407E+00 0.11887732E+04</pdfrwt>
<pdfrwt beam="2">  1       -2 0.28087425E-01 0.11887732E+04</pdfrwt>
<totfact> 0.83168261E+01</totfact>
</mgrwt>
</event>
<event>
12    1  0.1960998E-007  0.2127649E+04  0.7818608E-02  0.8549160E-01
          1   -1    0    0  501    0  0.00000000000E+00  0.00000000000E+00  0.12325741889E+04  0.12325741889E+04  0.00000000000E+00 0. -1.
         -1   -1    0    0    0  501 -0.00000000000E+00 -0.00000000000E+00 -0.91817847223E+03  0.91817847223E+03  0.00000000000E+00 0.  1.
         23    2    1    2    0    0  0.56840522307E+02 -0.77962579494E+03 -0.25905095060E+03  0.82871371575E+03  0.92799798172E+02 0.  0.
        254    2    1    2    0    0 -0.56840522307E+02  0.77962579494E+03  0.57344666725E+03  0.13220389454E+04  0.89883183509E+03 0.  0.
        -24    2    4    4    0    0 -0.45753792976E+03  0.33931155984E+03  0.38669432899E+03  0.69305070967E+03  0.79457474740E+02 0.  0.
         24    2    4    4    0    0  0.40069740745E+03  0.44031423510E+03  0.18675233825E+03  0.62898823569E+03  0.79465255465E+02 0.  0.
         13    1    3    3    0    0  0.55613357324E+02 -0.72560515573E+03 -0.26471420671E+03  0.77438317310E+03  0.00000000000E+00 0.  1.
        -13    1    3    3    0    0  0.12271649832E+01 -0.54020639209E+02  0.56632561163E+01  0.54330542647E+02  0.00000000000E+00 0. -1.
          4    1    6    6  502    0  0.23594546162E+03  0.30625423590E+03  0.14246115891E+03  0.41201589734E+03  0.00000000000E+00 0. -1.
          1    1    5    5  503    0 -0.24118834140E+03  0.14183456230E+03  0.15723714946E+03  0.32095541787E+03  0.00000000000E+00 0. -1.
         -2    1    5    5    0  503 -0.21634958836E+03  0.19747699754E+03  0.22945717954E+03  0.37209529180E+03  0.00000000000E+00 0.  1.
         -3    1    6    6    0  502  0.16475194584E+03  0.13405999920E+03  0.44291179344E+02  0.21697233835E+03  0.00000000000E+00 0.  1.
<mgrwt>
<rscale>  0 0.21276495E+04</rscale>
<asrwt>0</asrwt>
<pdfrwt beam="1">  1        1 0.18962680E+00 0.21276495E+04</pdfrwt>
<pdfrwt beam="2">  1       -1 0.14125823E+00 0.21276495E+04</pdfrwt>
<totfact> 0.38006549E+00</totfact>
</mgrwt>
</event>
<event>
12    1  0.1960998E-007  0.1591193E+04  0.7818608E-02  0.8825977E-01
          1   -1    0    0  501    0  0.00000000000E+00  0.00000000000E+00  0.19221137507E+04  0.19221137507E+04  0.00000000000E+00 0. -1.
         -1   -1    0    0    0  501 -0.00000000000E+00 -0.00000000000E+00 -0.32931127304E+03  0.32931127304E+03  0.00000000000E+00 0.  1.
         23    2    1    2    0    0 -0.31083289836E+03  0.44386114178E+03  0.58191913396E+03  0.80051511512E+03  0.92546027416E+02 0.  0.
        254    2    1    2    0    0  0.31083289836E+03 -0.44386114178E+03  0.10108833437E+04  0.14509099086E+04  0.88860825140E+03 0.  0.
        -24    2    4    4    0    0  0.39715518817E+03 -0.27680829363E+02  0.65671771999E+02  0.41151163371E+03  0.80811949828E+02 0.  0.
         24    2    4    4    0    0 -0.86322289813E+02 -0.41618031242E+03  0.94521157170E+03  0.10393982749E+04  0.79159765198E+02 0.  0.
         11    1    3    3    0    0 -0.25902809433E+03  0.31215358049E+03  0.46395077950E+03  0.61626758576E+03  0.00000000000E+00 0. -1.
        -11    1    3    3    0    0 -0.51804804033E+02  0.13170756129E+03  0.11796835446E+03  0.18424752936E+03  0.00000000000E+00 0.  1.
          2    1    6    6  502    0 -0.52557379306E+02 -0.32116380480E+03  0.64049636996E+03  0.71843167216E+03  0.00000000000E+00 0. -1.
          1    1    5    5  503    0  0.36305724890E+03 -0.14878813279E+01  0.54919094055E+02  0.36719053183E+03  0.00000000000E+00 0. -1.
         -2    1    5    5    0  503  0.34097939270E+02 -0.26192948035E+02  0.10752677944E+02  0.44321101884E+02  0.00000000000E+00 0.  1.
         -1    1    6    6    0  502 -0.33764910506E+02 -0.95016507616E+02  0.30471520175E+03  0.32096660274E+03  0.00000000000E+00 0.  1.
<mgrwt>
<rscale>  0 0.15911929E+04</rscale>
<asrwt>0</asrwt>
<pdfrwt beam="1">  1        1 0.29570980E+00 0.15911929E+04</pdfrwt>
<pdfrwt beam="2">  1       -1 0.50663274E-01 0.15911929E+04</pdfrwt>
<totfact> 0.12653752E+01</totfact>
</mgrwt>
</event>
<event>
12    1  0.1960998E-007  0.1320998E+04  0.7818608E-02  0.9013077E-01
         -2   -1    0    0    0  501 -0.00000000000E+00  0.00000000000E+00  0.21418833717E+03  0.21418833717E+03  0.00000000000E+00 0. -1.
          2   -1    0    0  501    0  0.00000000000E+00 -0.00000000000E+00 -0.20367999072E+04  0.20367999072E+04  0.00000000000E+00 0.  1.
         23    2    1    2    0    0 -0.17803765076E+02  0.24119424385E+03 -0.91009785547E+03  0.94698651654E+03  0.10006856970E+03 0.  0.
        254    2    1    2    0    0  0.17803765076E+02 -0.24119424385E+03 -0.91251371458E+03  0.13040017279E+04  0.89958189714E+03 0.  0.
        -24    2    4    4    0    0  0.28472405583E+03  0.12077012267E+03 -0.75710963111E+03  0.82194446457E+03  0.82003041532E+02 0.  0.
         24    2    4    4    0    0 -0.26692029075E+03 -0.36196436652E+03 -0.15540408348E+03  0.48205726330E+03  0.77227790936E+02 0.  0.
         13    1    3    3    0    0  0.84940899823E+01  0.41295296589E+02 -0.60162144211E+02  0.73463832470E+02  0.00000000000E+00 0. -1.
        -13    1    3    3    0    0 -0.26297855059E+02  0.19989894726E+03 -0.84993571126E+03  0.87352268407E+03  0.00000000000E+00 0.  1.
          2    1    6    6  502    0 -0.59116587837E+02 -0.42044101008E+02 -0.43117378614E+02  0.84389488241E+02  0.00000000000E+00 0. -1.
          3    1    5    5  503    0  0.99914613072E+02  0.44536512622E+02 -0.17412824518E+03  0.20563821783E+03  0.00000000000E+00 0. -1.
         -4    1    5    5    0  503  0.18480944276E+03  0.76233610048E+02 -0.58298138593E+03  0.61630624674E+03  0.00000000000E+00 0.  1.
         -1    1    6    6    0  502 -0.20780370291E+03 -0.31992026552E+03 -0.11228670486E+03  0.39766777506E+03  0.00000000000E+00 0.  1.
<mgrwt>
<rscale>  0 0.13209978E+04</rscale>
<asrwt>0</asrwt>
<pdfrwt beam="1">  1        2 0.31335385E+00 0.13209978E+04</pdfrwt>
<pdfrwt beam="2">  1       -2 0.32952050E-01 0.13209978E+04</pdfrwt>
<totfact> 0.53660814E+01</totfact>
</mgrwt>
</event>
<event>
12    1  0.1960998E-007  0.1249446E+04  0.7818608E-02  0.9070644E-01
          1   -1    0    0  501    0  0.00000000000E+00  0.00000000000E+00  0.74693240440E+03  0.74693240440E+03  0.00000000000E+00 0. -1.
         -1   -1    0    0    0  501 -0.00000000000E+00 -0.00000000000E+00 -0.52250897835E+03  0.52250897835E+03  0.00000000000E+00 0.  1.
         23    2    1    2    0    0  0.44850804989E+02  0.19518354982E+03 -0.15913711514E+03  0.27202582974E+03  0.92548461926E+02 0.  0.
        254    2    1    2    0    0 -0.44850804989E+02 -0.19518354982E+03  0.38356054118E+03  0.99741555301E+03  0.89867173306E+03 0.  0.
        -24    2    4    4    0    0 -0.31358030274E+03 -0.44196949211E+03  0.21784897891E+03  0.58991058974E+03  0.82865481698E+02 0.  0.
         24    2    4    4    0    0  0.26872949775E+03  0.24678594229E+03  0.16571156227E+03  0.40750496327E+03  0.74034646932E+02 0.  0.
         11    1    3    3    0    0  0.13599572943E+02  0.54851846287E+02  0.13900189131E+01  0.56529687580E+02  0.00000000000E+00 0. -1.
        -11    1    3    3    0    0  0.31251232046E+02  0.14033170353E+03 -0.16052713405E+03  0.21549614216E+03  0.00000000000E+00 0.  1.
          2    1    6    6  502    0  0.23680832357E+03  0.20959731978E+03  0.16865969489E+03  0.35840662836E+03  0.00000000000E+00 0. -1.
          1    1    5    5  503    0 -0.20287074205E+03 -0.32211277950E+03  0.11766393467E+03  0.39844445312E+03  0.00000000000E+00 0. -1.
         -2    1    5    5    0  503 -0.11070956069E+03 -0.11985671261E+03  0.10018504424E+03  0.19146613663E+03  0.00000000000E+00 0.  1.
         -1    1    6    6    0  502  0.31921174174E+02  0.37188622509E+02 -0.29481326175E+01  0.49098334907E+02  0.00000000000E+00 0.  1.
<mgrwt>
<rscale>  0 0.12494461E+04</rscale>
<asrwt>0</asrwt>
<pdfrwt beam="1">  1        1 0.11491268E+00 0.12494461E+04</pdfrwt>
<pdfrwt beam="2">  1       -1 0.80385997E-01 0.12494461E+04</pdfrwt>
<totfact> 0.37550036E+01</totfact>
</mgrwt>
</event>
<event>
12    1  0.1960998E-007  0.1322192E+04  0.7818608E-02  0.9012150E-01
         -2   -1    0    0    0  501 -0.00000000000E+00  0.00000000000E+00  0.11743764420E+04  0.11743764420E+04  0.00000000000E+00 0.  1.
          2   -1    0    0  501    0  0.00000000000E+00 -0.00000000000E+00 -0.37215300168E+03  0.37215300168E+03  0.00000000000E+00 0. -1.
         23    2    1    2    0    0 -0.32837466551E+03 -0.10494607370E+03  0.25097661992E+03  0.43615961397E+03  0.91664310254E+02 0.  0.
        254    2    1    2    0    0  0.32837466551E+03  0.10494607370E+03  0.55124682040E+03  0.11103698297E+04  0.90011360528E+03 0.  0.
        -24    2    4    4    0    0 -0.21551151912E+03 -0.56559217592E+02  0.47720146422E+03  0.53259624159E+03  0.79330694765E+02 0.  0.
         24    2    4    4    0    0  0.54388618463E+03  0.16150529129E+03  0.74045356184E+02  0.57777358813E+03  0.80271186745E+02 0.  0.
         11    1    3    3    0    0 -0.17419706268E+03 -0.78134893381E+01  0.11708179754E+03  0.21003288927E+03  0.00000000000E+00 0. -1.
        -11    1    3    3    0    0 -0.15417760283E+03 -0.97132584362E+02  0.13389482238E+03  0.22612672470E+03  0.00000000000E+00 0.  1.
          2    1    6    6  502    0  0.73339329312E+02  0.48214663154E+02 -0.22872565971E+01  0.87798305848E+02  0.00000000000E+00 0. -1.
          1    1    5    5  503    0 -0.10705894088E+02 -0.27508280297E+02  0.65801595403E+02  0.72119148710E+02  0.00000000000E+00 0. -1.
         -2    1    5    5    0  503 -0.20480562503E+03 -0.29050937296E+02  0.41139986882E+03  0.46047709288E+03  0.00000000000E+00 0.  1.
         -1    1    6    6    0  502  0.47054685532E+03  0.11329062814E+03  0.76332612781E+02  0.48997528228E+03  0.00000000000E+00 0.  1.
<mgrwt>
<rscale>  0 0.13221917E+04</rscale>
<asrwt>0</asrwt>
<pdfrwt beam="1">  1        2 0.57254308E-01 0.13221917E+04</pdfrwt>
<pdfrwt beam="2">  1       -2 0.18067330E+00 0.13221917E+04</pdfrwt>
<totfact> 0.15125997E+01</totfact>
</mgrwt>
</event>
<event>
12    1  0.1960998E-007  0.2121968E+04  0.7818608E-02  0.8551628E-01
          1   -1    0    0  501    0  0.00000000000E+00  0.00000000000E+00  0.32140162310E+04  0.32140162310E+04  0.00000000000E+00 0. -1.
         -1   -1    0    0    0  501 -0.00000000000E+00 -0.00000000000E+00 -0.35024316039E+03  0.35024316039E+03  0.00000000000E+00 0.  1.
         23    2    1    2    0    0 -0.25347162067E+03  0.82896710697E+03  0.11883158688E+04  0.14736902487E+04  0.90741490128E+02 0.  0.
        254    2    1    2    0    0  0.25347162067E+03 -0.82896710697E+03  0.16754572018E+04  0.20905691427E+04  0.90104837746E+03 0.  0.
        -24    2    4    4    0    0  0.24640371985E+02  0.39886328218E+02 -0.77404142210E+02  0.11920723331E+03  0.77594433633E+02 0.  0.
         24    2    4    4    0    0  0.22883124868E+03 -0.86885343518E+03  0.17528613440E+04  0.19713619094E+04  0.80466479739E+02 0.  0.
         11    1    3    3    0    0 -0.84529417056E+02  0.38040601503E+03  0.47683573721E+03  0.61581350984E+03  0.00000000000E+00 0. -1.
        -11    1    3    3    0    0 -0.16894220361E+03  0.44856109194E+03  0.71148013158E+03  0.85787673881E+03  0.00000000000E+00 0.  1.
          4    1    6    6  502    0  0.13811488319E+03 -0.57027574795E+03  0.10626041540E+04  0.12138441983E+04  0.00000000000E+00 0. -1.
          1    1    5    5  503    0  0.46631313547E+02  0.32683824955E+02 -0.25530164430E+02  0.62405938120E+02  0.00000000000E+00 0. -1.
         -4    1    5    5    0  503 -0.21990941562E+02  0.72025032630E+01 -0.51873977780E+02  0.56801295186E+02  0.00000000000E+00 0.  1.
         -3    1    6    6    0  502  0.90716365490E+02 -0.29857768723E+03  0.69025719007E+03  0.75751771116E+03  0.00000000000E+00 0.  1.
<mgrwt>
<rscale>  0 0.21219681E+04</rscale>
<asrwt>0</asrwt>
<pdfrwt beam="1">  1        1 0.49446402E+00 0.21219681E+04</pdfrwt>
<pdfrwt beam="2">  1       -1 0.53883565E-01 0.21219681E+04</pdfrwt>
<totfact> 0.13267404E+00</totfact>
</mgrwt>
</event>
<event>
12    1  0.1960998E-007  0.2486403E+04  0.7818608E-02  0.8407846E-01
         -2   -1    0    0    0  501 -0.00000000000E+00  0.00000000000E+00  0.33050390581E+04  0.33050390581E+04  0.00000000000E+00 0.  1.
          2   -1    0    0  501    0  0.00000000000E+00 -0.00000000000E+00 -0.46763431008E+03  0.46763431008E+03  0.00000000000E+00 0. -1.
         23    2    1    2    0    0  0.79183937482E+03 -0.58404940881E+03  0.18993600424E+04  0.21410085349E+04  0.90695469374E+02 0.  0.
        254    2    1    2    0    0 -0.79183937482E+03  0.58404940881E+03  0.93804470560E+03  0.16316648333E+04  0.90237406387E+03 0.  0.
        -24    2    4    4    0    0 -0.64103372531E+03  0.28730476055E+03  0.84608582786E+02  0.71216479947E+03  0.80943356176E+02 0.  0.
         24    2    4    4    0    0 -0.15080564951E+03  0.29674464825E+03  0.85343612282E+03  0.91950003385E+03  0.79544744166E+02 0.  0.
         13    1    3    3    0    0  0.77645239472E+03 -0.57279653289E+03  0.18833112630E+04  0.21160896726E+04  0.00000000000E+00 0.  1.
        -13    1    3    3    0    0  0.15386980095E+02 -0.11252875923E+02  0.16048779419E+02  0.24918862210E+02  0.00000000000E+00 0. -1.
          2    1    6    6  502    0 -0.68589282636E+02  0.64608708124E+02  0.19656712466E+03  0.21798488332E+03  0.00000000000E+00 0. -1.
          3    1    5    5  503    0 -0.24283880352E+03  0.76912241722E+02  0.47035714091E+01  0.25477107568E+03  0.00000000000E+00 0. -1.
         -4    1    5    5    0  503 -0.39819492179E+03  0.21039251883E+03  0.79905011377E+02  0.45739372379E+03  0.00000000000E+00 0.  1.
         -1    1    6    6    0  502 -0.82216366871E+02  0.23213594013E+03  0.65686899816E+03  0.70151515053E+03  0.00000000000E+00 0.  1.
<mgrwt>
<rscale>  0 0.24864028E+04</rscale>
<asrwt>0</asrwt>
<pdfrwt beam="1">  1        2 0.71943742E-01 0.24864028E+04</pdfrwt>
<pdfrwt beam="2">  1       -2 0.50846753E+00 0.24864028E+04</pdfrwt>
<totfact> 0.86517189E-02</totfact>
</mgrwt>
</event>
<event>
12    1  0.1960998E-007  0.2627937E+04  0.7818608E-02  0.8358773E-01
          1   -1    0    0  501    0  0.00000000000E+00  0.00000000000E+00  0.26877847211E+04  0.26877847211E+04  0.00000000000E+00 0. -1.
         -1   -1    0    0    0  501 -0.00000000000E+00 -0.00000000000E+00 -0.64235524205E+03  0.64235524205E+03  0.00000000000E+00 0.  1.
         23    2    1    2    0    0  0.10979918243E+04  0.20486635234E+03  0.53954050284E+03  0.12436559718E+04  0.89554193010E+02 0.  0.
        254    2    1    2    0    0 -0.10979918243E+04 -0.20486635234E+03  0.15058889762E+04  0.20864839913E+04  0.91550945871E+03 0.  0.
        -24    2    4    4    0    0 -0.51938227325E+03 -0.25105415256E+03  0.13633853292E+04  0.14826487906E+04  0.81496914671E+02 0.  0.
         24    2    4    4    0    0 -0.57860955101E+03  0.46187800216E+02  0.14250364701E+03  0.60383520075E+03  0.85949606432E+02 0.  0.
         13    1    3    3    0    0  0.90805154221E+03  0.16223376711E+03  0.40748496179E+03  0.10084252043E+04  0.00000000000E+00 0. -1.
        -13    1    3    3    0    0  0.18994028206E+03  0.42632585230E+02  0.13205554105E+03  0.23523076753E+03  0.00000000000E+00 0.  1.
          4    1    6    6  502    0 -0.23748164718E+03  0.61465742084E+02  0.58776888570E+02  0.25225045655E+03  0.00000000000E+00 0. -1.
          3    1    5    5  503    0 -0.34189547487E+03 -0.14970318423E+03  0.97018041579E+03  0.10394968005E+04  0.00000000000E+00 0. -1.
         -4    1    5    5    0  503 -0.17748679839E+03 -0.10135096833E+03  0.39320491337E+03  0.44315199004E+03  0.00000000000E+00 0.  1.
         -3    1    6    6    0  502 -0.34112790383E+03 -0.15277941869E+02  0.83726758441E+02  0.35158474421E+03  0.00000000000E+00 0.  1.
<mgrwt>
<rscale>  0 0.26279365E+04</rscale>
<asrwt>0</asrwt>
<pdfrwt beam="1">  1        1 0.41350534E+00 0.26279365E+04</pdfrwt>
<pdfrwt beam="2">  1       -1 0.98823884E-01 0.26279365E+04</pdfrwt>
<totfact> 0.86091648E-01</totfact>
</mgrwt>
</event>
<event>
12    1  0.1960998E-007  0.1374222E+04  0.7818608E-02  0.8972692E-01
          1   -1    0    0  501    0  0.00000000000E+00  0.00000000000E+00  0.20647133906E+04  0.20647133906E+04  0.00000000000E+00 0. -1.
         -1   -1    0    0    0  501 -0.00000000000E+00 -0.00000000000E+00 -0.22866214749E+03  0.22866214749E+03  0.00000000000E+00 0.  1.
         23    2    1    2    0    0 -0.20449359117E+03 -0.29177264460E+03  0.28552783244E+03  0.46575812118E+03  0.91954224398E+02 0.  0.
        254    2    1    2    0    0  0.20449359117E+03  0.29177264460E+03  0.15505234107E+04  0.18276174169E+04  0.89950745999E+03 0.  0.
        -24    2    4    4    0    0 -0.10629428198E+03 -0.41147164829E+02 -0.58810832431E+02  0.15311636978E+03  0.83632201503E+02 0.  0.
         24    2    4    4    0    0  0.31078787315E+03  0.33291980943E+03  0.16093342431E+04  0.16745010471E+04  0.81070026457E+02 0.  0.
         11    1    3    3    0    0 -0.97806885480E+02 -0.21091594519E+03  0.15984215919E+03  0.28213691470E+03  0.00000000000E+00 0. -1.
        -11    1    3    3    0    0 -0.10668670569E+03 -0.80856699415E+02  0.12568567326E+03  0.18362120649E+03  0.00000000000E+00 0.  1.
          2    1    6    6  502    0  0.18672904162E+03  0.25424511789E+03  0.11231362231E+04  0.11665947414E+04  0.00000000000E+00 0. -1.
          1    1    5    5  503    0 -0.61399321428E+02 -0.65860124586E+02 -0.34948704904E+02  0.96585944406E+02  0.00000000000E+00 0. -1.
         -2    1    5    5    0  503 -0.44894960552E+02  0.24712959757E+02 -0.23862127526E+02  0.56530425374E+02  0.00000000000E+00 0.  1.
         -1    1    6    6    0  502  0.12405883152E+03  0.78674691534E+02  0.48619801998E+03  0.50790630573E+03  0.00000000000E+00 0.  1.
<mgrwt>
<rscale>  0 0.13742224E+04</rscale>
<asrwt>0</asrwt>
<pdfrwt beam="1">  1        1 0.31764820E+00 0.13742224E+04</pdfrwt>
<pdfrwt beam="2">  1       -1 0.35178793E-01 0.13742224E+04</pdfrwt>
<totfact> 0.20257740E+01</totfact>
</mgrwt>
</event>
<event>
12    1  0.1960998E-007  0.5039040E+04  0.7818608E-02  0.7822513E-01
         -2   -1    0    0    0  501 -0.00000000000E+00  0.00000000000E+00  0.21060684302E+04  0.21060684302E+04  0.00000000000E+00 0.  1.
          2   -1    0    0  501    0  0.00000000000E+00 -0.00000000000E+00 -0.30141382569E+04  0.30141382569E+04  0.00000000000E+00 0. -1.
         23    2    1    2    0    0 -0.64164141451E+03 -0.16239506654E+04 -0.21692681614E+04  0.27858766899E+04  0.80405887930E+02 0.  0.
        254    2    1    2    0    0  0.64164141451E+03  0.16239506654E+04  0.12611983347E+04  0.23343299972E+04  0.89975320401E+03 0.  0.
        -24    2    4    4    0    0  0.67471688459E+03  0.13913566882E+04  0.65862745042E+03  0.16826353229E+04  0.79719527561E+02 0.  0.
         24    2    4    4    0    0 -0.33075470082E+02  0.23259397713E+03  0.60257088428E+03  0.65169467435E+03  0.80126980925E+02 0.  0.
         13    1    3    3    0    0 -0.49088370217E+03 -0.11982657254E+04 -0.16573059945E+04  0.21032048681E+04  0.00000000000E+00 0. -1.
        -13    1    3    3    0    0 -0.15075771234E+03 -0.42568493996E+03 -0.51196216693E+03  0.68267182182E+03  0.00000000000E+00 0.  1.
          2    1    6    6  502    0 -0.42068113142E+02  0.21692982802E+03  0.48785852521E+03  0.53556905908E+03  0.00000000000E+00 0. -1.
          3    1    5    5  503    0  0.41215128871E+03  0.79773412368E+03  0.34731939388E+03  0.96274564565E+03  0.00000000000E+00 0. -1.
         -4    1    5    5    0  503  0.26256559589E+03  0.59362256456E+03  0.31130805654E+03  0.71988967722E+03  0.00000000000E+00 0.  1.
         -1    1    6    6    0  502  0.89926430598E+01  0.15664149105E+02  0.11471235907E+03  0.11612561526E+03  0.00000000000E+00 0.  1.
<mgrwt>
<rscale>  0 0.50390402E+04</rscale>
<asrwt>0</asrwt>
<pdfrwt beam="1">  1        2 0.46371358E+00 0.50390402E+04</pdfrwt>
<pdfrwt beam="2">  1       -2 0.32401053E+00 0.50390402E+04</pdfrwt>
<totfact> 0.27984474E-02</totfact>
</mgrwt>
</event>
<event>
12    1  0.1960998E-007  0.2133966E+04  0.7818608E-02  0.8546427E-01
         -2   -1    0    0    0  501 -0.00000000000E+00  0.00000000000E+00  0.51922210426E+03  0.51922210426E+03  0.00000000000E+00 0.  1.
          2   -1    0    0  501    0  0.00000000000E+00 -0.00000000000E+00 -0.21926113898E+04  0.21926113898E+04  0.00000000000E+00 0. -1.
         23    2    1    2    0    0 -0.75075133094E+03 -0.33801342347E+03 -0.10631204152E+04  0.13477932969E+04  0.91875560883E+02 0.  0.
        254    2    1    2    0    0  0.75075133094E+03  0.33801342347E+03 -0.61026887034E+03  0.13640401971E+04  0.90016494593E+03 0.  0.
        -24    2    4    4    0    0  0.99870682564E+02  0.50583478317E+02 -0.63315258280E+03  0.64781094654E+03  0.79018908107E+02 0.  0.
         24    2    4    4    0    0  0.65088064838E+03  0.28742994515E+03  0.22883712455E+02  0.71622925057E+03  0.78734257332E+02 0.  0.
         11    1    3    3    0    0 -0.16453833951E+03 -0.82046594239E+02 -0.17956918320E+03  0.25700116799E+03  0.00000000000E+00 0.  1.
        -11    1    3    3    0    0 -0.58621299143E+03 -0.25596682923E+03 -0.88355123196E+03  0.10907921289E+04  0.00000000000E+00 0. -1.
          4    1    6    6  502    0  0.43816852451E+02  0.43142392551E+02  0.18340920016E+01  0.61518667794E+02  0.00000000000E+00 0. -1.
          3    1    5    5  503    0  0.32466211252E+02  0.13963343869E+02 -0.60679722200E+02  0.70221496219E+02  0.00000000000E+00 0. -1.
         -4    1    5    5    0  503  0.67404471313E+02  0.36620134448E+02 -0.57247286060E+03  0.57758945032E+03  0.00000000000E+00 0.  1.
         -3    1    6    6    0  502  0.60706379593E+03  0.24428755260E+03  0.21049620453E+02  0.65471058278E+03  0.00000000000E+00 0.  1.
<mgrwt>
<rscale>  0 0.21339656E+04</rscale>
<asrwt>0</asrwt>
<pdfrwt beam="1">  1        2 0.33732483E+00 0.21339656E+04</pdfrwt>
<pdfrwt beam="2">  1       -2 0.79880324E-01 0.21339656E+04</pdfrwt>
<totfact> 0.66446646E+00</totfact>
</mgrwt>
</event>
<event>
12    1  0.1960998E-007  0.2756613E+04  0.7818608E-02  0.8316866E-01
         -1   -1    0    0    0  501 -0.00000000000E+00  0.00000000000E+00  0.10372153795E+04  0.10372153795E+04  0.00000000000E+00 0.  1.
          1   -1    0    0  501    0  0.00000000000E+00 -0.00000000000E+00 -0.18315660728E+04  0.18315660728E+04  0.00000000000E+00 0. -1.
         23    2    1    2    0    0  0.56940428739E+03  0.10194450384E+04  0.45992556318E+02  0.11717404826E+04  0.85854612843E+02 0.  0.
        254    2    1    2    0    0 -0.56940428739E+03 -0.10194450384E+04 -0.84034324961E+03  0.16970409698E+04  0.90015656806E+03 0.  0.
        -24    2    4    4    0    0 -0.74691903654E+03 -0.77884302499E+03 -0.38851827662E+03  0.11497396990E+04  0.80438917040E+02 0.  0.
         24    2    4    4    0    0  0.17751474915E+03 -0.24060201342E+03 -0.45182497298E+03  0.54730127079E+03  0.77408395987E+02 0.  0.
         13    1    3    3    0    0  0.35567159293E+03  0.68294568435E+03  0.64219780202E+02  0.77268445692E+03  0.00000000000E+00 0.  1.
        -13    1    3    3    0    0  0.21373269446E+03  0.33649935406E+03 -0.18227223884E+02  0.39905602571E+03  0.00000000000E+00 0. -1.
          4    1    6    6  502    0  0.14338793909E+03 -0.23240435532E+03 -0.41117765597E+03  0.49359796415E+03  0.00000000000E+00 0. -1.
          1    1    5    5  503    0 -0.65266324643E+03 -0.70754252174E+03 -0.36346267937E+03  0.10289270395E+04  0.00000000000E+00 0. -1.
         -2    1    5    5    0  503 -0.94255790116E+02 -0.71300503252E+02 -0.25055597249E+02  0.12081265947E+03  0.00000000000E+00 0.  1.
         -3    1    6    6    0  502  0.34126810062E+02 -0.81976581006E+01 -0.40647317016E+02  0.53703306639E+02  0.00000000000E+00 0.  1.
<mgrwt>
<rscale>  0 0.27566128E+04</rscale>
<asrwt>0</asrwt>
<pdfrwt beam="1">  1        1 0.28177939E+00 0.27566128E+04</pdfrwt>
<pdfrwt beam="2">  1       -1 0.15957160E+00 0.27566128E+04</pdfrwt>
<totfact> 0.99206180E-01</totfact>
</mgrwt>
</event>
<event>
12    1  0.1960998E-007  0.1374748E+04  0.7818608E-02  0.8972303E-01
          1   -1    0    0  501    0  0.00000000000E+00  0.00000000000E+00  0.86208289605E+03  0.86208289605E+03  0.00000000000E+00 0. -1.
         -1   -1    0    0    0  501 -0.00000000000E+00 -0.00000000000E+00 -0.54807124635E+03  0.54807124635E+03  0.00000000000E+00 0.  1.
         23    2    1    2    0    0  0.11653244029E+02  0.22136663823E+03 -0.23259029543E+03  0.33419256446E+03  0.91909945030E+02 0.  0.
        254    2    1    2    0    0 -0.11653244029E+02 -0.22136663823E+03  0.54660194512E+03  0.10759615779E+04  0.89987812741E+03 0.  0.
        -24    2    4    4    0    0 -0.16819154558E+03 -0.51402906261E+03  0.48050098729E+03  0.72792160683E+03  0.80463617240E+02 0.  0.
         24    2    4    4    0    0  0.15653830155E+03  0.29266242438E+03  0.66100957833E+02  0.34803997111E+03  0.81283149378E+02 0.  0.
         13    1    3    3    0    0  0.26693343612E+02  0.13320082153E+03 -0.80944187096E+02  0.15813587472E+03  0.00000000000E+00 0. -1.
        -13    1    3    3    0    0 -0.15040099583E+02  0.88165816703E+02 -0.15164610833E+03  0.17605668974E+03  0.00000000000E+00 0.  1.
          2    1    6    6  502    0  0.25674966586E+02  0.67125439916E+02 -0.17948783693E+02  0.74075552169E+02  0.00000000000E+00 0. -1.
          3    1    5    5  503    0 -0.13281200359E+03 -0.35921259979E+03  0.38268838150E+03  0.54140845715E+03  0.00000000000E+00 0. -1.
         -4    1    5    5    0  503 -0.35379541982E+02 -0.15481646282E+03  0.97812605788E+02  0.18651314968E+03  0.00000000000E+00 0.  1.
         -1    1    6    6    0  502  0.13086333496E+03  0.22553698446E+03  0.84049741526E+02  0.27396441894E+03  0.00000000000E+00 0.  1.
<mgrwt>
<rscale>  0 0.13747478E+04</rscale>
<asrwt>0</asrwt>
<pdfrwt beam="1">  1        1 0.13262814E+00 0.13747478E+04</pdfrwt>
<pdfrwt beam="2">  1       -1 0.84318653E-01 0.13747478E+04</pdfrwt>
<totfact> 0.26638697E+01</totfact>
</mgrwt>
</event>
<event>
12    1  0.1960998E-007  0.3226747E+04  0.7818608E-02  0.8181789E-01
          1   -1    0    0  501    0  0.00000000000E+00  0.00000000000E+00  0.11323820659E+04  0.11323820659E+04  0.00000000000E+00 0. -1.
         -1   -1    0    0    0  501 -0.00000000000E+00 -0.00000000000E+00 -0.22986716621E+04  0.22986716621E+04  0.00000000000E+00 0.  1.
         23    2    1    2    0    0 -0.81382721231E+03 -0.86859995097E+03  0.40730590218E+03  0.12612820340E+04  0.90297646712E+02 0.  0.
        254    2    1    2    0    0  0.81382721231E+03  0.86859995097E+03 -0.15735954984E+04  0.21697716941E+04  0.90273241077E+03 0.  0.
        -24    2    4    4    0    0  0.76213157283E+03  0.98211544545E+03 -0.10602609677E+04  0.16357131824E+04  0.77517824259E+02 0.  0.
         24    2    4    4    0    0  0.51695639476E+02 -0.11351549448E+03 -0.51333453073E+03  0.53405851165E+03  0.78408843861E+02 0.  0.
         11    1    3    3    0    0 -0.11253277673E+03 -0.15970968494E+03  0.46342891590E+02  0.20079460377E+03  0.00000000000E+00 0.  1.
        -11    1    3    3    0    0 -0.70129443558E+03 -0.70889026603E+03  0.36096301059E+03  0.10604874302E+04  0.00000000000E+00 0. -1.
          2    1    6    6  502    0 -0.17779089996E+02 -0.36535035570E+02 -0.10056174687E+03  0.10845999170E+03  0.00000000000E+00 0. -1.
          3    1    5    5  503    0  0.27721342354E+03  0.31512385834E+03 -0.39211736864E+03  0.57437475491E+03  0.00000000000E+00 0. -1.
         -4    1    5    5    0  503  0.48491814929E+03  0.66699158711E+03 -0.66814359902E+03  0.10613384275E+04  0.00000000000E+00 0.  1.
         -1    1    6    6    0  502  0.69474729472E+02 -0.76980458905E+02 -0.41277278386E+03  0.42559851995E+03  0.00000000000E+00 0.  1.
<mgrwt>
<rscale>  0 0.32267473E+04</rscale>
<asrwt>0</asrwt>
<pdfrwt beam="1">  1        1 0.17421263E+00 0.32267473E+04</pdfrwt>
<pdfrwt beam="2">  1       -1 0.35364179E+00 0.32267473E+04</pdfrwt>
<totfact> 0.14701213E-01</totfact>
</mgrwt>
</event>
<event>
12    1  0.1960998E-007  0.1999765E+04  0.7818608E-02  0.8606731E-01
          2   -1    0    0  501    0  0.00000000000E+00  0.00000000000E+00  0.13315156053E+04  0.13315156053E+04  0.00000000000E+00 0. -1.
         -2   -1    0    0    0  501 -0.00000000000E+00 -0.00000000000E+00 -0.75084718991E+03  0.75084718991E+03  0.00000000000E+00 0.  1.
         23    2    1    2    0    0  0.66498129735E+03 -0.43434594196E+03  0.21094887760E+03  0.82711331829E+03  0.93597485082E+02 0.  0.
        254    2    1    2    0    0 -0.66498129735E+03  0.43434594196E+03  0.36971953775E+03  0.12552494769E+04  0.89894504254E+03 0.  0.
        -24    2    4    4    0    0 -0.84620896579E+03  0.49325215585E+03  0.36408841777E+03  0.10479738587E+04  0.79508047138E+02 0.  0.
         24    2    4    4    0    0  0.18122766844E+03 -0.58906213892E+02  0.56311199816E+01  0.20727561817E+03  0.81351475292E+02 0.  0.
         13    1    3    3    0    0  0.57165492812E+03 -0.38459514695E+03  0.21354917133E+03  0.72132241923E+03  0.00000000000E+00 0. -1.
        -13    1    3    3    0    0  0.93326369224E+02 -0.49750795004E+02 -0.26002937330E+01  0.10579089906E+03  0.00000000000E+00 0.  1.
          2    1    6    6  502    0  0.11485281685E+03 -0.30090940279E+02  0.42446623739E+02  0.12608865965E+03  0.00000000000E+00 0. -1.
          3    1    5    5  503    0 -0.13046039790E+03  0.10759028733E+03  0.49530962384E+02  0.17620698506E+03  0.00000000000E+00 0. -1.
         -4    1    5    5    0  503 -0.71574856789E+03  0.38566186852E+03  0.31455745538E+03  0.87176687365E+03  0.00000000000E+00 0.  1.
         -1    1    6    6    0  502  0.66374851591E+02 -0.28815273613E+02 -0.36815503757E+02  0.81186958522E+02  0.00000000000E+00 0.  1.
<mgrwt>
<rscale>  0 0.19997647E+04</rscale>
<asrwt>0</asrwt>
<pdfrwt beam="1">  1        2 0.20484855E+00 0.19997647E+04</pdfrwt>
<pdfrwt beam="2">  1       -2 0.11551495E+00 0.19997647E+04</pdfrwt>
<totfact> 0.85890898E+00</totfact>
</mgrwt>
</event>
<event>
12    1  0.1960998E-007  0.1320426E+04  0.7818608E-02  0.9013522E-01
          2   -1    0    0  501    0  0.00000000000E+00  0.00000000000E+00  0.27550481760E+03  0.27550481760E+03  0.00000000000E+00 0. -1.
         -2   -1    0    0    0  501 -0.00000000000E+00 -0.00000000000E+00 -0.15821186620E+04  0.15821186620E+04  0.00000000000E+00 0.  1.
         23    2    1    2    0    0 -0.33941861252E+03 -0.50307693603E+02 -0.29868987427E+03  0.46373455855E+03  0.89990228560E+02 0.  0.
        254    2    1    2    0    0  0.33941861252E+03  0.50307693603E+02 -0.10079239702E+04  0.13938889211E+04  0.89959976442E+03 0.  0.
        -24    2    4    4    0    0  0.54494956466E+01  0.33314407535E+03 -0.62993355450E+02  0.34962321236E+03  0.85167809918E+02 0.  0.
         24    2    4    4    0    0  0.33396911688E+03 -0.28283638175E+03 -0.94493061472E+03  0.10442657087E+04  0.77879483401E+02 0.  0.
         11    1    3    3    0    0 -0.13026403976E+03 -0.11006810905E+02 -0.17208080985E+03  0.21610570344E+03  0.00000000000E+00 0. -1.
        -11    1    3    3    0    0 -0.20915457276E+03 -0.39300882698E+02 -0.12660906442E+03  0.24762885511E+03  0.00000000000E+00 0.  1.
          2    1    6    6  502    0  0.91897181216E+02 -0.77355708479E+02 -0.34785509209E+03  0.36801109038E+03  0.00000000000E+00 0. -1.
          3    1    5    5  503    0 -0.17296658570E+02  0.10082223198E+02 -0.45365021935E+01  0.20528162959E+02  0.00000000000E+00 0. -1.
         -4    1    5    5    0  503  0.22746154217E+02  0.32306185215E+03 -0.58456853256E+02  0.32909504940E+03  0.00000000000E+00 0.  1.
         -1    1    6    6    0  502  0.24207193566E+03 -0.20548067327E+03 -0.59707552264E+03  0.67625461836E+03  0.00000000000E+00 0.  1.
<mgrwt>
<rscale>  0 0.13204262E+04</rscale>
<asrwt>0</asrwt>
<pdfrwt beam="1">  1        2 0.42385356E-01 0.13204262E+04</pdfrwt>
<pdfrwt beam="2">  1       -2 0.24340287E+00 0.13204262E+04</pdfrwt>
<totfact> 0.83499929E+00</totfact>
</mgrwt>
</event>
<event>
12    1  0.1960998E-007  0.2248974E+04  0.7818608E-02  0.8498316E-01
          1   -1    0    0  501    0  0.00000000000E+00  0.00000000000E+00  0.13092067389E+04  0.13092067389E+04  0.00000000000E+00 0. -1.
         -1   -1    0    0    0  501 -0.00000000000E+00 -0.00000000000E+00 -0.96582963414E+03  0.96582963414E+03  0.00000000000E+00 0.  1.
         23    2    1    2    0    0  0.66164208749E+03  0.43336369778E+03 -0.37085583925E+03  0.87826835333E+03  0.90812446679E+02 0.  0.
        254    2    1    2    0    0 -0.66164208749E+03 -0.43336369778E+03  0.71423294401E+03  0.13967680197E+04  0.90291630625E+03 0.  0.
        -24    2    4    4    0    0  0.64346758598E+02 -0.43546277424E+03  0.40579563847E+03  0.60407553330E+03  0.80428954014E+02 0.  0.
         24    2    4    4    0    0 -0.72598884609E+03  0.20990764596E+01  0.30843730554E+03  0.79269248641E+03  0.78508571471E+02 0.  0.
         13    1    3    3    0    0  0.44441543479E+03  0.24450796045E+03 -0.25811775757E+03  0.56913442891E+03  0.00000000000E+00 0.  1.
        -13    1    3    3    0    0  0.21722665270E+03  0.18885573734E+03 -0.11273808167E+03  0.30913392442E+03  0.00000000000E+00 0. -1.
          2    1    6    6  502    0 -0.47616052566E+02 -0.19630334212E+02  0.21751732091E+02  0.55908642732E+02  0.00000000000E+00 0. -1.
          1    1    5    5  503    0 -0.14863432160E+02 -0.82966737237E+02  0.99698822122E+02  0.13055365271E+03  0.00000000000E+00 0. -1.
         -2    1    5    5    0  503  0.79210190758E+02 -0.35249603700E+03  0.30609681635E+03  0.47352188059E+03  0.00000000000E+00 0.  1.
         -1    1    6    6    0  502 -0.67837279352E+03  0.21729410671E+02  0.28668557345E+03  0.73678384368E+03  0.00000000000E+00 0.  1.
<mgrwt>
<rscale>  0 0.22489737E+04</rscale>
<asrwt>0</asrwt>
<pdfrwt beam="1">  1        1 0.20141642E+00 0.22489737E+04</pdfrwt>
<pdfrwt beam="2">  1       -1 0.14858917E+00 0.22489737E+04</pdfrwt>
<totfact> 0.28951303E+00</totfact>
</mgrwt>
</event>
<event>
12    1  0.1960998E-007  0.1852930E+04  0.7818608E-02  0.8678647E-01
         -1   -1    0    0    0  501 -0.00000000000E+00  0.00000000000E+00  0.84552002999E+03  0.84552002999E+03  0.00000000000E+00 0.  1.
          1   -1    0    0  501    0  0.00000000000E+00 -0.00000000000E+00 -0.10151596035E+04  0.10151596035E+04  0.00000000000E+00 0. -1.
         23    2    1    2    0    0  0.68582432740E+03 -0.11745811311E+03  0.48230835311E+02  0.70358325573E+03  0.92475769204E+02 0.  0.
        254    2    1    2    0    0 -0.68582432740E+03  0.11745811311E+03 -0.21787040878E+03  0.11570963777E+04  0.89847264618E+03 0.  0.
        -24    2    4    4    0    0 -0.33819296866E+03 -0.29693988125E+03  0.16828429096E+03  0.48699793342E+03  0.79370066416E+02 0.  0.
         24    2    4    4    0    0 -0.34763135873E+03  0.41439799436E+03 -0.38615469975E+03  0.67009844430E+03  0.85692552867E+02 0.  0.
         13    1    3    3    0    0  0.68006855085E+03 -0.10489965011E+03  0.47033712918E+02  0.68971685538E+03  0.00000000000E+00 0. -1.
        -13    1    3    3    0    0  0.57557765496E+01 -0.12558463007E+02  0.11971223936E+01  0.13866400355E+02  0.00000000000E+00 0.  1.
          4    1    6    6  502    0 -0.28798563771E+03  0.36211150917E+03 -0.36114705125E+03  0.58693071587E+03  0.00000000000E+00 0. -1.
          1    1    5    5  503    0 -0.33458169724E+03 -0.27880458515E+03  0.17179226199E+03  0.46817677228E+03  0.00000000000E+00 0. -1.
         -2    1    5    5    0  503 -0.36112714279E+01 -0.18135296102E+02 -0.35079710238E+01  0.18821161142E+02  0.00000000000E+00 0.  1.
         -3    1    6    6    0  502 -0.59645721022E+02  0.52286485189E+02 -0.25007648493E+02  0.83167728433E+02  0.00000000000E+00 0.  1.
<mgrwt>
<rscale>  0 0.18529304E+04</rscale>
<asrwt>0</asrwt>
<pdfrwt beam="1">  1        1 0.15617840E+00 0.18529304E+04</pdfrwt>
<pdfrwt beam="2">  1       -1 0.13008000E+00 0.18529304E+04</pdfrwt>
<totfact> 0.70046449E+00</totfact>
</mgrwt>
</event>
<event>
12    1  0.1960998E-007  0.1578790E+04  0.7818608E-02  0.8833685E-01
          1   -1    0    0  501    0  0.00000000000E+00  0.00000000000E+00  0.16211746898E+04  0.16211746898E+04  0.00000000000E+00 0. -1.
         -1   -1    0    0    0  501 -0.00000000000E+00 -0.00000000000E+00 -0.38437856188E+03  0.38437856188E+03  0.00000000000E+00 0.  1.
         23    2    1    2    0    0  0.59789770847E+02 -0.40391398636E+03  0.84207713807E+03  0.94060893401E+03  0.94498334343E+02 0.  0.
        254    2    1    2    0    0 -0.59789770847E+02  0.40391398636E+03  0.39471898980E+03  0.10649443176E+04  0.90087845666E+03 0.  0.
        -24    2    4    4    0    0  0.37694830237E+03  0.38487180835E+03  0.20798003423E+03  0.58280511437E+03  0.78675124219E+02 0.  0.
         24    2    4    4    0    0 -0.43673807322E+03  0.19042178009E+02  0.18673895557E+03  0.48213920327E+03  0.80523441679E+02 0.  0.
         13    1    3    3    0    0  0.19501129386E+02 -0.18767044553E+03  0.28625928233E+03  0.34284816887E+03  0.00000000000E+00 0.  1.
        -13    1    3    3    0    0  0.40288641461E+02 -0.21624354082E+03  0.55581785574E+03  0.59776076514E+03  0.00000000000E+00 0. -1.
          4    1    6    6  502    0 -0.33929366605E+03  0.72105116195E+01  0.17897634281E+03  0.38367266594E+03  0.00000000000E+00 0. -1.
          3    1    5    5  503    0  0.23767130653E+03  0.18816371985E+03  0.10673568585E+03  0.32138099205E+03  0.00000000000E+00 0. -1.
         -4    1    5    5    0  503  0.13927699584E+03  0.19670808850E+03  0.10124434838E+03  0.26142412232E+03  0.00000000000E+00 0.  1.
         -3    1    6    6    0  502 -0.97444407160E+02  0.11831666389E+02  0.77626127588E+01  0.98466537327E+02  0.00000000000E+00 0.  1.
<mgrwt>
<rscale>  0 0.15787904E+04</rscale>
<asrwt>0</asrwt>
<pdfrwt beam="1">  1        1 0.24941149E+00 0.15787904E+04</pdfrwt>
<pdfrwt beam="2">  1       -1 0.59135164E-01 0.15787904E+04</pdfrwt>
<totfact> 0.15034849E+01</totfact>
</mgrwt>
</event>
<event>
12    1  0.1960998E-007  0.3708584E+04  0.7818608E-02  0.8066062E-01
         -2   -1    0    0    0  501 -0.00000000000E+00  0.00000000000E+00  0.83525621879E+03  0.83525621879E+03  0.00000000000E+00 0.  1.
          2   -1    0    0  501    0  0.00000000000E+00 -0.00000000000E+00 -0.41165804757E+04  0.41165804757E+04  0.00000000000E+00 0. -1.
         23    2    1    2    0    0  0.16889721849E+04  0.22468634864E+03 -0.10491949122E+04  0.20030944825E+04  0.92013833983E+02 0.  0.
        254    2    1    2    0    0 -0.16889721849E+04 -0.22468634864E+03 -0.22321293447E+04  0.29487422119E+04  0.89976009271E+03 0.  0.
        -24    2    4    4    0    0 -0.13490927901E+04 -0.42313652616E+03 -0.12552006045E+04  0.18924682092E+04  0.82531746259E+02 0.  0.
         24    2    4    4    0    0 -0.33987939478E+03  0.19845017752E+03 -0.97692874021E+03  0.10562740028E+04  0.80153162961E+02 0.  0.
         11    1    3    3    0    0  0.11071111857E+04  0.10338806734E+03 -0.67746822835E+03  0.13020550950E+04  0.00000000000E+00 0.  1.
        -11    1    3    3    0    0  0.58186099920E+03  0.12129828130E+03 -0.37172668381E+03  0.70103938754E+03  0.00000000000E+00 0. -1.
          2    1    6    6  502    0 -0.22843915114E+03  0.13025452410E+03 -0.74541313478E+03  0.79043749173E+03  0.00000000000E+00 0. -1.
          3    1    5    5  503    0 -0.23477744401E+03 -0.44044044337E+02 -0.19528844618E+03  0.30854157462E+03  0.00000000000E+00 0. -1.
         -4    1    5    5    0  503 -0.11143153461E+04 -0.37909248182E+03 -0.10599121583E+04  0.15839266345E+04  0.00000000000E+00 0.  1.
         -1    1    6    6    0  502 -0.11144024365E+03  0.68195653423E+02 -0.23151560543E+03  0.26583651105E+03  0.00000000000E+00 0.  1.
<mgrwt>
<rscale>  0 0.37085843E+04</rscale>
<asrwt>0</asrwt>
<pdfrwt beam="1">  1        2 0.63332007E+00 0.37085843E+04</pdfrwt>
<pdfrwt beam="2">  1       -2 0.12850096E+00 0.37085843E+04</pdfrwt>
<totfact> 0.98654368E-02</totfact>
</mgrwt>
</event>
<event>
12    1  0.1960998E-007  0.2071784E+04  0.7818608E-02  0.8573776E-01
          1   -1    0    0  501    0  0.00000000000E+00  0.00000000000E+00  0.11772587844E+04  0.11772587844E+04  0.00000000000E+00 0. -1.
         -1   -1    0    0    0  501 -0.00000000000E+00 -0.00000000000E+00 -0.91150059972E+03  0.91150059972E+03  0.00000000000E+00 0.  1.
         23    2    1    2    0    0  0.63304585500E+03  0.50997240957E+03  0.31394946032E+03  0.87619224708E+03  0.91267065040E+02 0.  0.
        254    2    1    2    0    0 -0.63304585500E+03 -0.50997240957E+03 -0.48191275629E+02  0.12125671370E+04  0.89843071505E+03 0.  0.
        -24    2    4    4    0    0  0.96292188612E+02  0.23939929737E+02  0.23057430096E+03  0.26334302032E+03  0.79622435685E+02 0.  0.
         24    2    4    4    0    0 -0.72933804361E+03 -0.53391233930E+03 -0.27876557659E+03  0.94922411672E+03  0.79497227314E+02 0.  0.
         13    1    3    3    0    0  0.27608841681E+03  0.27908969013E+03  0.13847136010E+03  0.41628137912E+03  0.00000000000E+00 0. -1.
        -13    1    3    3    0    0  0.35695743819E+03  0.23088271943E+03  0.17547810022E+03  0.45991086796E+03  0.00000000000E+00 0.  1.
          4    1    6    6  502    0 -0.57344701538E+03 -0.38867646374E+03 -0.18940925893E+03  0.71818294347E+03  0.00000000000E+00 0. -1.
          3    1    5    5  503    0  0.93558847890E+02  0.44044275730E+02  0.16522524241E+03  0.19491674369E+03  0.00000000000E+00 0. -1.
         -4    1    5    5    0  503  0.27333407224E+01 -0.20104345993E+02  0.65349058558E+02  0.68426276632E+02  0.00000000000E+00 0.  1.
         -3    1    6    6    0  502 -0.15589102823E+03 -0.14523587556E+03 -0.89356317660E+02  0.23104117325E+03  0.00000000000E+00 0.  1.
<mgrwt>
<rscale>  0 0.20717839E+04</rscale>
<asrwt>0</asrwt>
<pdfrwt beam="1">  1        1 0.18111674E+00 0.20717839E+04</pdfrwt>
<pdfrwt beam="2">  1       -1 0.14023086E+00 0.20717839E+04</pdfrwt>
<totfact> 0.42731309E+00</totfact>
</mgrwt>
</event>
<event>
12    1  0.1960998E-007  0.1281194E+04  0.7818608E-02  0.9044613E-01
          1   -1    0    0  501    0  0.00000000000E+00  0.00000000000E+00  0.96365601632E+03  0.96365601632E+03  0.00000000000E+00 0. -1.
         -1   -1    0    0    0  501 -0.00000000000E+00 -0.00000000000E+00 -0.42584122916E+03  0.42584122916E+03  0.00000000000E+00 0.  1.
         23    2    1    2    0    0  0.14821697958E+03 -0.22555141669E+03  0.32122799571E+03  0.42900044638E+03  0.89511134285E+02 0.  0.
        254    2    1    2    0    0 -0.14821697958E+03  0.22555141669E+03  0.21658679145E+03  0.96049679909E+03  0.89599249340E+03 0.  0.
        -24    2    4    4    0    0  0.72557238512E+02  0.27910863842E+03 -0.27995234336E+03  0.40960016507E+03  0.78948057429E+02 0.  0.
         24    2    4    4    0    0 -0.22077421809E+03 -0.53557221723E+02  0.49653913481E+03  0.55089663402E+03  0.72981899199E+02 0.  0.
         11    1    3    3    0    0  0.71228066299E+02 -0.84233279918E+02  0.19668761812E+03  0.22550987117E+03  0.00000000000E+00 0. -1.
        -11    1    3    3    0    0  0.76988913278E+02 -0.14131813678E+03  0.12454037759E+03  0.20349057521E+03  0.00000000000E+00 0.  1.
          4    1    6    6  502    0 -0.11635746848E+03  0.44287741400E+01  0.28676118654E+03  0.30950065043E+03  0.00000000000E+00 0. -1.
          3    1    5    5  503    0  0.58973853700E+02  0.81773815800E+02 -0.10431594155E+03  0.14507476704E+03  0.00000000000E+00 0. -1.
         -4    1    5    5    0  503  0.13583384811E+02  0.19733482262E+03 -0.17563640181E+03  0.26452539802E+03  0.00000000000E+00 0.  1.
         -3    1    6    6    0  502 -0.10441674960E+03 -0.57985995863E+02  0.20977794827E+03  0.24139598360E+03  0.00000000000E+00 0.  1.
<mgrwt>
<rscale>  0 0.12811939E+04</rscale>
<asrwt>0</asrwt>
<pdfrwt beam="1">  1        1 0.14825477E+00 0.12811939E+04</pdfrwt>
<pdfrwt beam="2">  1       -1 0.65514035E-01 0.12811939E+04</pdfrwt>
<totfact> 0.37565745E+01</totfact>
</mgrwt>
</event>
<event>
12    1  0.1960998E-007  0.1548211E+04  0.7818608E-02  0.8853011E-01
         -2   -1    0    0    0  501 -0.00000000000E+00  0.00000000000E+00  0.50680133073E+03  0.50680133073E+03  0.00000000000E+00 0.  1.
          2   -1    0    0  501    0  0.00000000000E+00 -0.00000000000E+00 -0.11823944008E+04  0.11823944008E+04  0.00000000000E+00 0. -1.
         23    2    1    2    0    0 -0.18372638022E+03 -0.32350787491E+03  0.15163342918E+03  0.41204408170E+03  0.91514482493E+02 0.  0.
        254    2    1    2    0    0  0.18372638022E+03  0.32350787491E+03 -0.82722649923E+03  0.12771516498E+04  0.89911063148E+03 0.  0.
        -24    2    4    4    0    0 -0.80106529897E+02  0.13399008279E+03  0.15841232917E+03  0.23630969807E+03  0.79858681122E+02 0.  0.
         24    2    4    4    0    0  0.26383291012E+03  0.18951779212E+03 -0.98563882839E+03  0.10408419517E+04  0.79644651122E+02 0.  0.
         11    1    3    3    0    0 -0.12418231564E+03 -0.27455828485E+03  0.14576336541E+03  0.33473938817E+03  0.00000000000E+00 0.  1.
        -11    1    3    3    0    0 -0.59544064580E+02 -0.48949590061E+02  0.58700637702E+01  0.77304693535E+02  0.00000000000E+00 0. -1.
          4    1    6    6  502    0  0.24450287528E+03  0.19608678897E+03 -0.90831092580E+03  0.96086441434E+03  0.00000000000E+00 0. -1.
          3    1    5    5  503    0 -0.79546111245E+02  0.74530102607E+02  0.69265725674E+02  0.12915130956E+03  0.00000000000E+00 0. -1.
         -4    1    5    5    0  503 -0.56041865199E+00  0.59459980185E+02  0.89146603495E+02  0.10715838851E+03  0.00000000000E+00 0.  1.
         -3    1    6    6    0  502  0.19330034839E+02 -0.65689968507E+01 -0.77327902595E+02  0.79977537386E+02  0.00000000000E+00 0.  1.
<mgrwt>
<rscale>  0 0.15482107E+04</rscale>
<asrwt>0</asrwt>
<pdfrwt beam="1">  1        2 0.18190683E+00 0.15482107E+04</pdfrwt>
<pdfrwt beam="2">  1       -2 0.77969437E-01 0.15482107E+04</pdfrwt>
<totfact> 0.27364105E+01</totfact>
</mgrwt>
</event>
<event>
12    1  0.1960998E-007  0.1567667E+04  0.7818608E-02  0.8840661E-01
         -2   -1    0    0    0  501 -0.00000000000E+00  0.00000000000E+00  0.56320138265E+03  0.56320138265E+03  0.00000000000E+00 0.  1.
          2   -1    0    0  501    0  0.00000000000E+00 -0.00000000000E+00 -0.10908975553E+04  0.10908975553E+04  0.00000000000E+00 0. -1.
         23    2    1    2    0    0 -0.90556506592E+02  0.21484265336E+03  0.31271521897E+03  0.40064822530E+03  0.91489593239E+02 0.  0.
        254    2    1    2    0    0  0.90556506592E+02 -0.21484265336E+03 -0.84041139167E+03  0.12534507127E+04  0.90027192298E+03 0.  0.
        -24    2    4    4    0    0  0.40377905516E+03 -0.32824186704E+03 -0.71664157686E+03  0.88924062166E+03  0.79959270019E+02 0.  0.
         24    2    4    4    0    0 -0.31322254857E+03  0.11339921367E+03 -0.12376981482E+03  0.36421009104E+03  0.79763881305E+02 0.  0.
         13    1    3    3    0    0  0.34540878034E+01  0.99368166944E+02  0.15125284229E+03  0.18100659001E+03  0.00000000000E+00 0.  1.
        -13    1    3    3    0    0 -0.94010594395E+02  0.11547448642E+03  0.16146237668E+03  0.21964163530E+03  0.00000000000E+00 0. -1.
          2    1    6    6  502    0 -0.23842959253E+03  0.10864132367E+03 -0.67719048627E+02  0.27062423644E+03  0.00000000000E+00 0. -1.
          1    1    5    5  503    0  0.18291092018E+03 -0.15619897169E+03 -0.39839960834E+03  0.46537809510E+03  0.00000000000E+00 0. -1.
         -2    1    5    5    0  503  0.22086813498E+03 -0.17204289535E+03 -0.31824196852E+03  0.42386252656E+03  0.00000000000E+00 0.  1.
         -3    1    6    6    0  502 -0.74792956033E+02  0.47578900062E+01 -0.56050766189E+02  0.93585854593E+02  0.00000000000E+00 0.  1.
<mgrwt>
<rscale>  0 0.15676671E+04</rscale>
<asrwt>0</asrwt>
<pdfrwt beam="1">  1        2 0.16783039E+00 0.15676671E+04</pdfrwt>
<pdfrwt beam="2">  1       -2 0.86646368E-01 0.15676671E+04</pdfrwt>
<totfact> 0.24472497E+01</totfact>
</mgrwt>
</event>
<event>
12    1  0.1960998E-007  0.2550928E+04  0.7818608E-02  0.8385064E-01
         -2   -1    0    0    0  501 -0.00000000000E+00  0.00000000000E+00  0.11800777955E+04  0.11800777955E+04  0.00000000000E+00 0.  1.
          2   -1    0    0  501    0  0.00000000000E+00 -0.00000000000E+00 -0.13785598427E+04  0.13785598427E+04  0.00000000000E+00 0. -1.
         23    2    1    2    0    0 -0.52241205280E+03  0.72911681231E+03  0.57667578466E+03  0.10702549861E+04  0.91460896825E+02 0.  0.
        254    2    1    2    0    0  0.52241205280E+03 -0.72911681231E+03 -0.77515783183E+03  0.14883826521E+04  0.89993754006E+03 0.  0.
        -24    2    4    4    0    0  0.60916504199E+03 -0.83668729379E+03 -0.46141811148E+03  0.11362768531E+04  0.84206515491E+02 0.  0.
         24    2    4    4    0    0 -0.86752989189E+02  0.10757048148E+03 -0.31373972035E+03  0.35210579906E+03  0.80301880351E+02 0.  0.
         11    1    3    3    0    0 -0.25778246862E+03  0.39458278433E+03  0.35118477683E+03  0.58777387004E+03  0.00000000000E+00 0. -1.
        -11    1    3    3    0    0 -0.26462958418E+03  0.33453402797E+03  0.22549100783E+03  0.48248111601E+03  0.00000000000E+00 0.  1.
          2    1    6    6  502    0 -0.32802979613E+02  0.43380523862E+02 -0.21871310856E+03  0.22537375441E+03  0.00000000000E+00 0. -1.
          3    1    5    5  503    0  0.26775494764E+01 -0.48211827982E-01 -0.68840304762E+01  0.73865737102E+01  0.00000000000E+00 0. -1.
         -4    1    5    5    0  503  0.60648749252E+03 -0.83663908196E+03 -0.45453408101E+03  0.11288902794E+04  0.00000000000E+00 0.  1.
         -1    1    6    6    0  502 -0.53950009576E+02  0.64189957619E+02 -0.95026611787E+02  0.12673204465E+03  0.00000000000E+00 0.  1.
<mgrwt>
<rscale>  0 0.25509276E+04</rscale>
<asrwt>0</asrwt>
<pdfrwt beam="1">  1        2 0.21208613E+00 0.25509276E+04</pdfrwt>
<pdfrwt beam="2">  1       -2 0.18155043E+00 0.25509276E+04</pdfrwt>
<totfact> 0.23393371E+00</totfact>
</mgrwt>
</event>
<event>
12    1  0.1960998E-007  0.2149800E+04  0.7818608E-02  0.8539618E-01
          1   -1    0    0  501    0  0.00000000000E+00  0.00000000000E+00  0.31263370152E+04  0.31263370152E+04  0.00000000000E+00 0. -1.
         -1   -1    0    0    0  501 -0.00000000000E+00 -0.00000000000E+00 -0.36957302979E+03  0.36957302979E+03  0.00000000000E+00 0.  1.
         23    2    1    2    0    0 -0.47079729076E+03  0.65067065068E+03  0.53996629845E+03  0.97218908302E+03  0.92550661972E+02 0.  0.
        254    2    1    2    0    0  0.47079729076E+03 -0.65067065068E+03  0.22167976870E+04  0.25237209620E+04  0.89997395758E+03 0.  0.
        -24    2    4    4    0    0  0.48504568415E+03 -0.63974040316E+03  0.91768712126E+03  0.12219219958E+04  0.80041314966E+02 0.  0.
         24    2    4    4    0    0 -0.14248393392E+02 -0.10930247522E+02  0.12991105657E+04  0.13017989662E+04  0.81668839968E+02 0.  0.
         11    1    3    3    0    0 -0.33899374303E+03  0.46169832813E+03  0.33339853481E+03  0.66274933952E+03  0.00000000000E+00 0.  1.
        -11    1    3    3    0    0 -0.13180354772E+03  0.18897232255E+03  0.20656776364E+03  0.30943974350E+03  0.00000000000E+00 0. -1.
          2    1    6    6  502    0  0.18387624382E+02 -0.33730051791E+02  0.86933942771E+03  0.87018783127E+03  0.00000000000E+00 0. -1.
          3    1    5    5  503    0  0.24201827203E+03 -0.34887546064E+03  0.43057545032E+03  0.60471658605E+03  0.00000000000E+00 0. -1.
         -4    1    5    5    0  503  0.24302741213E+03 -0.29086494252E+03  0.48711167094E+03  0.61720540973E+03  0.00000000000E+00 0.  1.
         -1    1    6    6    0  502 -0.32636017774E+02  0.22799804270E+02  0.42977113800E+03  0.43161113493E+03  0.00000000000E+00 0.  1.
<mgrwt>
<rscale>  0 0.21497998E+04</rscale>
<asrwt>0</asrwt>
<pdfrwt beam="1">  1        1 0.48097491E+00 0.21497998E+04</pdfrwt>
<pdfrwt beam="2">  1       -1 0.56857391E-01 0.21497998E+04</pdfrwt>
<totfact> 0.13856639E+00</totfact>
</mgrwt>
</event>
<event>
12    1  0.1960998E-007  0.1640286E+04  0.7818608E-02  0.8796174E-01
          2   -1    0    0  501    0  0.00000000000E+00  0.00000000000E+00  0.20900663644E+04  0.20900663644E+04  0.00000000000E+00 0.  1.
         -2   -1    0    0    0  501 -0.00000000000E+00 -0.00000000000E+00 -0.32182439211E+03  0.32182439211E+03  0.00000000000E+00 0. -1.
         23    2    1    2    0    0 -0.36858220133E+03 -0.12477003610E+03  0.12291068851E+04  0.12925711335E+04  0.92822407107E+02 0.  0.
        254    2    1    2    0    0  0.36858220133E+03  0.12477003610E+03  0.53913508724E+03  0.11193196230E+04  0.90043843492E+03 0.  0.
        -24    2    4    4    0    0 -0.26500190406E+03  0.18387464662E+03  0.11979347411E+03  0.35310228589E+03  0.79340109859E+02 0.  0.
         24    2    4    4    0    0  0.63358410539E+03 -0.59104610522E+02  0.41934161313E+03  0.76621733711E+03  0.79494940707E+02 0.  0.
         13    1    3    3    0    0 -0.89084748345E+02  0.48787602874E+01  0.21756843701E+03  0.23515084408E+03  0.00000000000E+00 0. -1.
        -13    1    3    3    0    0 -0.27949745298E+03 -0.12964879639E+03  0.10115384481E+04  0.10574202895E+04  0.00000000000E+00 0.  1.
          4    1    6    6  502    0  0.24886283369E+03 -0.74047738279E+01  0.20681768444E+03  0.32366818698E+03  0.00000000000E+00 0. -1.
          1    1    5    5  503    0 -0.23274781796E+03  0.15810181502E+03  0.72968742659E+02  0.29067536546E+03  0.00000000000E+00 0. -1.
         -2    1    5    5    0  503 -0.32254086098E+02  0.25772831608E+02  0.46824731450E+02  0.62426920431E+02  0.00000000000E+00 0.  1.
         -3    1    6    6    0  502  0.38472127170E+03 -0.51699836694E+02  0.21252392869E+03  0.44254915013E+03  0.00000000000E+00 0.  1.
<mgrwt>
<rscale>  0 0.16402858E+04</rscale>
<asrwt>0</asrwt>
<pdfrwt beam="1">  1        2 0.32154866E+00 0.16402858E+04</pdfrwt>
<pdfrwt beam="2">  1       -2 0.49511446E-01 0.16402858E+04</pdfrwt>
<totfact> 0.21974194E+01</totfact>
</mgrwt>
</event>
<event>
12    1  0.1960998E-007  0.1548373E+04  0.7818608E-02  0.8852907E-01
         -2   -1    0    0    0  501 -0.00000000000E+00  0.00000000000E+00  0.37403783718E+03  0.37403783718E+03  0.00000000000E+00 0.  1.
          2   -1    0    0  501    0  0.00000000000E+00 -0.00000000000E+00 -0.16024179869E+04  0.16024179869E+04  0.00000000000E+00 0. -1.
         23    2    1    2    0    0  0.30052606239E+03 -0.14383420243E+03 -0.90185617348E+03  0.96547123473E+03  0.88238061426E+02 0.  0.
        254    2    1    2    0    0 -0.30052606239E+03  0.14383420243E+03 -0.32652397623E+03  0.10109845893E+04  0.89692125678E+03 0.  0.
        -24    2    4    4    0    0 -0.19580126556E+03  0.50008467553E+03 -0.32216813045E+03  0.63128155175E+03  0.79380570727E+02 0.  0.
         24    2    4    4    0    0 -0.10472479684E+03 -0.35625047309E+03 -0.43558457743E+01  0.37970303759E+03  0.79206948647E+02 0.  0.
         13    1    3    3    0    0  0.48991920906E+02 -0.35665389750E+02 -0.27211161833E+03  0.27877761956E+03  0.00000000000E+00 0. -1.
        -13    1    3    3    0    0  0.25153414148E+03 -0.10816881269E+03 -0.62974455515E+03  0.68669361517E+03  0.00000000000E+00 0.  1.
          4    1    6    6  502    0 -0.49372916121E+02 -0.25152687233E+03  0.25366661480E+02  0.25757895851E+03  0.00000000000E+00 0. -1.
          3    1    5    5  503    0 -0.20270111829E+03  0.47453026879E+03 -0.30096170490E+03  0.59736476894E+03  0.00000000000E+00 0. -1.
         -4    1    5    5    0  503  0.68998527335E+01  0.25554406739E+02 -0.21206425555E+02  0.33916782813E+02  0.00000000000E+00 0.  1.
         -3    1    6    6    0  502 -0.55351880714E+02 -0.10472360076E+03 -0.29722507254E+02  0.12212407908E+03  0.00000000000E+00 0.  1.
<mgrwt>
<rscale>  0 0.15483733E+04</rscale>
<asrwt>0</asrwt>
<pdfrwt beam="1">  1        2 0.24652585E+00 0.15483733E+04</pdfrwt>
<pdfrwt beam="2">  1       -2 0.57544282E-01 0.15483733E+04</pdfrwt>
<totfact> 0.30267159E+01</totfact>
</mgrwt>
</event>
<event>
12    1  0.1960998E-007  0.4279032E+04  0.7818608E-02  0.7950507E-01
         -1   -1    0    0    0  501 -0.00000000000E+00  0.00000000000E+00  0.34623985738E+04  0.34623985738E+04  0.00000000000E+00 0.  1.
          1   -1    0    0  501    0  0.00000000000E+00 -0.00000000000E+00 -0.13220687364E+04  0.13220687364E+04  0.00000000000E+00 0. -1.
         23    2    1    2    0    0  0.15009853316E+04 -0.13091319407E+04  0.51344361487E+03  0.20587773034E+04  0.90311879480E+02 0.  0.
        254    2    1    2    0    0 -0.15009853316E+04  0.13091319407E+04  0.16268862225E+04  0.27256900067E+04  0.90324073639E+03 0.  0.
        -24    2    4    4    0    0  0.81839722630E+02  0.14993663434E+02  0.38579622034E+01  0.11418992308E+03  0.78114688235E+02 0.  0.
         24    2    4    4    0    0 -0.15828250542E+04  0.12941382773E+04  0.16230282603E+04  0.26115000836E+04  0.74718940555E+02 0.  0.
         13    1    3    3    0    0  0.94199724813E+03 -0.86633587075E+03  0.35769714110E+03  0.13288505940E+04  0.00000000000E+00 0.  1.
        -13    1    3    3    0    0  0.55898808345E+03 -0.44279606997E+03  0.15574647376E+03  0.72992670941E+03  0.00000000000E+00 0. -1.
          4    1    6    6  502    0 -0.60374538625E+03  0.45621720816E+03  0.57311539467E+03  0.94926491984E+03  0.00000000000E+00 0. -1.
          3    1    5    5  503    0 -0.11966625738E+02  0.12126450219E+02 -0.93194913821E+01  0.19419161828E+02  0.00000000000E+00 0. -1.
         -4    1    5    5    0  503  0.93806348368E+02  0.28672132145E+01  0.13177453586E+02  0.94770761255E+02  0.00000000000E+00 0.  1.
         -1    1    6    6    0  502 -0.97907966796E+03  0.83792106913E+03  0.10499128656E+04  0.16622351638E+04  0.00000000000E+00 0.  1.
<mgrwt>
<rscale>  0 0.42790321E+04</rscale>
<asrwt>0</asrwt>
<pdfrwt beam="1">  1        1 0.20339519E+00 0.42790321E+04</pdfrwt>
<pdfrwt beam="2">  1       -1 0.53267670E+00 0.42790321E+04</pdfrwt>
<totfact> 0.62792294E-03</totfact>
</mgrwt>
</event>
<event>
12    1  0.1960998E-007  0.2821255E+04  0.7818608E-02  0.8296700E-01
          2   -1    0    0  501    0  0.00000000000E+00  0.00000000000E+00  0.21814112746E+04  0.21814112746E+04  0.00000000000E+00 0.  1.
         -2   -1    0    0    0  501 -0.00000000000E+00 -0.00000000000E+00 -0.91219368888E+03  0.91219368888E+03  0.00000000000E+00 0. -1.
         23    2    1    2    0    0  0.12371406478E+04  0.25793432983E+03  0.49732039892E+03  0.13611909694E+04  0.92011820382E+02 0.  0.
        254    2    1    2    0    0 -0.12371406478E+04 -0.25793432983E+03  0.77189718677E+03  0.17324139940E+04  0.89910281871E+03 0.  0.
        -24    2    4    4    0    0 -0.42431956787E+03  0.19700185884E+03  0.62717892564E+03  0.78634831630E+03  0.78316292827E+02 0.  0.
         24    2    4    4    0    0 -0.81282107996E+03 -0.45493618866E+03  0.14471826113E+03  0.94606567769E+03  0.80323393967E+02 0.  0.
         13    1    3    3    0    0  0.11188820663E+04  0.22742804383E+03  0.41957125276E+03  0.12164130177E+04  0.00000000000E+00 0. -1.
        -13    1    3    3    0    0  0.11825858152E+03  0.30506285999E+02  0.77749146163E+02  0.14477795177E+03  0.00000000000E+00 0.  1.
          2    1    6    6  502    0 -0.88406946545E+02 -0.31199640474E+02 -0.35893117178E+01  0.93819448526E+02  0.00000000000E+00 0. -1.
          1    1    5    5  503    0 -0.59053871297E+02 -0.16309766923E+00  0.85764382775E+02  0.10412932185E+03  0.00000000000E+00 0. -1.
         -2    1    5    5    0  503 -0.36526569657E+03  0.19716495651E+03  0.54141454286E+03  0.68221899445E+03  0.00000000000E+00 0.  1.
         -1    1    6    6    0  502 -0.72441413342E+03 -0.42373654819E+03  0.14830757285E+03  0.85224622917E+03  0.00000000000E+00 0.  1.
<mgrwt>
<rscale>  0 0.28212548E+04</rscale>
<asrwt>0</asrwt>
<pdfrwt beam="1">  1        2 0.33560173E+00 0.28212548E+04</pdfrwt>
<pdfrwt beam="2">  1       -2 0.14033749E+00 0.28212548E+04</pdfrwt>
<totfact> 0.16399280E+00</totfact>
</mgrwt>
</event>
<event>
12    1  0.1960998E-007  0.4744610E+04  0.7818608E-02  0.7869158E-01
         -2   -1    0    0    0  501 -0.00000000000E+00  0.00000000000E+00  0.15070731966E+04  0.15070731966E+04  0.00000000000E+00 0.  1.
          2   -1    0    0  501    0  0.00000000000E+00 -0.00000000000E+00 -0.37342778763E+04  0.37342778763E+04  0.00000000000E+00 0. -1.
         23    2    1    2    0    0  0.14929700582E+04 -0.10353367665E+03 -0.29902125574E+04  0.33449869756E+04  0.88813914182E+02 0.  0.
        254    2    1    2    0    0 -0.14929700582E+04  0.10353367665E+03  0.76300787765E+03  0.18963640973E+04  0.87996417620E+03 0.  0.
        -24    2    4    4    0    0 -0.25218607146E+03  0.10505128283E+03 -0.17958980404E+03  0.33611607094E+03  0.78025180329E+02 0.  0.
         24    2    4    4    0    0 -0.12407839867E+04 -0.15176061750E+01  0.94259768169E+03  0.15602480264E+04  0.79600938716E+02 0.  0.
         11    1    3    3    0    0  0.48812148841E+03 -0.24545845992E+02 -0.10687856777E+04  0.11752310032E+04  0.00000000000E+00 0. -1.
        -11    1    3    3    0    0  0.10048485698E+04 -0.78987830659E+02 -0.19214268797E+04  0.21697559724E+04  0.00000000000E+00 0.  1.
          4    1    6    6  502    0 -0.53478990018E+03 -0.39710083806E+02  0.39984768219E+03  0.66892099463E+03  0.00000000000E+00 0. -1.
          1    1    5    5  503    0 -0.15166641039E+03  0.68714853723E+02 -0.63210058355E+02  0.17810093385E+03  0.00000000000E+00 0. -1.
         -2    1    5    5    0  503 -0.10051966108E+03  0.36336429103E+02 -0.11637974569E+03  0.15801513709E+03  0.00000000000E+00 0.  1.
         -3    1    6    6    0  502 -0.70599408656E+03  0.38192477631E+02  0.54274999950E+03  0.89132703177E+03  0.00000000000E+00 0.  1.
<mgrwt>
<rscale>  0 0.47446096E+04</rscale>
<asrwt>0</asrwt>
<pdfrwt beam="1">  1        2 0.57450427E+00 0.47446096E+04</pdfrwt>
<pdfrwt beam="2">  1       -2 0.23185742E+00 0.47446096E+04</pdfrwt>
<totfact> 0.33940580E-02</totfact>
</mgrwt>
</event>
<event>
12    1  0.1960998E-007  0.1883578E+04  0.7818608E-02  0.8663074E-01
         -2   -1    0    0    0  501 -0.00000000000E+00  0.00000000000E+00  0.51453934784E+03  0.51453934784E+03  0.00000000000E+00 0.  1.
          2   -1    0    0  501    0  0.00000000000E+00 -0.00000000000E+00 -0.17238061958E+04  0.17238061958E+04  0.00000000000E+00 0. -1.
         23    2    1    2    0    0 -0.21469026845E+03  0.10523449293E+03  0.33966697015E+03  0.42513781477E+03  0.90566556013E+02 0.  0.
        254    2    1    2    0    0  0.21469026845E+03 -0.10523449293E+03 -0.15489338181E+04  0.18132077288E+04  0.91178949611E+03 0.  0.
        -24    2    4    4    0    0 -0.19574791714E+03  0.50230512575E+02 -0.17570356570E+02  0.21821869137E+03  0.80438351384E+02 0.  0.
         24    2    4    4    0    0  0.41043818559E+03 -0.15546500551E+03 -0.15313634615E+04  0.15949890375E+04  0.79291274582E+02 0.  0.
         13    1    3    3    0    0 -0.17774579736E+02 -0.14775941665E+02  0.17732062751E+02  0.29132287694E+02  0.00000000000E+00 0. -1.
        -13    1    3    3    0    0 -0.19691568872E+03  0.12001043459E+03  0.32193490740E+03  0.39600552708E+03  0.00000000000E+00 0.  1.
          2    1    6    6  502    0  0.10449047129E+03 -0.45000214771E+02 -0.28473908813E+03  0.30662619952E+03  0.00000000000E+00 0. -1.
          3    1    5    5  503    0 -0.16959250682E+03  0.67015948939E+02 -0.29891698416E+02  0.18478709213E+03  0.00000000000E+00 0. -1.
         -4    1    5    5    0  503 -0.26155410319E+02 -0.16785436364E+02  0.12321341847E+02  0.33431599241E+02  0.00000000000E+00 0.  1.
         -1    1    6    6    0  502  0.30594771430E+03 -0.11046479073E+03 -0.12466243734E+04  0.12883628380E+04  0.00000000000E+00 0.  1.
<mgrwt>
<rscale>  0 0.18835776E+04</rscale>
<asrwt>0</asrwt>
<pdfrwt beam="1">  1        2 0.26520095E+00 0.18835776E+04</pdfrwt>
<pdfrwt beam="2">  1       -2 0.79159900E-01 0.18835776E+04</pdfrwt>
<totfact> 0.12626128E+01</totfact>
</mgrwt>
</event>
<event>
12    1  0.1960998E-007  0.1812050E+04  0.7818608E-02  0.8699918E-01
         -1   -1    0    0    0  501 -0.00000000000E+00  0.00000000000E+00  0.50051715958E+03  0.50051715958E+03  0.00000000000E+00 0.  1.
          1   -1    0    0  501    0  0.00000000000E+00 -0.00000000000E+00 -0.16400663903E+04  0.16400663903E+04  0.00000000000E+00 0. -1.
         23    2    1    2    0    0  0.79807454118E+00  0.64275589687E+03 -0.17265807795E+03  0.67143245862E+03  0.88740941681E+02 0.  0.
        254    2    1    2    0    0 -0.79807454118E+00 -0.64275589687E+03 -0.96689115278E+03  0.14691510913E+04  0.90021700037E+03 0.  0.
        -24    2    4    4    0    0 -0.37362110932E+03 -0.53060004097E+03 -0.37000994696E+03  0.75119080135E+03  0.79064039740E+02 0.  0.
         24    2    4    4    0    0  0.37282303478E+03 -0.11215585590E+03 -0.59688120581E+03  0.71796028991E+03  0.87314676640E+02 0.  0.
         13    1    3    3    0    0 -0.32581968796E+02  0.47361034139E+03 -0.10485770872E+03  0.48617227321E+03  0.00000000000E+00 0.  1.
        -13    1    3    3    0    0  0.33380043337E+02  0.16914555548E+03 -0.67800369226E+02  0.18526018541E+03  0.00000000000E+00 0. -1.
          4    1    6    6  502    0  0.23747085138E+03 -0.51094871344E+02 -0.43548982195E+03  0.49865266083E+03  0.00000000000E+00 0. -1.
          3    1    5    5  503    0 -0.30691182318E+03 -0.47795200414E+03 -0.30939359624E+03  0.64680552167E+03  0.00000000000E+00 0. -1.
         -4    1    5    5    0  503 -0.66709286144E+02 -0.52648036827E+02 -0.60616350722E+02  0.10438527968E+03  0.00000000000E+00 0.  1.
         -3    1    6    6    0  502  0.13535218340E+03 -0.61060984558E+02 -0.16139138387E+03  0.21930762908E+03  0.00000000000E+00 0.  1.
<mgrwt>
<rscale>  0 0.18120501E+04</rscale>
<asrwt>0</asrwt>
<pdfrwt beam="1">  1        1 0.25231791E+00 0.18120501E+04</pdfrwt>
<pdfrwt beam="2">  1       -1 0.77002639E-01 0.18120501E+04</pdfrwt>
<totfact> 0.83510682E+00</totfact>
</mgrwt>
</event>
<event>
12    1  0.1960998E-007  0.1669481E+04  0.7818608E-02  0.8778964E-01
         -2   -1    0    0    0  501 -0.00000000000E+00  0.00000000000E+00  0.38833133539E+03  0.38833133539E+03  0.00000000000E+00 0. -1.
          2   -1    0    0  501    0  0.00000000000E+00 -0.00000000000E+00 -0.17943228081E+04  0.17943228081E+04  0.00000000000E+00 0.  1.
         23    2    1    2    0    0  0.22958662810E+03  0.50138993237E+03 -0.76780165874E+03  0.94960040979E+03  0.90109194985E+02 0.  0.
        254    2    1    2    0    0 -0.22958662810E+03 -0.50138993237E+03 -0.63818981397E+03  0.12330537337E+04  0.89946283273E+03 0.  0.
        -24    2    4    4    0    0  0.29541585081E+03 -0.11772012588E+03 -0.43721357726E+03  0.54677048421E+03  0.81692700495E+02 0.  0.
         24    2    4    4    0    0 -0.52500247892E+03 -0.38366980649E+03 -0.20097623671E+03  0.68628324949E+03  0.88108612142E+02 0.  0.
         13    1    3    3    0    0  0.14548435007E+03  0.22717591632E+03 -0.41409891159E+03  0.49421908265E+03  0.00000000000E+00 0.  1.
        -13    1    3    3    0    0  0.84102278034E+02  0.27421401605E+03 -0.35370274715E+03  0.45538132714E+03  0.00000000000E+00 0. -1.
          4    1    6    6  502    0 -0.65875223830E+02 -0.71856258286E+02 -0.46912906201E+01  0.97595466991E+02  0.00000000000E+00 0. -1.
          1    1    5    5  503    0  0.12009978403E+03 -0.64234382756E+01 -0.17351545644E+03  0.21112278964E+03  0.00000000000E+00 0. -1.
         -2    1    5    5    0  503  0.17531606678E+03 -0.11129668761E+03 -0.26369812083E+03  0.33564769457E+03  0.00000000000E+00 0.  1.
         -3    1    6    6    0  502 -0.45912725509E+03 -0.31181354820E+03 -0.19628494609E+03  0.58868778250E+03  0.00000000000E+00 0.  1.
<mgrwt>
<rscale>  0 0.16694811E+04</rscale>
<asrwt>0</asrwt>
<pdfrwt beam="1">  1        2 0.27604966E+00 0.16694811E+04</pdfrwt>
<pdfrwt beam="2">  1       -2 0.59743283E-01 0.16694811E+04</pdfrwt>
<totfact> 0.21665166E+01</totfact>
</mgrwt>
</event>
<event>
12    1  0.1960998E-007  0.2112594E+04  0.7818608E-02  0.8555716E-01
          1   -1    0    0  501    0  0.00000000000E+00  0.00000000000E+00  0.31643316305E+04  0.31643316305E+04  0.00000000000E+00 0. -1.
         -1   -1    0    0    0  501 -0.00000000000E+00 -0.00000000000E+00 -0.35260635131E+03  0.35260635131E+03  0.00000000000E+00 0.  1.
         23    2    1    2    0    0  0.86102390419E+03  0.10792374184E+02  0.10695534956E+04  0.13760796881E+04  0.90399054837E+02 0.  0.
        254    2    1    2    0    0 -0.86102390419E+03 -0.10792374184E+02  0.17421717835E+04  0.21408582937E+04  0.89812753621E+03 0.  0.
        -24    2    4    4    0    0 -0.62333282421E+03 -0.12976686677E+03  0.36957395205E+03  0.74050231446E+03  0.79846867388E+02 0.  0.
         24    2    4    4    0    0 -0.23769107998E+03  0.11897449259E+03  0.13725978315E+04  0.14003559792E+04  0.79498944167E+02 0.  0.
         11    1    3    3    0    0  0.15759952338E+03 -0.28717845437E+02  0.17207901639E+03  0.23510319499E+03  0.00000000000E+00 0. -1.
        -11    1    3    3    0    0  0.70342438081E+03  0.39510219621E+02  0.89747447922E+03  0.11409764931E+04  0.00000000000E+00 0.  1.
          4    1    6    6  502    0 -0.18543377885E+03  0.91825329010E+02  0.86752428375E+03  0.89186095344E+03  0.00000000000E+00 0. -1.
          3    1    5    5  503    0 -0.36128422702E+03 -0.81212385544E+02  0.16949202596E+03  0.40724598356E+03  0.00000000000E+00 0. -1.
         -4    1    5    5    0  503 -0.26204859719E+03 -0.48554481227E+02  0.20008192609E+03  0.33325633090E+03  0.00000000000E+00 0.  1.
         -3    1    6    6    0  502 -0.52257301127E+02  0.27149163578E+02  0.50507354775E+03  0.50849502578E+03  0.00000000000E+00 0.  1.
<mgrwt>
<rscale>  0 0.21125941E+04</rscale>
<asrwt>0</asrwt>
<pdfrwt beam="1">  1        1 0.48682023E+00 0.21125941E+04</pdfrwt>
<pdfrwt beam="2">  1       -1 0.54247133E-01 0.21125941E+04</pdfrwt>
<totfact> 0.14277929E+00</totfact>
</mgrwt>
</event>
<event>
12    1  0.1960998E-007  0.1730781E+04  0.7818608E-02  0.8744001E-01
         -1   -1    0    0    0  501 -0.00000000000E+00  0.00000000000E+00  0.67104337883E+03  0.67104337883E+03  0.00000000000E+00 0.  1.
          1   -1    0    0  501    0  0.00000000000E+00 -0.00000000000E+00 -0.11160239464E+04  0.11160239464E+04  0.00000000000E+00 0. -1.
         23    2    1    2    0    0 -0.35447165218E+03  0.50095260674E+03  0.12546547131E+02  0.62055936695E+03  0.91284421793E+02 0.  0.
        254    2    1    2    0    0  0.35447165218E+03 -0.50095260674E+03 -0.45752711475E+03  0.11665079583E+04  0.88023070253E+03 0.  0.
        -24    2    4    4    0    0  0.60045364185E+03 -0.54059214929E+03 -0.34070346307E+03  0.88041425663E+03  0.79157852756E+02 0.  0.
         24    2    4    4    0    0 -0.24598198966E+03  0.39639542543E+02 -0.11682365168E+03  0.28609370169E+03  0.78252207514E+02 0.  0.
         11    1    3    3    0    0 -0.47830587083E+02  0.12762479423E+03 -0.11987647303E+02  0.13681943155E+03  0.00000000000E+00 0. -1.
        -11    1    3    3    0    0 -0.30664106510E+03  0.37332781251E+03  0.24534194434E+02  0.48373993540E+03  0.00000000000E+00 0.  1.
          2    1    6    6  502    0 -0.14687813836E+03 -0.99393137434E+01 -0.44600424625E+02  0.15382189494E+03  0.00000000000E+00 0. -1.
          3    1    5    5  503    0  0.38733850654E+03 -0.39011396105E+03 -0.20863512965E+03  0.58800394436E+03  0.00000000000E+00 0. -1.
         -4    1    5    5    0  503  0.21311513531E+03 -0.15047818823E+03 -0.13206833341E+03  0.29241031227E+03  0.00000000000E+00 0.  1.
         -1    1    6    6    0  502 -0.99103851301E+02  0.49578856286E+02 -0.72223227056E+02  0.13227180675E+03  0.00000000000E+00 0.  1.
<mgrwt>
<rscale>  0 0.17307807E+04</rscale>
<asrwt>0</asrwt>
<pdfrwt beam="1">  1        1 0.17169599E+00 0.17307807E+04</pdfrwt>
<pdfrwt beam="2">  1       -1 0.10323744E+00 0.17307807E+04</pdfrwt>
<totfact> 0.10366829E+01</totfact>
</mgrwt>
</event>
<event>
12    1  0.1960998E-007  0.3666598E+04  0.7818608E-02  0.8075405E-01
          1   -1    0    0  501    0  0.00000000000E+00  0.00000000000E+00  0.15366250043E+04  0.15366250043E+04  0.00000000000E+00 0. -1.
         -1   -1    0    0    0  501 -0.00000000000E+00 -0.00000000000E+00 -0.21872512671E+04  0.21872512671E+04  0.00000000000E+00 0.  1.
         23    2    1    2    0    0  0.94637987180E+03 -0.10709600976E+03  0.11507911216E+04  0.14964852486E+04  0.89685431593E+02 0.  0.
        254    2    1    2    0    0 -0.94637987180E+03  0.10709600976E+03 -0.18014173844E+04  0.22273910228E+04  0.89947860365E+03 0.  0.
        -24    2    4    4    0    0  0.14717647198E+03  0.12366344678E+03 -0.21379308220E+03  0.29778569221E+03  0.77558200840E+02 0.  0.
         24    2    4    4    0    0 -0.10935563438E+04 -0.16567437013E+02 -0.15876243022E+04  0.19296053305E+04  0.81767045698E+02 0.  0.
         11    1    3    3    0    0  0.41797593739E+03 -0.19649038534E+02  0.55988934289E+03  0.69897499614E+03  0.00000000000E+00 0. -1.
        -11    1    3    3    0    0  0.52840393441E+03 -0.87446971228E+02  0.59090177875E+03  0.79751025248E+03  0.00000000000E+00 0.  1.
          2    1    6    6  502    0 -0.81382724346E+03  0.14798393717E+02 -0.11378641555E+04  0.13990241639E+04  0.00000000000E+00 0. -1.
          3    1    5    5  503    0  0.15606342822E+03  0.12223137724E+03 -0.20305879211E+03  0.28377663093E+03  0.00000000000E+00 0. -1.
         -4    1    5    5    0  503 -0.88869562371E+01  0.14320695364E+01 -0.10734290089E+02  0.14009061283E+02  0.00000000000E+00 0.  1.
         -1    1    6    6    0  502 -0.27972910032E+03 -0.31365830730E+02 -0.44976014665E+03  0.53058116667E+03  0.00000000000E+00 0.  1.
<mgrwt>
<rscale>  0 0.36665979E+04</rscale>
<asrwt>0</asrwt>
<pdfrwt beam="1">  1        1 0.23640385E+00 0.36665979E+04</pdfrwt>
<pdfrwt beam="2">  1       -1 0.33650020E+00 0.36665979E+04</pdfrwt>
<totfact> 0.94693540E-02</totfact>
</mgrwt>
</event>
<event>
12    1  0.1960998E-007  0.5355718E+04  0.7818608E-02  0.7775860E-01
         -2   -1    0    0    0  501 -0.00000000000E+00  0.00000000000E+00  0.25380115200E+04  0.25380115200E+04  0.00000000000E+00 0.  1.
          2   -1    0    0  501    0  0.00000000000E+00 -0.00000000000E+00 -0.28254127046E+04  0.28254127046E+04  0.00000000000E+00 0. -1.
         23    2    1    2    0    0 -0.81359086802E+02  0.25698395890E+04  0.25715608283E+03  0.25854766301E+04  0.88686748751E+02 0.  0.
        254    2    1    2    0    0  0.81359086802E+02 -0.25698395890E+04 -0.54455726743E+03  0.27779475944E+04  0.89986410379E+03 0.  0.
        -24    2    4    4    0    0 -0.36038286242E+03 -0.11198342483E+04 -0.43224041059E+03  0.12558686762E+04  0.80435117011E+02 0.  0.
         24    2    4    4    0    0  0.44174194923E+03 -0.14500053407E+04 -0.11231685684E+03  0.15220789182E+04  0.80359934678E+02 0.  0.
         13    1    3    3    0    0 -0.35200619842E+02  0.12304502567E+04  0.16748620864E+03  0.12422956765E+04  0.00000000000E+00 0. -1.
        -13    1    3    3    0    0 -0.46158466960E+02  0.13393893324E+04  0.89669874189E+02  0.13431809536E+04  0.00000000000E+00 0.  1.
          2    1    6    6  502    0  0.13798437373E+03 -0.34224522623E+03 -0.15160945662E+02  0.36932551570E+03  0.00000000000E+00 0. -1.
          3    1    5    5  503    0 -0.13675434053E+03 -0.53847241684E+03 -0.18241830743E+03  0.58474843501E+03  0.00000000000E+00 0. -1.
         -4    1    5    5    0  503 -0.22362852189E+03 -0.58136183150E+03 -0.24982210315E+03  0.67112024120E+03  0.00000000000E+00 0.  1.
         -1    1    6    6    0  502  0.30375757549E+03 -0.11077601145E+04 -0.97155911180E+02  0.11527534025E+04  0.00000000000E+00 0.  1.
<mgrwt>
<rscale>  0 0.53557184E+04</rscale>
<asrwt>0</asrwt>
<pdfrwt beam="1">  1        2 0.43467888E+00 0.53557184E+04</pdfrwt>
<pdfrwt beam="2">  1       -2 0.39046331E+00 0.53557184E+04</pdfrwt>
<totfact> 0.13537347E-02</totfact>
</mgrwt>
</event>
<event>
12    1  0.1960998E-007  0.1954194E+04  0.7818608E-02  0.8628341E-01
         -2   -1    0    0    0  501 -0.00000000000E+00  0.00000000000E+00  0.37805774192E+03  0.37805774192E+03  0.00000000000E+00 0.  1.
          2   -1    0    0  501    0  0.00000000000E+00 -0.00000000000E+00 -0.25253239694E+04  0.25253239694E+04  0.00000000000E+00 0. -1.
         23    2    1    2    0    0 -0.48932181068E+03  0.56173174703E+03 -0.11174085599E+04  0.13460798546E+04  0.91382138953E+02 0.  0.
        254    2    1    2    0    0  0.48932181068E+03 -0.56173174703E+03 -0.10298576676E+04  0.15573018567E+04  0.89977989938E+03 0.  0.
        -24    2    4    4    0    0  0.24840419680E+03  0.11225039136E+03  0.22216838271E+02  0.28243404123E+03  0.70502513385E+02 0.  0.
         24    2    4    4    0    0  0.24091761388E+03 -0.67398213838E+03 -0.10520745059E+04  0.12748678155E+04  0.78319611009E+02 0.  0.
         11    1    3    3    0    0 -0.34937425641E+03  0.34453189679E+03 -0.77162845248E+03  0.91442608647E+03  0.00000000000E+00 0. -1.
        -11    1    3    3    0    0 -0.13994755427E+03  0.21719985023E+03 -0.34578010740E+03  0.43165376815E+03  0.00000000000E+00 0.  1.
          4    1    6    6  502    0  0.77183651970E+02 -0.24624954726E+03 -0.44487648227E+03  0.51430656241E+03  0.00000000000E+00 0. -1.
          1    1    5    5  503    0  0.30352167694E+02  0.36354771539E+02 -0.12436591492E+02  0.48965215258E+02  0.00000000000E+00 0. -1.
         -2    1    5    5    0  503  0.21805202911E+03  0.75895619817E+02  0.34653429764E+02  0.23346882597E+03  0.00000000000E+00 0.  1.
         -3    1    6    6    0  502  0.16373396191E+03 -0.42773259112E+03 -0.60719802364E+03  0.76056125309E+03  0.00000000000E+00 0.  1.
<mgrwt>
<rscale>  0 0.19541937E+04</rscale>
<asrwt>0</asrwt>
<pdfrwt beam="1">  1        2 0.38851140E+00 0.19541937E+04</pdfrwt>
<pdfrwt beam="2">  1       -2 0.58162727E-01 0.19541937E+04</pdfrwt>
<totfact> 0.86850661E+00</totfact>
</mgrwt>
</event>
<event>
12    1  0.1960998E-007  0.3757565E+04  0.7818608E-02  0.8055323E-01
         -1   -1    0    0    0  501 -0.00000000000E+00  0.00000000000E+00  0.13138516917E+04  0.13138516917E+04  0.00000000000E+00 0.  1.
          1   -1    0    0  501    0  0.00000000000E+00 -0.00000000000E+00 -0.26866231989E+04  0.26866231989E+04  0.00000000000E+00 0. -1.
         23    2    1    2    0    0  0.10370148345E+04  0.14090868012E+03  0.87287296768E+03  0.13657884530E+04  0.90641367736E+02 0.  0.
        254    2    1    2    0    0 -0.10370148345E+04 -0.14090868012E+03 -0.22456444749E+04  0.26346864377E+04  0.89632499360E+03 0.  0.
        -24    2    4    4    0    0 -0.71855732941E+03  0.92352414449E+02 -0.61075450431E+03  0.95088729718E+03  0.79447991216E+02 0.  0.
         24    2    4    4    0    0 -0.31845750510E+03 -0.23326109457E+03 -0.16348899706E+04  0.16837991405E+04  0.80550660076E+02 0.  0.
         13    1    3    3    0    0  0.35790144943E+03  0.91859406016E+02  0.29912801286E+03  0.47540421333E+03  0.00000000000E+00 0. -1.
        -13    1    3    3    0    0  0.67911338508E+03  0.49049274105E+02  0.57374495482E+03  0.89038423968E+03  0.00000000000E+00 0.  1.
          4    1    6    6  502    0 -0.92046111829E+02 -0.93308314943E+02 -0.41490866092E+03  0.43511851862E+03  0.00000000000E+00 0. -1.
          3    1    5    5  503    0 -0.54575833508E+02  0.17760425563E+02 -0.75115216989E+02  0.94531741456E+02  0.00000000000E+00 0. -1.
         -4    1    5    5    0  503 -0.66398149590E+03  0.74591988886E+02 -0.53563928732E+03  0.85635555573E+03  0.00000000000E+00 0.  1.
         -3    1    6    6    0  502 -0.22641139327E+03 -0.13995277963E+03 -0.12199813096E+04  0.12486806219E+04  0.00000000000E+00 0.  1.
<mgrwt>
<rscale>  0 0.37575654E+04</rscale>
<asrwt>0</asrwt>
<pdfrwt beam="1">  1        1 0.41332665E+00 0.37575654E+04</pdfrwt>
<pdfrwt beam="2">  1       -1 0.20213103E+00 0.37575654E+04</pdfrwt>
<totfact> 0.11649733E-01</totfact>
</mgrwt>
</event>
<event>
12    1  0.1960998E-007  0.3688012E+04  0.7818608E-02  0.8070624E-01
         -2   -1    0    0    0  501 -0.00000000000E+00  0.00000000000E+00  0.10979773993E+04  0.10979773993E+04  0.00000000000E+00 0. -1.
          2   -1    0    0  501    0  0.00000000000E+00 -0.00000000000E+00 -0.30969291296E+04  0.30969291296E+04  0.00000000000E+00 0.  1.
         23    2    1    2    0    0 -0.11488675835E+04 -0.50085517866E+03 -0.23017532674E+04  0.26224167989E+04  0.90824714823E+02 0.  0.
        254    2    1    2    0    0  0.11488675835E+04  0.50085517866E+03  0.30280153713E+03  0.15724897300E+04  0.90015695608E+03 0.  0.
        -24    2    4    4    0    0  0.10538742407E+03 -0.80012205801E+02  0.34153268304E+03  0.37493564299E+03  0.80147991694E+02 0.  0.
         24    2    4    4    0    0  0.10434801594E+04  0.58086738446E+03 -0.38731145912E+02  0.11975540870E+04  0.79861931677E+02 0.  0.
         13    1    3    3    0    0 -0.76782167315E+03 -0.34117459682E+03 -0.16292815051E+04  0.18331689639E+04  0.00000000000E+00 0.  1.
        -13    1    3    3    0    0 -0.38104591034E+03 -0.15968058184E+03 -0.67247176228E+03  0.78924783501E+03  0.00000000000E+00 0. -1.
          2    1    6    6  502    0  0.20997678233E+03  0.12192868667E+03 -0.39816613543E+02  0.24605327972E+03  0.00000000000E+00 0. -1.
          1    1    5    5  503    0  0.45958830233E+02  0.42869817602E+01  0.64412169883E+02  0.79243421922E+02  0.00000000000E+00 0. -1.
         -2    1    5    5    0  503  0.59428593837E+02 -0.84299187561E+02  0.27712051316E+03  0.29569222107E+03  0.00000000000E+00 0.  1.
         -1    1    6    6    0  502  0.83350337709E+03  0.45893869779E+03  0.10854676316E+01  0.95150080725E+03  0.00000000000E+00 0.  1.
<mgrwt>
<rscale>  0 0.36880120E+04</rscale>
<asrwt>0</asrwt>
<pdfrwt beam="1">  1        2 0.47645064E+00 0.36880120E+04</pdfrwt>
<pdfrwt beam="2">  1       -2 0.16891960E+00 0.36880120E+04</pdfrwt>
<totfact> 0.26515577E-01</totfact>
</mgrwt>
</event>
<event>
12    1  0.1960998E-007  0.2900934E+04  0.7818608E-02  0.8272600E-01
          1   -1    0    0  501    0  0.00000000000E+00  0.00000000000E+00  0.23173687304E+04  0.23173687304E+04  0.00000000000E+00 0. -1.
         -1   -1    0    0    0  501 -0.00000000000E+00 -0.00000000000E+00 -0.90786366615E+03  0.90786366615E+03  0.00000000000E+00 0.  1.
         23    2    1    2    0    0 -0.11075413145E+04 -0.51981806316E+03  0.12151313608E+03  0.12328571019E+04  0.91173512260E+02 0.  0.
        254    2    1    2    0    0  0.11075413145E+04  0.51981806316E+03  0.12879919282E+04  0.19923752946E+04  0.90209618419E+03 0.  0.
        -24    2    4    4    0    0  0.65051162434E+03  0.41292782398E+03  0.19315563889E+03  0.79849695500E+03  0.81323582657E+02 0.  0.
         24    2    4    4    0    0  0.45702969017E+03  0.10689023918E+03  0.10948362893E+04  0.11938783396E+04  0.79858178067E+02 0.  0.
         11    1    3    3    0    0 -0.70654527932E+03 -0.36334570904E+03  0.45893584425E+02  0.79582193806E+03  0.00000000000E+00 0.  1.
        -11    1    3    3    0    0 -0.40099603519E+03 -0.15647235412E+03  0.75619551654E+02  0.43703516384E+03  0.00000000000E+00 0. -1.
          4    1    6    6  502    0  0.44022433645E+03  0.89076017438E+02  0.10606129565E+04  0.11517950542E+04  0.00000000000E+00 0. -1.
          1    1    5    5  503    0  0.58226930392E+03  0.39414885629E+03  0.18626942242E+03  0.72738377830E+03  0.00000000000E+00 0. -1.
         -2    1    5    5    0  503  0.68242320418E+02  0.18778967688E+02  0.68862164692E+01  0.71113176703E+02  0.00000000000E+00 0.  1.
         -3    1    6    6    0  502  0.16805353719E+02  0.17814221738E+02  0.34223332725E+02  0.42083285429E+02  0.00000000000E+00 0.  1.
<mgrwt>
<rscale>  0 0.29009342E+04</rscale>
<asrwt>0</asrwt>
<pdfrwt beam="1">  1        1 0.35651826E+00 0.29009342E+04</pdfrwt>
<pdfrwt beam="2">  1       -1 0.13967133E+00 0.29009342E+04</pdfrwt>
<totfact> 0.65529589E-01</totfact>
</mgrwt>
</event>
<event>
12    1  0.1960998E-007  0.1141421E+04  0.7818608E-02  0.9165735E-01
         -2   -1    0    0    0  501 -0.00000000000E+00  0.00000000000E+00  0.47387490561E+03  0.47387490561E+03  0.00000000000E+00 0.  1.
          2   -1    0    0  501    0  0.00000000000E+00 -0.00000000000E+00 -0.68733376449E+03  0.68733376449E+03  0.00000000000E+00 0. -1.
         23    2    1    2    0    0  0.15699807534E+03  0.99290494328E+02 -0.11782002582E+03  0.23719581325E+03  0.88731603258E+02 0.  0.
        254    2    1    2    0    0 -0.15699807534E+03 -0.99290494328E+02 -0.95638833058E+02  0.92401285684E+03  0.90008109373E+03 0.  0.
        -24    2    4    4    0    0  0.10684359671E+03 -0.28036012976E+03 -0.37934085377E+03  0.49025250020E+03  0.80191483907E+02 0.  0.
         24    2    4    4    0    0 -0.26384167205E+03  0.18106963543E+03  0.28370202071E+03  0.43376035665E+03  0.72543570739E+02 0.  0.
         11    1    3    3    0    0  0.85747483200E+02  0.26508084177E+02 -0.12389008641E+02  0.90602411320E+02  0.00000000000E+00 0.  1.
        -11    1    3    3    0    0  0.71250592143E+02  0.72782410151E+02 -0.10543101718E+03  0.14659340193E+03  0.00000000000E+00 0. -1.
          2    1    6    6  502    0 -0.16595699758E+03  0.15289726987E+03  0.20747657238E+03  0.30653846131E+03  0.00000000000E+00 0. -1.
          3    1    5    5  503    0  0.11875300254E+03 -0.25965469081E+03 -0.33750015230E+03  0.44207373466E+03  0.00000000000E+00 0. -1.
         -4    1    5    5    0  503 -0.11909405824E+02 -0.20705438945E+02 -0.41840701473E+02  0.48178765538E+02  0.00000000000E+00 0.  1.
         -3    1    6    6    0  502 -0.97884674477E+02  0.28172365562E+02  0.76225448333E+02  0.12722189533E+03  0.00000000000E+00 0.  1.
<mgrwt>
<rscale>  0 0.11414206E+04</rscale>
<asrwt>0</asrwt>
<pdfrwt beam="1">  1        2 0.10574366E+00 0.11414206E+04</pdfrwt>
<pdfrwt beam="2">  1       -2 0.72903832E-01 0.11414206E+04</pdfrwt>
<totfact> 0.70644606E+01</totfact>
</mgrwt>
</event>
<event>
12    1  0.1960998E-007  0.1837104E+04  0.7818608E-02  0.8686813E-01
          1   -1    0    0  501    0  0.00000000000E+00  0.00000000000E+00  0.89623778519E+03  0.89623778519E+03  0.00000000000E+00 0. -1.
         -1   -1    0    0    0  501 -0.00000000000E+00 -0.00000000000E+00 -0.94142166879E+03  0.94142166879E+03  0.00000000000E+00 0.  1.
         23    2    1    2    0    0 -0.55179180754E+02  0.29682216535E+03 -0.64117959200E+03  0.71461118684E+03  0.91704630877E+02 0.  0.
        254    2    1    2    0    0  0.55179180754E+02 -0.29682216535E+03  0.59599570841E+03  0.11230482671E+04  0.90270614602E+03 0.  0.
        -24    2    4    4    0    0  0.22442586941E+03  0.26049374503E+03  0.14665435814E+03  0.38280945951E+03  0.82532535812E+02 0.  0.
         24    2    4    4    0    0 -0.16924668865E+03 -0.55731591038E+03  0.44934135027E+03  0.74023880763E+03  0.82464402531E+02 0.  0.
         13    1    3    3    0    0 -0.32530546652E+02  0.13597753508E+03 -0.19626495579E+03  0.24097315075E+03  0.00000000000E+00 0. -1.
        -13    1    3    3    0    0 -0.22648634102E+02  0.16084463027E+03 -0.44491463621E+03  0.47363803609E+03  0.00000000000E+00 0.  1.
          2    1    6    6  502    0 -0.16866758389E+03 -0.47540307342E+03  0.40622622581E+03  0.64767011866E+03  0.00000000000E+00 0. -1.
          3    1    5    5  503    0  0.19890866469E+03  0.18260916897E+03  0.96621710028E+02  0.28678654140E+03  0.00000000000E+00 0. -1.
         -4    1    5    5    0  503  0.25517204722E+02  0.77884576060E+02  0.50032648113E+02  0.96022918109E+02  0.00000000000E+00 0.  1.
         -1    1    6    6    0  502 -0.57910476680E+00 -0.81912836957E+02  0.43115124455E+02  0.92568688969E+02  0.00000000000E+00 0.  1.
<mgrwt>
<rscale>  0 0.18371039E+04</rscale>
<asrwt>0</asrwt>
<pdfrwt beam="1">  1        1 0.13788274E+00 0.18371039E+04</pdfrwt>
<pdfrwt beam="2">  1       -1 0.14483410E+00 0.18371039E+04</pdfrwt>
<totfact> 0.66072988E+00</totfact>
</mgrwt>
</event>
<event>
12    1  0.1960998E-007  0.2283944E+04  0.7818608E-02  0.8484279E-01
          2   -1    0    0  501    0  0.00000000000E+00  0.00000000000E+00  0.86759471521E+03  0.86759471521E+03  0.00000000000E+00 0. -1.
         -2   -1    0    0    0  501 -0.00000000000E+00 -0.00000000000E+00 -0.15031209915E+04  0.15031209915E+04  0.00000000000E+00 0.  1.
         23    2    1    2    0    0  0.53375771164E+03 -0.80140903276E+03 -0.27154341276E+03  0.10040226285E+04  0.84686958821E+02 0.  0.
        254    2    1    2    0    0 -0.53375771164E+03  0.80140903276E+03 -0.36398286351E+03  0.13666930782E+04  0.89900651418E+03 0.  0.
        -24    2    4    4    0    0 -0.71205341894E+03  0.85171001387E+03 -0.33077498369E+03  0.11617898076E+04  0.88957563358E+02 0.  0.
         24    2    4    4    0    0  0.17829570730E+03 -0.50300981108E+02 -0.33207879824E+02  0.20490327059E+03  0.81012585903E+02 0.  0.
         11    1    3    3    0    0  0.43400852084E+03 -0.62891853225E+03 -0.18165640851E+03  0.78543043430E+03  0.00000000000E+00 0. -1.
        -11    1    3    3    0    0  0.99749190803E+02 -0.17249050051E+03 -0.89887004248E+02  0.21859219420E+03  0.00000000000E+00 0.  1.
          2    1    6    6  502    0  0.10547618007E+02  0.60474273044E+01 -0.24946163013E+02  0.27751300361E+02  0.00000000000E+00 0. -1.
          3    1    5    5  503    0 -0.23104422366E+03  0.21488114459E+03 -0.86378550751E+02  0.32713390778E+03  0.00000000000E+00 0. -1.
         -4    1    5    5    0  503 -0.48100919528E+03  0.63682886928E+03 -0.24439643293E+03  0.83465589983E+03  0.00000000000E+00 0.  1.
         -1    1    6    6    0  502  0.16774808929E+03 -0.56348408412E+02 -0.82617168105E+01  0.17715197023E+03  0.00000000000E+00 0.  1.
<mgrwt>
<rscale>  0 0.22839438E+04</rscale>
<asrwt>0</asrwt>
<pdfrwt beam="1">  1        2 0.13347611E+00 0.22839438E+04</pdfrwt>
<pdfrwt beam="2">  1       -2 0.23124938E+00 0.22839438E+04</pdfrwt>
<totfact> 0.23516454E+00</totfact>
</mgrwt>
</event>
<event>
12    1  0.1960998E-007  0.1740414E+04  0.7818608E-02  0.8738645E-01
         -4   -1    0    0    0  501 -0.00000000000E+00  0.00000000000E+00  0.19037946273E+04  0.19037946273E+04  0.00000000000E+00 0. -1.
          4   -1    0    0  501    0  0.00000000000E+00 -0.00000000000E+00 -0.39776353382E+03  0.39776353382E+03  0.00000000000E+00 0.  1.
         23    2    1    2    0    0 -0.47434602518E+03 -0.41745289354E+03  0.60037734054E+03  0.87614642655E+03  0.88929971289E+02 0.  0.
        254    2    1    2    0    0  0.47434602518E+03  0.41745289354E+03  0.90565375293E+03  0.14254117346E+04  0.90128731428E+03 0.  0.
        -24    2    4    4    0    0  0.72448319697E+03  0.23877588713E+03  0.51891032902E+03  0.92543097380E+03  0.72558464194E+02 0.  0.
         24    2    4    4    0    0 -0.25013717179E+03  0.17867700642E+03  0.38674342391E+03  0.49998076076E+03  0.76916889309E+02 0.  0.
         13    1    3    3    0    0 -0.27273078214E+03 -0.27551263158E+03  0.31920542963E+03  0.50217665815E+03  0.00000000000E+00 0. -1.
        -13    1    3    3    0    0 -0.20161524304E+03 -0.14194026196E+03  0.28117191091E+03  0.37396976840E+03  0.00000000000E+00 0.  1.
          4    1    6    6  502    0 -0.28052362014E+02  0.45620960919E+02  0.38100099169E+02  0.65725372927E+02  0.00000000000E+00 0. -1.
          3    1    5    5  503    0  0.33013535144E+02 -0.27968409877E+01  0.14936142354E+02  0.36342869599E+02  0.00000000000E+00 0. -1.
         -4    1    5    5    0  503  0.69146966183E+03  0.24157272812E+03  0.50397418667E+03  0.88908810420E+03  0.00000000000E+00 0.  1.
         -1    1    6    6    0  502 -0.22208480978E+03  0.13305604550E+03  0.34864332474E+03  0.43425538783E+03  0.00000000000E+00 0.  1.
<mgrwt>
<rscale>  0 0.17404138E+04</rscale>
<asrwt>0</asrwt>
<pdfrwt beam="1">  1        4 0.61194391E-01 0.17404138E+04</pdfrwt>
<pdfrwt beam="2">  1       -4 0.29289148E+00 0.17404138E+04</pdfrwt>
<totfact> 0.16364749E-01</totfact>
</mgrwt>
</event>
<event>
12    1  0.1960998E-007  0.1767656E+04  0.7818608E-02  0.8723691E-01
         -1   -1    0    0    0  501 -0.00000000000E+00  0.00000000000E+00  0.50921820568E+03  0.50921820568E+03  0.00000000000E+00 0.  1.
          1   -1    0    0  501    0  0.00000000000E+00 -0.00000000000E+00 -0.15340227249E+04  0.15340227249E+04  0.00000000000E+00 0. -1.
         23    2    1    2    0    0 -0.42544295244E+03 -0.19919821399E+03  0.14050919152E+03  0.49860033526E+03  0.90431339608E+02 0.  0.
        254    2    1    2    0    0  0.42544295244E+03  0.19919821399E+03 -0.11653137108E+04  0.15446405954E+04  0.89848588752E+03 0.  0.
        -24    2    4    4    0    0  0.52789129004E+03 -0.23254566969E+02 -0.24262558704E+03  0.58675721517E+03  0.78783660002E+02 0.  0.
         24    2    4    4    0    0 -0.10244833760E+03  0.22245278096E+03 -0.92268812375E+03  0.95788338020E+03  0.78780040180E+02 0.  0.
         13    1    3    3    0    0 -0.37682424017E+03 -0.18662067615E+03  0.15191172076E+03  0.44710284684E+03  0.00000000000E+00 0.  1.
        -13    1    3    3    0    0 -0.48618712265E+02 -0.12577537842E+02 -0.11402529240E+02  0.51497488420E+02  0.00000000000E+00 0. -1.
          2    1    6    6  502    0 -0.83733445017E+02  0.88152412268E+02 -0.44878514509E+03  0.46496262651E+03  0.00000000000E+00 0. -1.
          1    1    5    5  503    0  0.39111691971E+03  0.12833562685E+02 -0.19706495890E+03  0.43814580135E+03  0.00000000000E+00 0. -1.
         -2    1    5    5    0  503  0.13677437033E+03 -0.36088129654E+02 -0.45560628138E+02  0.14861141382E+03  0.00000000000E+00 0.  1.
         -1    1    6    6    0  502 -0.18714892583E+02  0.13430036869E+03 -0.47390297866E+03  0.49292075369E+03  0.00000000000E+00 0.  1.
<mgrwt>
<rscale>  0 0.17676564E+04</rscale>
<asrwt>0</asrwt>
<pdfrwt beam="1">  1        1 0.23600349E+00 0.17676564E+04</pdfrwt>
<pdfrwt beam="2">  1       -1 0.78341264E-01 0.17676564E+04</pdfrwt>
<totfact> 0.95616392E+00</totfact>
</mgrwt>
</event>
<event>
12    1  0.1960998E-007  0.1614908E+04  0.7818608E-02  0.8811441E-01
          2   -1    0    0  501    0  0.00000000000E+00  0.00000000000E+00  0.14610036472E+04  0.14610036472E+04  0.00000000000E+00 0. -1.
         -2   -1    0    0    0  501 -0.00000000000E+00 -0.00000000000E+00 -0.44625649227E+03  0.44625649227E+03  0.00000000000E+00 0.  1.
         23    2    1    2    0    0 -0.38362226565E+03  0.38635552748E+03  0.23118853673E+03  0.59574399164E+03  0.70895188455E+02 0.  0.
        254    2    1    2    0    0  0.38362226565E+03 -0.38635552748E+03  0.78355861816E+03  0.13115161478E+04  0.89981879372E+03 0.  0.
        -24    2    4    4    0    0  0.14832673243E+03 -0.50250845651E+03  0.87328356054E+03  0.10209989314E+04  0.72794727150E+02 0.  0.
         24    2    4    4    0    0  0.23529553322E+03  0.11615292903E+03 -0.89724942382E+02  0.29051721644E+03  0.86569029627E+02 0.  0.
         11    1    3    3    0    0 -0.34058656970E+02  0.50460652988E+02  0.58989390988E+01  0.61164263235E+02  0.00000000000E+00 0. -1.
        -11    1    3    3    0    0 -0.34956360868E+03  0.33589487449E+03  0.22528959763E+03  0.53457972841E+03  0.00000000000E+00 0.  1.
          4    1    6    6  502    0  0.18744171855E+03  0.12382211507E+03 -0.56147379926E+02  0.23155742766E+03  0.00000000000E+00 0. -1.
          1    1    5    5  503    0  0.32672791080E+02 -0.22858468280E+03  0.35530507004E+03  0.42374539677E+03  0.00000000000E+00 0. -1.
         -2    1    5    5    0  503  0.11565394135E+03 -0.27392377371E+03  0.51797849050E+03  0.59725353459E+03  0.00000000000E+00 0.  1.
         -3    1    6    6    0  502  0.47853814663E+02 -0.76691860380E+01 -0.33577562456E+02  0.58959788778E+02  0.00000000000E+00 0.  1.
<mgrwt>
<rscale>  0 0.16149085E+04</rscale>
<asrwt>0</asrwt>
<pdfrwt beam="1">  1        2 0.22476979E+00 0.16149085E+04</pdfrwt>
<pdfrwt beam="2">  1       -2 0.68654845E-01 0.16149085E+04</pdfrwt>
<totfact> 0.24808614E+01</totfact>
</mgrwt>
</event>
<event>
12    1  0.1960998E-007  0.1310727E+04  0.7818608E-02  0.9021101E-01
          1   -1    0    0  501    0  0.00000000000E+00  0.00000000000E+00  0.12335483345E+04  0.12335483345E+04  0.00000000000E+00 0. -1.
         -1   -1    0    0    0  501 -0.00000000000E+00 -0.00000000000E+00 -0.34818378375E+03  0.34818378375E+03  0.00000000000E+00 0.  1.
         23    2    1    2    0    0 -0.28072907287E+03 -0.17190854490E+03  0.32658028240E+03  0.47243768230E+03  0.90450664146E+02 0.  0.
        254    2    1    2    0    0  0.28072907287E+03  0.17190854490E+03  0.55878426837E+03  0.11092944360E+04  0.89996273640E+03 0.  0.
        -24    2    4    4    0    0  0.30529264762E+03 -0.25015130829E+03 -0.19597129512E+01  0.40248010363E+03  0.78785249954E+02 0.  0.
         24    2    4    4    0    0 -0.24563574754E+02  0.42205985319E+03  0.56074398132E+03  0.70681433233E+03  0.80092439853E+02 0.  0.
         11    1    3    3    0    0 -0.22371028643E+03 -0.16886413000E+03  0.24152900541E+03  0.36999682041E+03  0.00000000000E+00 0. -1.
        -11    1    3    3    0    0 -0.57018786439E+02 -0.30444149006E+01  0.85051276986E+02  0.10244086190E+03  0.00000000000E+00 0.  1.
          4    1    6    6  502    0 -0.34526080958E+02  0.15267100861E+03  0.15993526510E+03  0.22378511156E+03  0.00000000000E+00 0. -1.
          1    1    5    5  503    0  0.29438201750E+03 -0.24907515807E+03 -0.14417807315E+02  0.38588480116E+03  0.00000000000E+00 0. -1.
         -2    1    5    5    0  503  0.10910630123E+02 -0.10761502190E+01  0.12458094364E+02  0.16595302473E+02  0.00000000000E+00 0.  1.
         -1    1    6    6    0  502  0.99625062042E+01  0.26938884458E+03  0.40080871622E+03  0.48302922077E+03  0.00000000000E+00 0.  1.
<mgrwt>
<rscale>  0 0.13107273E+04</rscale>
<asrwt>0</asrwt>
<pdfrwt beam="1">  1        1 0.18977666E+00 0.13107273E+04</pdfrwt>
<pdfrwt beam="2">  1       -1 0.53566737E-01 0.13107273E+04</pdfrwt>
<totfact> 0.34864278E+01</totfact>
</mgrwt>
</event>
<event>
12    1  0.1960998E-007  0.2966438E+04  0.7818608E-02  0.8253380E-01
          2   -1    0    0  501    0  0.00000000000E+00  0.00000000000E+00  0.30141823734E+04  0.30141823734E+04  0.00000000000E+00 0. -1.
         -2   -1    0    0    0  501 -0.00000000000E+00 -0.00000000000E+00 -0.72986250274E+03  0.72986250274E+03  0.00000000000E+00 0.  1.
         23    2    1    2    0    0  0.60107940766E+03  0.45990052292E+03  0.24397817462E+04  0.25560752714E+04  0.90448207343E+02 0.  0.
        254    2    1    2    0    0 -0.60107940766E+03 -0.45990052292E+03 -0.15546187563E+03  0.11879696047E+04  0.90238486342E+03 0.  0.
        -24    2    4    4    0    0 -0.83095776616E+03 -0.31950156477E+03 -0.16041576844E+03  0.90831278946E+03  0.82017349988E+02 0.  0.
         24    2    4    4    0    0  0.22987835850E+03 -0.14039895815E+03  0.49538928114E+01  0.27965681529E+03  0.75016439034E+02 0.  0.
         11    1    3    3    0    0  0.35645342975E+03  0.28031593787E+03  0.16056086638E+04  0.16684169904E+04  0.00000000000E+00 0. -1.
        -11    1    3    3    0    0  0.24462597791E+03  0.17958458504E+03  0.83417308242E+03  0.88765828092E+03  0.00000000000E+00 0.  1.
          2    1    6    6  502    0  0.84673567494E+02 -0.82555832704E+02  0.28361682293E+02  0.12161193843E+03  0.00000000000E+00 0. -1.
          3    1    5    5  503    0 -0.26996398535E+03 -0.67598260475E+02 -0.67623844845E+02  0.28639668748E+03  0.00000000000E+00 0. -1.
         -4    1    5    5    0  503 -0.56099378080E+03 -0.25190330429E+03 -0.92791923595E+02  0.62191610198E+03  0.00000000000E+00 0.  1.
         -1    1    6    6    0  502  0.14520479101E+03 -0.57843125446E+02 -0.23407789482E+02  0.15804487686E+03  0.00000000000E+00 0.  1.
<mgrwt>
<rscale>  0 0.29664381E+04</rscale>
<asrwt>0</asrwt>
<pdfrwt beam="1">  1        2 0.46372036E+00 0.29664381E+04</pdfrwt>
<pdfrwt beam="2">  1       -2 0.11228654E+00 0.29664381E+04</pdfrwt>
<totfact> 0.91459787E-01</totfact>
</mgrwt>
</event>
<event>
12    1  0.1960998E-007  0.2733597E+04  0.7818608E-02  0.8324185E-01
         -2   -1    0    0    0  501 -0.00000000000E+00  0.00000000000E+00  0.21795834019E+04  0.21795834019E+04  0.00000000000E+00 0. -1.
          2   -1    0    0  501    0  0.00000000000E+00 -0.00000000000E+00 -0.85710799947E+03  0.85710799947E+03  0.00000000000E+00 0.  1.
         23    2    1    2    0    0  0.51497426109E+03 -0.10988132541E+04  0.54824622621E+03  0.13347227034E+04  0.91223424956E+02 0.  0.
        254    2    1    2    0    0 -0.51497426109E+03  0.10988132541E+04  0.77422917618E+03  0.17019686980E+04  0.90811759956E+03 0.  0.
        -24    2    4    4    0    0 -0.27260430754E+03 -0.90560736613E+02  0.17779077476E+03  0.34696025586E+03  0.79104387016E+02 0.  0.
         24    2    4    4    0    0 -0.24236995354E+03  0.11893739907E+04  0.59643840142E+03  0.13550084421E+04  0.83399204512E+02 0.  0.
         13    1    3    3    0    0  0.30166520317E+03 -0.62016646476E+03  0.35966875123E+03  0.77779814182E+03  0.00000000000E+00 0.  1.
        -13    1    3    3    0    0  0.21330905791E+03 -0.47864678937E+03  0.18857747499E+03  0.55692456153E+03  0.00000000000E+00 0. -1.
          4    1    6    6  502    0 -0.10685461408E+03  0.46217625577E+03  0.19015768141E+03  0.51106236777E+03  0.00000000000E+00 0. -1.
          1    1    5    5  503    0 -0.38959474772E+02 -0.19585143612E+02  0.64292110681E+02  0.77684580328E+02  0.00000000000E+00 0. -1.
         -2    1    5    5    0  503 -0.23364483277E+03 -0.70975593001E+02  0.11349866408E+03  0.26927567553E+03  0.00000000000E+00 0.  1.
         -3    1    6    6    0  502 -0.13551533947E+03  0.72719773497E+03  0.40628072000E+03  0.84394607436E+03  0.00000000000E+00 0.  1.
<mgrwt>
<rscale>  0 0.27335972E+04</rscale>
<asrwt>0</asrwt>
<pdfrwt beam="1">  1        2 0.13186277E+00 0.27335972E+04</pdfrwt>
<pdfrwt beam="2">  1       -2 0.33532052E+00 0.27335972E+04</pdfrwt>
<totfact> 0.52804452E-01</totfact>
</mgrwt>
</event>
<event>
12    1  0.1960998E-007  0.1746898E+04  0.7818608E-02  0.8735059E-01
          2   -1    0    0  501    0  0.00000000000E+00  0.00000000000E+00  0.19667593235E+04  0.19667593235E+04  0.00000000000E+00 0. -1.
         -2   -1    0    0    0  501 -0.00000000000E+00 -0.00000000000E+00 -0.38790384303E+03  0.38790384303E+03  0.00000000000E+00 0.  1.
         23    2    1    2    0    0  0.47547106062E+03  0.11467618444E+03  0.11322752685E+04  0.12366734671E+04  0.89947895464E+02 0.  0.
        254    2    1    2    0    0 -0.47547106062E+03 -0.11467618444E+03  0.44658021202E+03  0.11179896995E+04  0.90069069360E+03 0.  0.
        -24    2    4    4    0    0  0.69295971023E+02  0.13783143112E+03 -0.17745748574E+03  0.24836880413E+03  0.79977925805E+02 0.  0.
         24    2    4    4    0    0 -0.54476703165E+03 -0.25250761555E+03  0.62403769777E+03  0.86962089532E+03  0.79285803658E+02 0.  0.
         13    1    3    3    0    0  0.19500886131E+03  0.42834431014E+02  0.35598571434E+03  0.40815324730E+03  0.00000000000E+00 0.  1.
        -13    1    3    3    0    0  0.28046219931E+03  0.71841753424E+02  0.77628955412E+03  0.82852021979E+03  0.00000000000E+00 0. -1.
          2    1    6    6  502    0 -0.43613687081E+03 -0.23092009261E+03  0.48581815630E+03  0.69250179801E+03  0.00000000000E+00 0. -1.
          3    1    5    5  503    0  0.65664939964E+02  0.13012596256E+03 -0.18599921519E+03  0.23630564641E+03  0.00000000000E+00 0. -1.
         -4    1    5    5    0  503  0.36310310589E+01  0.77054685552E+01  0.85417294505E+01  0.12063157721E+02  0.00000000000E+00 0.  1.
         -1    1    6    6    0  502 -0.10863016083E+03 -0.21587522946E+02  0.13821954146E+03  0.17711909731E+03  0.00000000000E+00 0.  1.
<mgrwt>
<rscale>  0 0.17468984E+04</rscale>
<asrwt>0</asrwt>
<pdfrwt beam="1">  1        2 0.30257835E+00 0.17468984E+04</pdfrwt>
<pdfrwt beam="2">  1       -2 0.59677515E-01 0.17468984E+04</pdfrwt>
<totfact> 0.17315220E+01</totfact>
</mgrwt>
</event>
<event>
12    1  0.1960998E-007  0.2549975E+04  0.7818608E-02  0.8385395E-01
          1   -1    0    0  501    0  0.00000000000E+00  0.00000000000E+00  0.12798985215E+04  0.12798985215E+04  0.00000000000E+00 0. -1.
         -1   -1    0    0    0  501 -0.00000000000E+00 -0.00000000000E+00 -0.12700957360E+04  0.12700957360E+04  0.00000000000E+00 0.  1.
         23    2    1    2    0    0 -0.49215949222E+03 -0.85062544773E+03 -0.51843774652E+03  0.11147309307E+04  0.89792720715E+02 0.  0.
        254    2    1    2    0    0  0.49215949222E+03  0.85062544773E+03  0.52824053199E+03  0.14352633268E+04  0.90286108535E+03 0.  0.
        -24    2    4    4    0    0  0.58932048195E+03  0.80785235040E+03  0.69667582868E+03  0.12214016112E+04  0.80874193428E+02 0.  0.
         24    2    4    4    0    0 -0.97160989728E+02  0.42773097329E+02 -0.16843529669E+03  0.21386171554E+03  0.78080653321E+02 0.  0.
         13    1    3    3    0    0 -0.42836087395E+03 -0.75307448710E+03 -0.48756899511E+03  0.99415177234E+03  0.00000000000E+00 0.  1.
        -13    1    3    3    0    0 -0.63798618276E+02 -0.97550960629E+02 -0.30868751412E+02  0.12057915835E+03  0.00000000000E+00 0. -1.
          2    1    6    6  502    0  0.46164263729E+01  0.28036092425E+02 -0.44745739777E+02  0.53004859203E+02  0.00000000000E+00 0. -1.
          1    1    5    5  503    0  0.72530798222E+01  0.16931236706E+02  0.27356366818E+02  0.32979459498E+02  0.00000000000E+00 0. -1.
         -2    1    5    5    0  503  0.58206740213E+03  0.79092111369E+03  0.66931946186E+03  0.11884221517E+04  0.00000000000E+00 0.  1.
         -1    1    6    6    0  502 -0.10177741610E+03  0.14737004904E+02 -0.12368955691E+03  0.16085685634E+03  0.00000000000E+00 0.  1.
<mgrwt>
<rscale>  0 0.25499754E+04</rscale>
<asrwt>0</asrwt>
<pdfrwt beam="1">  1        1 0.19690746E+00 0.25499754E+04</pdfrwt>
<pdfrwt beam="2">  1       -1 0.19539934E+00 0.25499754E+04</pdfrwt>
<totfact> 0.13398514E+00</totfact>
</mgrwt>
</event>
<event>
12    1  0.1960998E-007  0.1163769E+04  0.7818608E-02  0.9145174E-01
         -4   -1    0    0    0  501 -0.00000000000E+00  0.00000000000E+00  0.52765925436E+03  0.52765925436E+03  0.00000000000E+00 0. -1.
          4   -1    0    0  501    0  0.00000000000E+00 -0.00000000000E+00 -0.64168253764E+03  0.64168253764E+03  0.00000000000E+00 0.  1.
         23    2    1    2    0    0  0.12359092419E+03  0.14626721121E+03  0.83445151484E+02  0.22819120510E+03  0.91865767074E+02 0.  0.
        254    2    1    2    0    0 -0.12359092419E+03 -0.14626721121E+03 -0.19746843477E+03  0.94115058690E+03  0.90005657093E+03 0.  0.
        -24    2    4    4    0    0 -0.29766609626E+03 -0.26422096926E+03  0.22375594516E+03  0.46345812832E+03  0.79428510317E+02 0.  0.
         24    2    4    4    0    0  0.17407517207E+03  0.11795375805E+03 -0.42122437992E+03  0.47769245858E+03  0.80900260682E+02 0.  0.
         13    1    3    3    0    0  0.55537726899E+01  0.57637208775E+01  0.38418022066E+02  0.39242952092E+02  0.00000000000E+00 0. -1.
        -13    1    3    3    0    0  0.11803715150E+03  0.14050349033E+03  0.45027129418E+02  0.18894825301E+03  0.00000000000E+00 0.  1.
          2    1    6    6  502    0  0.70817861481E+01  0.37988846142E+02 -0.95507504470E+02  0.10302906161E+03  0.00000000000E+00 0. -1.
          3    1    5    5  503    0 -0.21561614986E+03 -0.21629556027E+03  0.20141964005E+03  0.36584691453E+03  0.00000000000E+00 0. -1.
         -4    1    5    5    0  503 -0.82049946399E+02 -0.47925408993E+02  0.22336305101E+02  0.97611213786E+02  0.00000000000E+00 0.  1.
         -1    1    6    6    0  502  0.16699338592E+03  0.79964911909E+02 -0.32571687545E+03  0.37466339697E+03  0.00000000000E+00 0.  1.
<mgrwt>
<rscale>  0 0.11637693E+04</rscale>
<asrwt>0</asrwt>
<pdfrwt beam="1">  1        4 0.98720390E-01 0.11637693E+04</pdfrwt>
<pdfrwt beam="2">  1       -4 0.81178347E-01 0.11637693E+04</pdfrwt>
<totfact> 0.22525801E+00</totfact>
</mgrwt>
</event>
<event>
12    1  0.1960998E-007  0.4089747E+04  0.7818608E-02  0.7986682E-01
         -1   -1    0    0    0  501 -0.00000000000E+00  0.00000000000E+00  0.16290106999E+04  0.16290106999E+04  0.00000000000E+00 0.  1.
          1   -1    0    0  501    0  0.00000000000E+00 -0.00000000000E+00 -0.25669000171E+04  0.25669000171E+04  0.00000000000E+00 0. -1.
         23    2    1    2    0    0 -0.88018582618E+03  0.16801337875E+04 -0.56222533886E+01  0.18988205817E+04  0.88945822457E+02 0.  0.
        254    2    1    2    0    0  0.88018582618E+03 -0.16801337875E+04 -0.93226706377E+03  0.22970901353E+04  0.89995809839E+03 0.  0.
        -24    2    4    4    0    0  0.46430600430E+03 -0.10733212112E+04 -0.89409891214E+02  0.11754993901E+04  0.78779435083E+02 0.  0.
         24    2    4    4    0    0  0.41587982188E+03 -0.60681257633E+03 -0.84285717256E+03  0.11215907452E+04  0.79875261328E+02 0.  0.
         11    1    3    3    0    0 -0.13972852668E+03  0.30384874348E+03 -0.30195842719E+02  0.33579742256E+03  0.00000000000E+00 0.  1.
        -11    1    3    3    0    0 -0.74045729950E+03  0.13762850440E+04  0.24573589331E+02  0.15630231592E+04  0.00000000000E+00 0. -1.
          2    1    6    6  502    0  0.54225851478E+02 -0.48479214617E+02 -0.60190948024E+02  0.94412008995E+02  0.00000000000E+00 0. -1.
          1    1    5    5  503    0  0.22908016799E+03 -0.56848682213E+03 -0.83122074540E+02  0.61851780054E+03  0.00000000000E+00 0. -1.
         -2    1    5    5    0  503  0.23522583630E+03 -0.50483438906E+03 -0.62878166745E+01  0.55698158954E+03  0.00000000000E+00 0.  1.
         -1    1    6    6    0  502  0.36165397040E+03 -0.55833336171E+03 -0.78266622453E+03  0.10271787362E+04  0.00000000000E+00 0.  1.
<mgrwt>
<rscale>  0 0.40897470E+04</rscale>
<asrwt>0</asrwt>
<pdfrwt beam="1">  1        1 0.39490769E+00 0.40897470E+04</pdfrwt>
<pdfrwt beam="2">  1       -1 0.25061703E+00 0.40897470E+04</pdfrwt>
<totfact> 0.65310915E-02</totfact>
</mgrwt>
</event>
<event>
12    1  0.1960998E-007  0.1233331E+04  0.7818608E-02  0.9084172E-01
         -1   -1    0    0    0  501 -0.00000000000E+00  0.00000000000E+00  0.57864869073E+03  0.57864869073E+03  0.00000000000E+00 0.  1.
          1   -1    0    0  501    0  0.00000000000E+00 -0.00000000000E+00 -0.65717957724E+03  0.65717957724E+03  0.00000000000E+00 0. -1.
         23    2    1    2    0    0  0.21132106608E+03 -0.12358621173E+03 -0.15290110993E+03  0.30267946179E+03  0.91137053263E+02 0.  0.
        254    2    1    2    0    0 -0.21132106608E+03  0.12358621173E+03  0.74370223420E+02  0.93314880618E+03  0.89738822125E+03 0.  0.
        -24    2    4    4    0    0 -0.92218680939E+02  0.27849596631E+03 -0.34798167812E+03  0.46232629443E+03  0.81179220561E+02 0.  0.
         24    2    4    4    0    0 -0.11910238514E+03 -0.15490975458E+03  0.42235190154E+03  0.47082251175E+03  0.71486352709E+02 0.  0.
         11    1    3    3    0    0  0.11853829392E+01 -0.31264675870E+02 -0.12995713517E+02  0.33878808417E+02  0.00000000000E+00 0. -1.
        -11    1    3    3    0    0  0.21013568314E+03 -0.92321535860E+02 -0.13990539641E+03  0.26880065338E+03  0.00000000000E+00 0.  1.
          2    1    6    6  502    0 -0.24109947466E+02 -0.88470373716E+02  0.20202742164E+03  0.22186341674E+03  0.00000000000E+00 0. -1.
          1    1    5    5  503    0 -0.55545446748E+02  0.23113194769E+03 -0.23399422642E+03  0.33355744916E+03  0.00000000000E+00 0. -1.
         -2    1    5    5    0  503 -0.36673234191E+02  0.47364018625E+02 -0.11398745170E+03  0.12876884527E+03  0.00000000000E+00 0.  1.
         -1    1    6    6    0  502 -0.94992437671E+02 -0.66439380866E+02  0.22032447990E+03  0.24895909501E+03  0.00000000000E+00 0.  1.
<mgrwt>
<rscale>  0 0.12333306E+04</rscale>
<asrwt>0</asrwt>
<pdfrwt beam="1">  1        1 0.10110455E+00 0.12333306E+04</pdfrwt>
<pdfrwt beam="2">  1       -1 0.89022876E-01 0.12333306E+04</pdfrwt>
<totfact> 0.36626708E+01</totfact>
</mgrwt>
</event>
<event>
12    1  0.1960998E-007  0.2036304E+04  0.7818608E-02  0.8589833E-01
         -1   -1    0    0    0  501 -0.00000000000E+00  0.00000000000E+00  0.11814052227E+04  0.11814052227E+04  0.00000000000E+00 0. -1.
          1   -1    0    0  501    0  0.00000000000E+00 -0.00000000000E+00 -0.87745768909E+03  0.87745768909E+03  0.00000000000E+00 0.  1.
         23    2    1    2    0    0  0.28757567776E+03  0.27759544195E+03 -0.59727054898E+03  0.72442029035E+03  0.91069471051E+02 0.  0.
        254    2    1    2    0    0 -0.28757567776E+03 -0.27759544195E+03  0.90121808260E+03  0.13344426215E+04  0.89932423392E+03 0.  0.
        -24    2    4    4    0    0 -0.33105336006E+03 -0.35323753758E+02 -0.53841208122E+02  0.34477368022E+03  0.71595531238E+02 0.  0.
         24    2    4    4    0    0  0.43477682296E+02 -0.24227168819E+03  0.95505929072E+03  0.98966894124E+03  0.81978562396E+02 0.  0.
         13    1    3    3    0    0  0.25158630177E+03  0.27283590914E+03 -0.51794970285E+03  0.63718678206E+03  0.00000000000E+00 0.  1.
        -13    1    3    3    0    0  0.35989375988E+02  0.47595328117E+01 -0.79320846134E+02  0.87233508286E+02  0.00000000000E+00 0. -1.
          2    1    6    6  502    0 -0.19498227459E+02 -0.19299782525E+02  0.87203576104E+02  0.91417318736E+02  0.00000000000E+00 0. -1.
          3    1    5    5  503    0 -0.36535882271E+02 -0.18084881984E+02 -0.26200093324E+02  0.48460071604E+02  0.00000000000E+00 0. -1.
         -4    1    5    5    0  503 -0.29451747779E+03 -0.17238871774E+02 -0.27641114798E+02  0.29631360861E+03  0.00000000000E+00 0.  1.
         -1    1    6    6    0  502  0.62975909754E+02 -0.22297190567E+03  0.86785571462E+03  0.89825162250E+03  0.00000000000E+00 0.  1.
<mgrwt>
<rscale>  0 0.20363036E+04</rscale>
<asrwt>0</asrwt>
<pdfrwt beam="1">  1        1 0.13499349E+00 0.20363036E+04</pdfrwt>
<pdfrwt beam="2">  1       -1 0.18175465E+00 0.20363036E+04</pdfrwt>
<totfact> 0.35508672E+00</totfact>
</mgrwt>
</event>
<event>
12    1  0.1960998E-007  0.3831733E+04  0.7818608E-02  0.8039379E-01
          2   -1    0    0  501    0  0.00000000000E+00  0.00000000000E+00  0.32458512496E+04  0.32458512496E+04  0.00000000000E+00 0. -1.
         -2   -1    0    0    0  501 -0.00000000000E+00 -0.00000000000E+00 -0.11308415651E+04  0.11308415651E+04  0.00000000000E+00 0.  1.
         23    2    1    2    0    0 -0.16951766231E+04  0.61963832417E+03  0.11472100629E+04  0.21403326173E+04  0.85774982597E+02 0.  0.
        254    2    1    2    0    0  0.16951766231E+04 -0.61963832417E+03  0.96779962154E+03  0.22363601975E+04  0.89838487809E+03 0.  0.
        -24    2    4    4    0    0  0.80825406722E+03 -0.66497098258E+03  0.82132576987E+03  0.13327191724E+04  0.78123795268E+02 0.  0.
         24    2    4    4    0    0  0.88692255590E+03  0.45332658408E+02  0.14647385167E+03  0.90364102510E+03  0.80161355677E+02 0.  0.
         13    1    3    3    0    0 -0.66322739649E+03  0.27714123231E+03  0.42534123660E+03  0.83522033599E+03  0.00000000000E+00 0. -1.
        -13    1    3    3    0    0 -0.10319492266E+04  0.34249709187E+03  0.72186882633E+03  0.13051122813E+04  0.00000000000E+00 0.  1.
          2    1    6    6  502    0  0.56178801415E+03 -0.36296458670E+01  0.11391339477E+03  0.57323224672E+03  0.00000000000E+00 0. -1.
          1    1    5    5  503    0  0.30059304813E+03 -0.29308933717E+03  0.31013005817E+03  0.52195612184E+03  0.00000000000E+00 0. -1.
         -2    1    5    5    0  503  0.50766101910E+03 -0.37188164542E+03  0.51119571170E+03  0.81076305057E+03  0.00000000000E+00 0.  1.
         -1    1    6    6    0  502  0.32513454175E+03  0.48962304275E+02  0.32560456898E+02  0.33040877839E+03  0.00000000000E+00 0.  1.
<mgrwt>
<rscale>  0 0.38317325E+04</rscale>
<asrwt>0</asrwt>
<pdfrwt beam="1">  1        2 0.49936173E+00 0.38317325E+04</pdfrwt>
<pdfrwt beam="2">  1       -2 0.17397563E+00 0.38317325E+04</pdfrwt>
<totfact> 0.19308163E-01</totfact>
</mgrwt>
</event>
<event>
12    1  0.1960998E-007  0.2532335E+04  0.7818608E-02  0.8391556E-01
          2   -1    0    0  501    0  0.00000000000E+00  0.00000000000E+00  0.30131989358E+04  0.30131989358E+04  0.00000000000E+00 0. -1.
         -2   -1    0    0    0  501 -0.00000000000E+00 -0.00000000000E+00 -0.53205272189E+03  0.53205272189E+03  0.00000000000E+00 0.  1.
         23    2    1    2    0    0  0.53184256407E+03 -0.79667413362E+03  0.31681037526E+03  0.10131701177E+04  0.92729096945E+02 0.  0.
        254    2    1    2    0    0 -0.53184256407E+03  0.79667413362E+03  0.21643358386E+04  0.25320815399E+04  0.89974502748E+03 0.  0.
        -24    2    4    4    0    0 -0.48761250047E+03  0.86343922789E+00  0.62251897003E+03  0.79463600764E+03  0.78420790874E+02 0.  0.
         24    2    4    4    0    0 -0.44230063595E+02  0.79581069439E+03  0.15418168686E+04  0.17374455323E+04  0.79036457725E+02 0.  0.
         11    1    3    3    0    0  0.28160946279E+03 -0.50365256422E+03  0.18972144551E+03  0.60742408733E+03  0.00000000000E+00 0.  1.
        -11    1    3    3    0    0  0.25023310128E+03 -0.29302156939E+03  0.12708892974E+03  0.40574603038E+03  0.00000000000E+00 0. -1.
          4    1    6    6  502    0 -0.27104740410E+01  0.56730970629E+03  0.10464007429E+04  0.11902949905E+04  0.00000000000E+00 0. -1.
          1    1    5    5  503    0 -0.38734094098E+03 -0.25426247628E+00  0.54119762824E+03  0.66552831797E+03  0.00000000000E+00 0. -1.
         -2    1    5    5    0  503 -0.10027155949E+03  0.11177017042E+01  0.81321341787E+02  0.12910768966E+03  0.00000000000E+00 0.  1.
         -3    1    6    6    0  502 -0.41519589554E+02  0.22850098810E+03  0.49541612566E+03  0.54715054185E+03  0.00000000000E+00 0.  1.
<mgrwt>
<rscale>  0 0.25323354E+04</rscale>
<asrwt>0</asrwt>
<pdfrwt beam="1">  1        2 0.46356906E+00 0.25323354E+04</pdfrwt>
<pdfrwt beam="2">  1       -2 0.81854266E-01 0.25323354E+04</pdfrwt>
<totfact> 0.19947227E+00</totfact>
</mgrwt>
</event>
<event>
12    1  0.1960998E-007  0.4694720E+04  0.7818608E-02  0.7877406E-01
         -2   -1    0    0    0  501 -0.00000000000E+00  0.00000000000E+00  0.29081186159E+04  0.29081186159E+04  0.00000000000E+00 0.  1.
          2   -1    0    0  501    0  0.00000000000E+00 -0.00000000000E+00 -0.18947300627E+04  0.18947300627E+04  0.00000000000E+00 0. -1.
         23    2    1    2    0    0  0.18974437399E+04  0.12033512417E+04  0.73771621663E+03  0.23665602235E+04  0.89638821248E+02 0.  0.
        254    2    1    2    0    0 -0.18974437399E+04 -0.12033512417E+04  0.27567233658E+03  0.24362884551E+04  0.90064379313E+03 0.  0.
        -24    2    4    4    0    0 -0.16063800213E+04 -0.13217813133E+04  0.33294881301E+03  0.21082329288E+04  0.78921206458E+02 0.  0.
         24    2    4    4    0    0 -0.29106371858E+03  0.11843007157E+03 -0.57276476426E+02  0.32805552629E+03  0.74806840941E+02 0.  0.
         11    1    3    3    0    0  0.43226214277E+03  0.31638730130E+03  0.16149612925E+03  0.55949306006E+03  0.00000000000E+00 0.  1.
        -11    1    3    3    0    0  0.14651815971E+04  0.88696394040E+03  0.57622008739E+03  0.18070671634E+04  0.00000000000E+00 0. -1.
          2    1    6    6  502    0 -0.27689703965E+03  0.12820864717E+03 -0.49345665043E+02  0.30910260826E+03  0.00000000000E+00 0. -1.
          3    1    5    5  503    0 -0.12372388993E+04 -0.10404887287E+04  0.28685774180E+03  0.16418478165E+04  0.00000000000E+00 0. -1.
         -4    1    5    5    0  503 -0.36914112202E+03 -0.28129258455E+03  0.46091071206E+02  0.46638511226E+03  0.00000000000E+00 0.  1.
         -1    1    6    6    0  502 -0.14166678933E+02 -0.97785755966E+01 -0.79308113835E+01  0.18952918031E+02  0.00000000000E+00 0.  1.
<mgrwt>
<rscale>  0 0.46947203E+04</rscale>
<asrwt>0</asrwt>
<pdfrwt beam="1">  1        2 0.29149693E+00 0.46947203E+04</pdfrwt>
<pdfrwt beam="2">  1       -2 0.44740287E+00 0.46947203E+04</pdfrwt>
<totfact> 0.20626435E-02</totfact>
</mgrwt>
</event>
<event>
12    1  0.1960998E-007  0.2594404E+04  0.7818608E-02  0.8370105E-01
         -2   -1    0    0    0  501 -0.00000000000E+00  0.00000000000E+00  0.83615258096E+03  0.83615258096E+03  0.00000000000E+00 0.  1.
          2   -1    0    0  501    0  0.00000000000E+00 -0.00000000000E+00 -0.20124705811E+04  0.20124705811E+04  0.00000000000E+00 0. -1.
         23    2    1    2    0    0 -0.82677304281E+03  0.76999862723E+03 -0.67817298552E+03  0.13210069812E+04  0.93216392980E+02 0.  0.
        254    2    1    2    0    0  0.82677304281E+03 -0.76999862723E+03 -0.49814501462E+03  0.15276161808E+04  0.89945049343E+03 0.  0.
        -24    2    4    4    0    0 -0.13297695708E+03 -0.30875794042E+03  0.85776968826E+01  0.34560408908E+03  0.79713691533E+02 0.  0.
         24    2    4    4    0    0  0.95974999989E+03 -0.46124068681E+03 -0.50672271150E+03  0.11820120918E+04  0.80756704111E+02 0.  0.
         11    1    3    3    0    0 -0.51249247687E+03  0.41469652402E+03 -0.39896404761E+03  0.77058033791E+03  0.00000000000E+00 0.  1.
        -11    1    3    3    0    0 -0.31428056593E+03  0.35530210321E+03 -0.27920893792E+03  0.55042664333E+03  0.00000000000E+00 0. -1.
          4    1    6    6  502    0  0.81937745366E+03 -0.36998206969E+03 -0.44892026384E+03  0.10048858377E+04  0.00000000000E+00 0. -1.
          3    1    5    5  503    0 -0.12732640860E+02 -0.12480636257E+03  0.97859230776E+01  0.12583525966E+03  0.00000000000E+00 0. -1.
         -4    1    5    5    0  503 -0.12024431622E+03 -0.18395157785E+03 -0.12082261950E+01  0.21976882943E+03  0.00000000000E+00 0.  1.
         -3    1    6    6    0  502  0.14037254623E+03 -0.91258617114E+02 -0.57802447664E+02  0.17712625409E+03  0.00000000000E+00 0.  1.
<mgrwt>
<rscale>  0 0.25944036E+04</rscale>
<asrwt>0</asrwt>
<pdfrwt beam="1">  1        2 0.30961085E+00 0.25944036E+04</pdfrwt>
<pdfrwt beam="2">  1       -2 0.12863886E+00 0.25944036E+04</pdfrwt>
<totfact> 0.25954534E+00</totfact>
</mgrwt>
</event>
<event>
12    1  0.1960998E-007  0.2525840E+04  0.7818608E-02  0.8393837E-01
          2   -1    0    0  501    0  0.00000000000E+00  0.00000000000E+00  0.14765492387E+04  0.14765492387E+04  0.00000000000E+00 0. -1.
         -2   -1    0    0    0  501 -0.00000000000E+00 -0.00000000000E+00 -0.10801990262E+04  0.10801990262E+04  0.00000000000E+00 0.  1.
         23    2    1    2    0    0  0.56616409542E+03 -0.59980460702E+03  0.91099176895E+03  0.12322674582E+04  0.90938088375E+02 0.  0.
        254    2    1    2    0    0 -0.56616409542E+03  0.59980460702E+03 -0.51464155644E+03  0.13244808066E+04  0.89949214893E+03 0.  0.
        -24    2    4    4    0    0 -0.27136010909E+02  0.34596815340E+03  0.18563025354E+03  0.40172633659E+03  0.80592383146E+02 0.  0.
         24    2    4    4    0    0 -0.53902808451E+03  0.25383645361E+03 -0.70027180998E+03  0.92275447004E+03  0.78172776962E+02 0.  0.
         13    1    3    3    0    0  0.26460995821E+03 -0.34615506798E+03  0.48512996298E+03  0.65206812685E+03  0.00000000000E+00 0.  1.
        -13    1    3    3    0    0  0.30155413721E+03 -0.25364953904E+03  0.42586180597E+03  0.58019933136E+03  0.00000000000E+00 0. -1.
          4    1    6    6  502    0 -0.23707042255E+02 -0.22154276753E+01 -0.43262511315E+02  0.49381948701E+02  0.00000000000E+00 0. -1.
          3    1    5    5  503    0  0.27959590501E+02  0.14678923521E+03  0.71627070325E+02  0.16570834462E+03  0.00000000000E+00 0. -1.
         -4    1    5    5    0  503 -0.55095601410E+02  0.19917891820E+03  0.11400318322E+03  0.23601799197E+03  0.00000000000E+00 0.  1.
         -3    1    6    6    0  502 -0.51532104225E+03  0.25605188129E+03 -0.65700929867E+03  0.87337252134E+03  0.00000000000E+00 0.  1.
<mgrwt>
<rscale>  0 0.25258401E+04</rscale>
<asrwt>0</asrwt>
<pdfrwt beam="1">  1        2 0.22716142E+00 0.25258401E+04</pdfrwt>
<pdfrwt beam="2">  1       -2 0.16618446E+00 0.25258401E+04</pdfrwt>
<totfact> 0.26443937E+00</totfact>
</mgrwt>
</event>
<event>
12    1  0.1960998E-007  0.3005989E+04  0.7818608E-02  0.8242023E-01
          2   -1    0    0  501    0  0.00000000000E+00  0.00000000000E+00  0.22056204459E+04  0.22056204459E+04  0.00000000000E+00 0.  1.
         -2   -1    0    0    0  501 -0.00000000000E+00 -0.00000000000E+00 -0.10241985123E+04  0.10241985123E+04  0.00000000000E+00 0. -1.
         23    2    1    2    0    0  0.97523572750E+03  0.57104707432E+03  0.13650971137E+04  0.17746968797E+04  0.94230566345E+02 0.  0.
        254    2    1    2    0    0 -0.97523572750E+03 -0.57104707432E+03 -0.18367518006E+03  0.14551220785E+04  0.89803352181E+03 0.  0.
        -24    2    4    4    0    0 -0.40004258965E+03 -0.24412106420E+03 -0.52370296931E+03  0.70693119183E+03  0.76535889616E+02 0.  0.
         24    2    4    4    0    0 -0.57519313785E+03 -0.32692601012E+03  0.34002778924E+03  0.74819088668E+03  0.80267948290E+02 0.  0.
         13    1    3    3    0    0  0.13759385239E+03  0.12044667647E+03  0.22502839341E+03  0.28996076964E+03  0.00000000000E+00 0.  1.
        -13    1    3    3    0    0  0.83764187511E+03  0.45060039785E+03  0.11400687203E+04  0.14847361100E+04  0.00000000000E+00 0. -1.
          2    1    6    6  502    0 -0.14837141781E+03 -0.92987227924E+02  0.12998740808E+03  0.21807665725E+03  0.00000000000E+00 0. -1.
          1    1    5    5  503    0 -0.20495818533E+03 -0.15423832646E+03 -0.24170989262E+03  0.35244998407E+03  0.00000000000E+00 0. -1.
         -2    1    5    5    0  503 -0.19508440432E+03 -0.89882737740E+02 -0.28199307669E+03  0.35448120776E+03  0.00000000000E+00 0.  1.
         -1    1    6    6    0  502 -0.42682172004E+03 -0.23393878220E+03  0.21004038116E+03  0.53011422942E+03  0.00000000000E+00 0.  1.
<mgrwt>
<rscale>  0 0.30059895E+04</rscale>
<asrwt>0</asrwt>
<pdfrwt beam="1">  1        2 0.33932622E+00 0.30059895E+04</pdfrwt>
<pdfrwt beam="2">  1       -2 0.15756900E+00 0.30059895E+04</pdfrwt>
<totfact> 0.11517415E+00</totfact>
</mgrwt>
</event>
<event>
12    1  0.1960998E-007  0.1934539E+04  0.7818608E-02  0.8637852E-01
          1   -1    0    0  501    0  0.00000000000E+00  0.00000000000E+00  0.59950380214E+03  0.59950380214E+03  0.00000000000E+00 0. -1.
         -1   -1    0    0    0  501 -0.00000000000E+00 -0.00000000000E+00 -0.15606417799E+04  0.15606417799E+04  0.00000000000E+00 0.  1.
         23    2    1    2    0    0 -0.53343266474E+03  0.51598863738E+02  0.21497592471E+03  0.58473498656E+03  0.92127660102E+02 0.  0.
        254    2    1    2    0    0  0.53343266474E+03 -0.51598863738E+02 -0.11761139025E+04  0.15754105955E+04  0.90081173518E+03 0.  0.
        -24    2    4    4    0    0  0.94047595852E+02  0.35765547820E+03 -0.19940461992E+03  0.42637781553E+03  0.72618508390E+02 0.  0.
         24    2    4    4    0    0  0.43938506888E+03 -0.40925434194E+03 -0.97670928259E+03  0.11490327800E+04  0.75940447880E+02 0.  0.
         11    1    3    3    0    0 -0.18195315094E+03 -0.21088150192E+02  0.94688646924E+02  0.20619796089E+03  0.00000000000E+00 0.  1.
        -11    1    3    3    0    0 -0.35147951379E+03  0.72687013930E+02  0.12028727779E+03  0.37853702568E+03  0.00000000000E+00 0. -1.
          4    1    6    6  502    0  0.39125487012E+03 -0.33681000041E+03 -0.86654255768E+03  0.10086710832E+04  0.00000000000E+00 0. -1.
          3    1    5    5  503    0  0.36341201606E+02  0.24657267449E+03 -0.10933257347E+03  0.27216241174E+03  0.00000000000E+00 0. -1.
         -4    1    5    5    0  503  0.57706394246E+02  0.11108280370E+03 -0.90072046446E+02  0.15421540379E+03  0.00000000000E+00 0.  1.
         -3    1    6    6    0  502  0.48130198763E+02 -0.72444341530E+02 -0.11016672491E+03  0.14036169681E+03  0.00000000000E+00 0.  1.
<mgrwt>
<rscale>  0 0.19345394E+04</rscale>
<asrwt>0</asrwt>
<pdfrwt beam="1">  1        1 0.92231356E-01 0.19345394E+04</pdfrwt>
<pdfrwt beam="2">  1       -1 0.24009873E+00 0.19345394E+04</pdfrwt>
<totfact> 0.25893248E+00</totfact>
</mgrwt>
</event>
<event>
12    1  0.1960998E-007  0.1775374E+04  0.7818608E-02  0.8719506E-01
         -1   -1    0    0    0  501 -0.00000000000E+00  0.00000000000E+00  0.67626667564E+03  0.67626667564E+03  0.00000000000E+00 0.  1.
          1   -1    0    0  501    0  0.00000000000E+00 -0.00000000000E+00 -0.11652028673E+04  0.11652028673E+04  0.00000000000E+00 0. -1.
         23    2    1    2    0    0  0.41233884529E+03  0.33435734771E+03  0.21691196420E+03  0.58053100383E+03  0.90262322622E+02 0.  0.
        254    2    1    2    0    0 -0.41233884529E+03 -0.33435734771E+03 -0.70584815586E+03  0.12609385391E+04  0.89995901073E+03 0.  0.
        -24    2    4    4    0    0 -0.14163835666E+03 -0.36133179581E+03 -0.85320653024E+03  0.94078671758E+03  0.80598846021E+02 0.  0.
         24    2    4    4    0    0 -0.27070048863E+03  0.26974448098E+02  0.14735837438E+03  0.32015182154E+03  0.82318424050E+02 0.  0.
         11    1    3    3    0    0  0.16844498597E+02  0.28339845793E+02 -0.51722117699E+01  0.33371181687E+02  0.00000000000E+00 0. -1.
        -11    1    3    3    0    0  0.39549434669E+03  0.30601750192E+03  0.22208417597E+03  0.54715982214E+03  0.00000000000E+00 0.  1.
          4    1    6    6  502    0 -0.19606264680E+02 -0.20282806193E+02  0.91059528660E+01  0.29643147933E+02  0.00000000000E+00 0. -1.
          1    1    5    5  503    0 -0.10980986725E+02 -0.58419469196E+01 -0.85204758894E+01  0.15076767646E+02  0.00000000000E+00 0. -1.
         -2    1    5    5    0  503 -0.13065736994E+03 -0.35548984889E+03 -0.84468605435E+03  0.92570994993E+03  0.00000000000E+00 0.  1.
         -3    1    6    6    0  502 -0.25109422395E+03  0.47257254291E+02  0.13825242152E+03  0.29050867360E+03  0.00000000000E+00 0.  1.
<mgrwt>
<rscale>  0 0.17753736E+04</rscale>
<asrwt>0</asrwt>
<pdfrwt beam="1">  1        1 0.17926198E+00 0.17753736E+04</pdfrwt>
<pdfrwt beam="2">  1       -1 0.10404103E+00 0.17753736E+04</pdfrwt>
<totfact> 0.93229689E+00</totfact>
</mgrwt>
</event>
<event>
12    1  0.1960998E-007  0.1414978E+04  0.7818608E-02  0.8943047E-01
         -1   -1    0    0    0  501 -0.00000000000E+00  0.00000000000E+00  0.20469981369E+03  0.20469981369E+03  0.00000000000E+00 0.  1.
          1   -1    0    0  501    0  0.00000000000E+00 -0.00000000000E+00 -0.24452439534E+04  0.24452439534E+04  0.00000000000E+00 0. -1.
         23    2    1    2    0    0 -0.24035408238E+03 -0.20799660256E+03 -0.11726155636E+04  0.12183153160E+04  0.90731900509E+02 0.  0.
        254    2    1    2    0    0  0.24035408238E+03  0.20799660256E+03 -0.10679285762E+04  0.14316284511E+04  0.89891929925E+03 0.  0.
        -24    2    4    4    0    0  0.23358152812E+03  0.19007788434E+03  0.45456137744E+02  0.31525982927E+03  0.81440574035E+02 0.  0.
         24    2    4    4    0    0  0.67725542576E+01  0.17918718220E+02 -0.11133847139E+04  0.11163686218E+04  0.79287014296E+02 0.  0.
         13    1    3    3    0    0 -0.18833300774E+02 -0.50616226053E+02 -0.12782539569E+03  0.13876608858E+03  0.00000000000E+00 0. -1.
        -13    1    3    3    0    0 -0.22152078160E+03 -0.15738037650E+03 -0.10447901679E+04  0.10795492274E+04  0.00000000000E+00 0.  1.
          4    1    6    6  502    0  0.35829858395E+02 -0.35354739956E+01 -0.81671992439E+03  0.81751312725E+03  0.00000000000E+00 0. -1.
          3    1    5    5  503    0  0.91620922792E+02  0.12216944133E+03  0.50656424857E+01  0.15279210261E+03  0.00000000000E+00 0. -1.
         -4    1    5    5    0  503  0.14196060533E+03  0.67908443009E+02  0.40390495258E+02  0.16246772665E+03  0.00000000000E+00 0.  1.
         -3    1    6    6    0  502 -0.29057304137E+02  0.21454192215E+02 -0.29666478954E+03  0.29885549458E+03  0.00000000000E+00 0.  1.
<mgrwt>
<rscale>  0 0.14149784E+04</rscale>
<asrwt>0</asrwt>
<pdfrwt beam="1">  1        1 0.37619139E+00 0.14149784E+04</pdfrwt>
<pdfrwt beam="2">  1       -1 0.31492278E-01 0.14149784E+04</pdfrwt>
<totfact> 0.13527483E+01</totfact>
</mgrwt>
</event>
<event>
12    1  0.2614474E-007  0.2974350E+04  0.7818608E-02  0.8251093E-01
         -2   -1    0    0    0  501 -0.00000000000E+00  0.00000000000E+00  0.96324525891E+03  0.96324525891E+03  0.00000000000E+00 0.  1.
          2   -1    0    0  501    0  0.00000000000E+00 -0.00000000000E+00 -0.22960816797E+04  0.22960816797E+04  0.00000000000E+00 0. -1.
         23    2    1    2    0    0 -0.12886968690E+04 -0.39419859279E+02 -0.16907103314E+03  0.13034927920E+04  0.90636081016E+02 0.  0.
        254    2    1    2    0    0  0.12886968690E+04  0.39419859279E+02 -0.11637653877E+04  0.19558341466E+04  0.89924623210E+03 0.  0.
        -24    2    4    4    0    0  0.95894678800E+03 -0.19909051341E+03 -0.11862134689E+04  0.15403493602E+04  0.79735705855E+02 0.  0.
         24    2    4    4    0    0  0.32975008100E+03  0.23851037269E+03  0.22448081233E+02  0.41548478643E+03  0.80631120546E+02 0.  0.
         11    1    3    3    0    0 -0.76400002690E+03 -0.23966095335E+02 -0.55249527852E+02  0.76636996624E+03  0.00000000000E+00 0.  1.
        -11    1    3    3    0    0 -0.52469684210E+03 -0.15453763944E+02 -0.11382150529E+03  0.53712282580E+03  0.00000000000E+00 0. -1.
          2    1    6    6  502    0  0.16886448289E+02 -0.24111237636E+01  0.11282191867E+02  0.20451247076E+02  0.00000000000E+00 0. -1.
          1    1    5    5  503    0  0.11352178785E+03 -0.42877224850E+00 -0.11966788730E+03  0.16494782027E+03  0.00000000000E+00 0. -1.
         -2    1    5    5    0  503  0.84542500015E+03 -0.19866174117E+03 -0.10665455816E+04  0.13754015399E+04  0.00000000000E+00 0.  1.
         -1    1    6    6    0  502  0.31286363271E+03  0.24092149646E+03  0.11165889366E+02  0.39503353935E+03  0.00000000000E+00 0.  1.
<mgrwt>
<rscale>  0 0.29743502E+04</rscale>
<asrwt>0</asrwt>
<pdfrwt beam="1">  1        2 0.35324334E+00 0.29743502E+04</pdfrwt>
<pdfrwt beam="2">  1       -2 0.14819158E+00 0.29743502E+04</pdfrwt>
<totfact> 0.12093488E+00</totfact>
</mgrwt>
</event>
<event>
12    1  0.1960998E-007  0.2554325E+04  0.7818608E-02  0.8383883E-01
          2   -1    0    0  501    0  0.00000000000E+00  0.00000000000E+00  0.27969595009E+04  0.27969595009E+04  0.00000000000E+00 0. -1.
         -2   -1    0    0    0  501 -0.00000000000E+00 -0.00000000000E+00 -0.58318482696E+03  0.58318482696E+03  0.00000000000E+00 0.  1.
         23    2    1    2    0    0 -0.59848568567E+03 -0.93577095651E+03  0.11193481270E+04  0.15796263804E+04  0.91798001798E+02 0.  0.
        254    2    1    2    0    0  0.59848568567E+03  0.93577095651E+03  0.10944265469E+04  0.18005179475E+04  0.90013499746E+03 0.  0.
        -24    2    4    4    0    0  0.70114741403E+02  0.32188780254E+03 -0.10197443331E+03  0.35354217173E+03  0.77880984575E+02 0.  0.
         24    2    4    4    0    0  0.52837094426E+03  0.61388315397E+03  0.11964009802E+04  0.14469757758E+04  0.79594024234E+02 0.  0.
         13    1    3    3    0    0 -0.52373792785E+03 -0.76261714163E+03  0.90629139014E+03  0.12950870263E+04  0.00000000000E+00 0. -1.
        -13    1    3    3    0    0 -0.74747757815E+02 -0.17315381487E+03  0.21305673688E+03  0.28453935410E+03  0.00000000000E+00 0.  1.
          4    1    6    6  502    0  0.12465519485E+03  0.19364217928E+03  0.36865046417E+03  0.43467157249E+03  0.00000000000E+00 0. -1.
          1    1    5    5  503    0  0.30568060913E+02  0.10070010795E+03  0.35595515156E+01  0.10529761866E+03  0.00000000000E+00 0. -1.
         -2    1    5    5    0  503  0.39546680490E+02  0.22118769459E+03 -0.10553398482E+03  0.24824455307E+03  0.00000000000E+00 0.  1.
         -3    1    6    6    0  502  0.40371574942E+03  0.42024097469E+03  0.82775051606E+03  0.10123042033E+04  0.00000000000E+00 0.  1.
<mgrwt>
<rscale>  0 0.25543252E+04</rscale>
<asrwt>0</asrwt>
<pdfrwt beam="1">  1        2 0.43030145E+00 0.25543252E+04</pdfrwt>
<pdfrwt beam="2">  1       -2 0.89720744E-01 0.25543252E+04</pdfrwt>
<totfact> 0.21944376E+00</totfact>
</mgrwt>
</event>
<event>
12    1  0.1960998E-007  0.1900739E+04  0.7818608E-02  0.8654488E-01
          2   -1    0    0  501    0  0.00000000000E+00  0.00000000000E+00  0.16483457018E+04  0.16483457018E+04  0.00000000000E+00 0. -1.
         -2   -1    0    0    0  501 -0.00000000000E+00 -0.00000000000E+00 -0.54794491676E+03  0.54794491676E+03  0.00000000000E+00 0.  1.
         23    2    1    2    0    0 -0.45009143976E+03  0.57293916416E+03  0.33247268616E+03  0.80616235309E+03  0.92293350410E+02 0.  0.
        254    2    1    2    0    0  0.45009143976E+03 -0.57293916416E+03  0.76792809883E+03  0.13901282654E+04  0.90105573601E+03 0.  0.
        -24    2    4    4    0    0  0.47187644597E+03 -0.28301920049E+03 -0.98665472935E+01  0.55589407401E+03  0.78445042260E+02 0.  0.
         24    2    4    4    0    0 -0.21785006213E+02 -0.28991996367E+03  0.77779464612E+03  0.83423419141E+03  0.80336808224E+02 0.  0.
         13    1    3    3    0    0 -0.22530700608E+03  0.34774601678E+03  0.21647298197E+03  0.46749448242E+03  0.00000000000E+00 0. -1.
        -13    1    3    3    0    0 -0.22478443368E+03  0.22519314738E+03  0.11599970419E+03  0.33866787067E+03  0.00000000000E+00 0.  1.
          4    1    6    6  502    0 -0.29309806007E+02 -0.28080980334E+03  0.76986709869E+03  0.82000521951E+03  0.00000000000E+00 0. -1.
          3    1    5    5  503    0  0.43940747284E+03 -0.26617068102E+03 -0.29109894091E+02  0.51456111838E+03  0.00000000000E+00 0. -1.
         -2    1    5    5    0  503  0.32468973137E+02 -0.16848519472E+02  0.19243346798E+02  0.41332955628E+02  0.00000000000E+00 0.  1.
         -3    1    6    6    0  502  0.75247997939E+01 -0.91101603281E+01  0.79275474387E+01  0.14228971907E+02  0.00000000000E+00 0.  1.
<mgrwt>
<rscale>  0 0.19007395E+04</rscale>
<asrwt>0</asrwt>
<pdfrwt beam="1">  1        2 0.25359164E+00 0.19007395E+04</pdfrwt>
<pdfrwt beam="2">  1       -2 0.84299219E-01 0.19007395E+04</pdfrwt>
<totfact> 0.12049394E+01</totfact>
</mgrwt>
</event>
<event>
12    1  0.1960998E-007  0.2178258E+04  0.7818608E-02  0.8527532E-01
          1   -1    0    0  501    0  0.00000000000E+00  0.00000000000E+00  0.48043906296E+03  0.48043906296E+03  0.00000000000E+00 0. -1.
         -1   -1    0    0    0  501 -0.00000000000E+00 -0.00000000000E+00 -0.24689955009E+04  0.24689955009E+04  0.00000000000E+00 0.  1.
         23    2    1    2    0    0  0.79610814409E+03  0.41538486935E+03 -0.70244029677E+03  0.11437568180E+04  0.91785191608E+02 0.  0.
        254    2    1    2    0    0 -0.79610814409E+03 -0.41538486935E+03 -0.12861161412E+04  0.18056777459E+04  0.89445213770E+03 0.  0.
        -24    2    4    4    0    0 -0.84749604227E+03 -0.58729251728E+03 -0.89268580470E+03  0.13661185389E+04  0.78929550639E+02 0.  0.
         24    2    4    4    0    0  0.51387898179E+02  0.17190764793E+03 -0.39343033650E+03  0.43955920698E+03  0.78942455421E+02 0.  0.
         11    1    3    3    0    0  0.45152658235E+03  0.24938521002E+03 -0.34746602075E+03  0.62193397811E+03  0.00000000000E+00 0. -1.
        -11    1    3    3    0    0  0.34458156174E+03  0.16599965933E+03 -0.35497427602E+03  0.52182283989E+03  0.00000000000E+00 0.  1.
          4    1    6    6  502    0  0.35301447321E+02  0.17968204061E+02 -0.10501879248E+03  0.11224079167E+03  0.00000000000E+00 0. -1.
          1    1    5    5  503    0 -0.18561653335E+03 -0.12395656947E+03 -0.15198608926E+03  0.27003425690E+03  0.00000000000E+00 0. -1.
         -2    1    5    5    0  503 -0.66187950892E+03 -0.46333594780E+03 -0.74069971544E+03  0.10960842820E+04  0.00000000000E+00 0.  1.
         -3    1    6    6    0  502  0.16086450857E+02  0.15393944387E+03 -0.28841154402E+03  0.32731841532E+03  0.00000000000E+00 0.  1.
<mgrwt>
<rscale>  0 0.21782579E+04</rscale>
<asrwt>0</asrwt>
<pdfrwt beam="1">  1        1 0.73913703E-01 0.21782579E+04</pdfrwt>
<pdfrwt beam="2">  1       -1 0.37984546E+00 0.21782579E+04</pdfrwt>
<totfact> 0.41998320E-01</totfact>
</mgrwt>
</event>
<event>
12    1  0.1960998E-007  0.4705410E+04  0.7818608E-02  0.7875630E-01
         -2   -1    0    0    0  501 -0.00000000000E+00  0.00000000000E+00  0.25871811744E+04  0.25871811744E+04  0.00000000000E+00 0.  1.
          2   -1    0    0  501    0  0.00000000000E+00 -0.00000000000E+00 -0.21394796605E+04  0.21394796605E+04  0.00000000000E+00 0. -1.
         23    2    1    2    0    0  0.12507794237E+04  0.18365511702E+04  0.65970256362E+03  0.23196724077E+04  0.91122110638E+02 0.  0.
        254    2    1    2    0    0 -0.12507794237E+04 -0.18365511702E+04 -0.21200104972E+03  0.24069884272E+04  0.90071053962E+03 0.  0.
        -24    2    4    4    0    0 -0.11914316611E+04 -0.12086065241E+04  0.93547307497E+02  0.17016300766E+04  0.80961013604E+02 0.  0.
         24    2    4    4    0    0 -0.59347762615E+02 -0.62794464607E+03 -0.30554835722E+03  0.70535835059E+03  0.79586234324E+02 0.  0.
         13    1    3    3    0    0  0.97412601270E+03  0.14891735699E+04  0.51209772178E+03  0.18517028613E+04  0.00000000000E+00 0.  1.
        -13    1    3    3    0    0  0.27665341102E+03  0.34737760024E+03  0.14760484184E+03  0.46796954635E+03  0.00000000000E+00 0. -1.
          2    1    6    6  502    0  0.13504252120E+02 -0.21927375015E+03 -0.12413781362E+03  0.25233616288E+03  0.00000000000E+00 0. -1.
          3    1    5    5  503    0 -0.11687771307E+04 -0.11963984040E+04  0.85759200052E+02  0.16747428945E+04  0.00000000000E+00 0. -1.
         -4    1    5    5    0  503 -0.22654530369E+02 -0.12208120122E+02  0.77881074447E+01  0.26887182090E+02  0.00000000000E+00 0.  1.
         -1    1    6    6    0  502 -0.72852014734E+02 -0.40867089592E+03 -0.18141054360E+03  0.45302218771E+03  0.00000000000E+00 0.  1.
<mgrwt>
<rscale>  0 0.47054103E+04</rscale>
<asrwt>0</asrwt>
<pdfrwt beam="1">  1        2 0.32915072E+00 0.47054103E+04</pdfrwt>
<pdfrwt beam="2">  1       -2 0.39802787E+00 0.47054103E+04</pdfrwt>
<totfact> 0.31831865E-02</totfact>
</mgrwt>
</event>
<event>
12    1  0.1960998E-007  0.1441723E+04  0.7818608E-02  0.8924159E-01
          2   -1    0    0  501    0  0.00000000000E+00  0.00000000000E+00  0.10531484722E+04  0.10531484722E+04  0.00000000000E+00 0. -1.
         -2   -1    0    0    0  501 -0.00000000000E+00 -0.00000000000E+00 -0.49341724317E+03  0.49341724317E+03  0.00000000000E+00 0.  1.
         23    2    1    2    0    0  0.12210492137E+03 -0.30782840024E+03 -0.13032795372E+03  0.36473119305E+03  0.79846927571E+02 0.  0.
        254    2    1    2    0    0 -0.12210492137E+03  0.30782840024E+03  0.69005918274E+03  0.11818345223E+04  0.90049054776E+03 0.  0.
        -24    2    4    4    0    0  0.12934348794E+02 -0.25396604344E+03 -0.14778119240E+02  0.26696024883E+03  0.79895763651E+02 0.  0.
         24    2    4    4    0    0 -0.13503927016E+03  0.56179444368E+03  0.70483730198E+03  0.91487427347E+03  0.79691358135E+02 0.  0.
         11    1    3    3    0    0  0.30800085795E+02 -0.17894763645E+03 -0.54883758718E+02  0.18969219501E+03  0.00000000000E+00 0. -1.
        -11    1    3    3    0    0  0.91304835574E+02 -0.12888076379E+03 -0.75444195006E+02  0.17503899804E+03  0.00000000000E+00 0.  1.
          2    1    6    6  502    0 -0.12649344378E+03  0.53923629152E+03  0.64394054281E+03  0.84937376466E+03  0.00000000000E+00 0. -1.
          3    1    5    5  503    0  0.13429836002E+02 -0.11660771320E+03 -0.46046067081E+02  0.12608711102E+03  0.00000000000E+00 0. -1.
         -4    1    5    5    0  503 -0.49548720751E+00 -0.13735833024E+03  0.31267947841E+02  0.14087313781E+03  0.00000000000E+00 0.  1.
         -1    1    6    6    0  502 -0.85458263849E+01  0.22558152157E+02  0.60896759174E+02  0.65500508817E+02  0.00000000000E+00 0.  1.
<mgrwt>
<rscale>  0 0.14417234E+04</rscale>
<asrwt>0</asrwt>
<pdfrwt beam="1">  1        2 0.16202284E+00 0.14417234E+04</pdfrwt>
<pdfrwt beam="2">  1       -2 0.75910345E-01 0.14417234E+04</pdfrwt>
<totfact> 0.35158165E+01</totfact>
</mgrwt>
</event>
<event>
12    1  0.1960998E-007  0.1106186E+04  0.7818608E-02  0.9199183E-01
          2   -1    0    0  501    0  0.00000000000E+00  0.00000000000E+00  0.87998508879E+03  0.87998508879E+03  0.00000000000E+00 0. -1.
         -2   -1    0    0    0  501 -0.00000000000E+00 -0.00000000000E+00 -0.34763314916E+03  0.34763314916E+03  0.00000000000E+00 0.  1.
         23    2    1    2    0    0  0.10938333273E+03  0.12547542305E+03  0.10106064889E+03  0.21629493007E+03  0.94135257745E+02 0.  0.
        254    2    1    2    0    0 -0.10938333273E+03 -0.12547542305E+03  0.43129129074E+03  0.10113233079E+04  0.89947421326E+03 0.  0.
        -24    2    4    4    0    0  0.14906998263E+03 -0.45626862342E+03  0.20859555249E+03  0.52954586003E+03  0.80646121532E+02 0.  0.
         24    2    4    4    0    0 -0.25845331536E+03  0.33079320036E+03  0.22269573825E+03  0.48177744785E+03  0.79333850269E+02 0.  0.
         11    1    3    3    0    0  0.12342917994E+02  0.41384281568E+02 -0.12413134893E+02  0.44934310981E+02  0.00000000000E+00 0.  1.
        -11    1    3    3    0    0  0.97040414735E+02  0.84091141483E+02  0.11347378378E+03  0.17136061909E+03  0.00000000000E+00 0. -1.
          4    1    6    6  502    0 -0.10847447485E+03  0.18468310076E+03  0.14401241224E+03  0.25809714117E+03  0.00000000000E+00 0. -1.
          3    1    5    5  503    0  0.11131170761E+03 -0.39453035579E+03  0.15029882973E+03  0.43661680695E+03  0.00000000000E+00 0. -1.
         -4    1    5    5    0  503  0.37758275012E+02 -0.61738267624E+02  0.58296722759E+02  0.92929053076E+02  0.00000000000E+00 0.  1.
         -3    1    6    6    0  502 -0.14997884051E+03  0.14611009960E+03  0.78683326010E+02  0.22368030668E+03  0.00000000000E+00 0.  1.
<mgrwt>
<rscale>  0 0.11061862E+04</rscale>
<asrwt>0</asrwt>
<pdfrwt beam="1">  1        2 0.13538232E+00 0.11061862E+04</pdfrwt>
<pdfrwt beam="2">  1       -2 0.53482023E-01 0.11061862E+04</pdfrwt>
<totfact> 0.98954787E+01</totfact>
</mgrwt>
</event>
<event>
12    1  0.1960998E-007  0.1605318E+04  0.7818608E-02  0.8817288E-01
         -2   -1    0    0    0  501 -0.00000000000E+00  0.00000000000E+00  0.12135665991E+04  0.12135665991E+04  0.00000000000E+00 0.  1.
          2   -1    0    0  501    0  0.00000000000E+00 -0.00000000000E+00 -0.53088234824E+03  0.53088234824E+03  0.00000000000E+00 0. -1.
         23    2    1    2    0    0  0.19751868513E+03  0.50798993441E+03  0.29510435882E+03  0.62647689126E+03  0.91210242010E+02 0.  0.
        254    2    1    2    0    0 -0.19751868513E+03 -0.50798993441E+03  0.38757989209E+03  0.11179720561E+04  0.89586602853E+03 0.  0.
        -24    2    4    4    0    0 -0.38808989711E+03 -0.65869619351E+03  0.18094647532E+03  0.78987443342E+03  0.81642819968E+02 0.  0.
         24    2    4    4    0    0  0.19057121197E+03  0.15070625910E+03  0.20663341676E+03  0.32809762270E+03  0.76947499872E+02 0.  0.
         11    1    3    3    0    0  0.64959641473E+02  0.18980793280E+03  0.15862075492E+03  0.25574860756E+03  0.00000000000E+00 0.  1.
        -11    1    3    3    0    0  0.13255904366E+03  0.31818200161E+03  0.13648360389E+03  0.37072828370E+03  0.00000000000E+00 0. -1.
          2    1    6    6  502    0  0.67138774911E+02  0.46171310245E+02  0.11874192194E+03  0.14401058646E+03  0.00000000000E+00 0. -1.
          1    1    5    5  503    0 -0.99991386702E+02 -0.14685595423E+03  0.90909140387E+01  0.17789770495E+03  0.00000000000E+00 0. -1.
         -2    1    5    5    0  503 -0.28809851040E+03 -0.51184023928E+03  0.17185556129E+03  0.61197672847E+03  0.00000000000E+00 0.  1.
         -1    1    6    6    0  502  0.12343243706E+03  0.10453494885E+03  0.87891494821E+02  0.18408703624E+03  0.00000000000E+00 0.  1.
<mgrwt>
<rscale>  0 0.16053175E+04</rscale>
<asrwt>0</asrwt>
<pdfrwt beam="1">  1        2 0.81674208E-01 0.16053175E+04</pdfrwt>
<pdfrwt beam="2">  1       -2 0.18670255E+00 0.16053175E+04</pdfrwt>
<totfact> 0.89678956E+00</totfact>
</mgrwt>
</event>
<event>
12    1  0.1960998E-007  0.1697281E+04  0.7818608E-02  0.8762917E-01
         -2   -1    0    0    0  501 -0.00000000000E+00  0.00000000000E+00  0.14391565035E+04  0.14391565035E+04  0.00000000000E+00 0.  1.
          2   -1    0    0  501    0  0.00000000000E+00 -0.00000000000E+00 -0.50042550945E+03  0.50042550945E+03  0.00000000000E+00 0. -1.
         23    2    1    2    0    0  0.19118094450E+03 -0.48819783322E+03 -0.58599723519E+01  0.53205620891E+03  0.90344851907E+02 0.  0.
        254    2    1    2    0    0 -0.19118094450E+03  0.48819783322E+03  0.94459096637E+03  0.14075258040E+04  0.90221367608E+03 0.  0.
        -24    2    4    4    0    0 -0.46342600234E+03  0.53484845782E+03  0.47214550578E+03  0.85455174631E+03  0.80689379869E+02 0.  0.
         24    2    4    4    0    0  0.27224505784E+03 -0.46650624604E+02  0.47244546059E+03  0.55297405769E+03  0.79258709035E+02 0.  0.
         13    1    3    3    0    0  0.88224643746E+02 -0.14254630720E+03  0.27410647215E+02  0.16986577360E+03  0.00000000000E+00 0.  1.
        -13    1    3    3    0    0  0.10295630075E+03 -0.34565152602E+03 -0.33270619567E+02  0.36219043531E+03  0.00000000000E+00 0. -1.
          2    1    6    6  502    0  0.76135402969E+02 -0.49699638297E+01  0.70878249046E+02  0.10413945608E+03  0.00000000000E+00 0. -1.
          1    1    5    5  503    0 -0.77459298393E+02  0.52020014259E+02  0.48363790924E+02  0.10509558061E+03  0.00000000000E+00 0. -1.
         -2    1    5    5    0  503 -0.38596670395E+03  0.48282844357E+03  0.42378171485E+03  0.74945616571E+03  0.00000000000E+00 0.  1.
         -1    1    6    6    0  502  0.19610965487E+03 -0.41680660775E+02  0.40156721154E+03  0.44883460161E+03  0.00000000000E+00 0.  1.
<mgrwt>
<rscale>  0 0.16972809E+04</rscale>
<asrwt>0</asrwt>
<pdfrwt beam="1">  1        2 0.76988540E-01 0.16972809E+04</pdfrwt>
<pdfrwt beam="2">  1       -2 0.22140869E+00 0.16972809E+04</pdfrwt>
<totfact> 0.56653753E+00</totfact>
</mgrwt>
</event>
<event>
12    1  0.1960998E-007  0.1339458E+04  0.7818608E-02  0.8998847E-01
         -1   -1    0    0    0  501 -0.00000000000E+00  0.00000000000E+00  0.18404238473E+03  0.18404238473E+03  0.00000000000E+00 0. -1.
          1   -1    0    0  501    0  0.00000000000E+00 -0.00000000000E+00 -0.24371383936E+04  0.24371383936E+04  0.00000000000E+00 0.  1.
         23    2    1    2    0    0 -0.17420081828E+03 -0.12191521532E+03 -0.11924911760E+04  0.12147349753E+04  0.91305040733E+02 0.  0.
        254    2    1    2    0    0  0.17420081828E+03  0.12191521532E+03 -0.10606048328E+04  0.14064458030E+04  0.89888705666E+03 0.  0.
        -24    2    4    4    0    0 -0.16015363179E+03  0.58842606691E+01  0.90009489913E+02  0.20003530507E+03  0.78921509756E+02 0.  0.
         24    2    4    4    0    0  0.33435445007E+03  0.11603095465E+03 -0.11506143227E+04  0.12064104979E+04  0.79100500446E+02 0.  0.
         13    1    3    3    0    0 -0.84913686956E+02 -0.51933153525E+02 -0.32622248876E+03  0.34106963928E+03  0.00000000000E+00 0. -1.
        -13    1    3    3    0    0 -0.89287131325E+02 -0.69982061797E+02 -0.86626868729E+03  0.87366533603E+03  0.00000000000E+00 0.  1.
          4    1    6    6  502    0  0.94873724294E+02  0.16953565361E+02 -0.21594810556E+03  0.23647839486E+03  0.00000000000E+00 0. -1.
          1    1    5    5  503    0 -0.63115157315E+02 -0.48328433929E+01 -0.53974383850E+01  0.63529613561E+02  0.00000000000E+00 0. -1.
         -2    1    5    5    0  503 -0.97038474476E+02  0.10717104062E+02  0.95406928298E+02  0.13650569151E+03  0.00000000000E+00 0.  1.
         -3    1    6    6    0  502  0.23948072578E+03  0.99077389292E+02 -0.93466621716E+03  0.96993210308E+03  0.00000000000E+00 0.  1.
<mgrwt>
<rscale>  0 0.13394577E+04</rscale>
<asrwt>0</asrwt>
<pdfrwt beam="1">  1        1 0.37494437E+00 0.13394577E+04</pdfrwt>
<pdfrwt beam="2">  1       -1 0.28314213E-01 0.13394577E+04</pdfrwt>
<totfact> 0.16626929E+01</totfact>
</mgrwt>
</event>
<event>
12    1  0.2593547E-007  0.1851813E+04  0.7818608E-02  0.8679221E-01
          2   -1    0    0  501    0  0.00000000000E+00  0.00000000000E+00  0.19093439363E+04  0.19093439363E+04  0.00000000000E+00 0. -1.
         -2   -1    0    0    0  501 -0.00000000000E+00 -0.00000000000E+00 -0.44900389594E+03  0.44900389594E+03  0.00000000000E+00 0.  1.
         23    2    1    2    0    0 -0.67501102163E+03  0.19759617243E+03  0.52307703351E+03  0.88125374504E+03  0.91183625107E+02 0.  0.
        254    2    1    2    0    0  0.67501102163E+03 -0.19759617243E+03  0.93726300686E+03  0.14770940872E+04  0.89925573211E+03 0.  0.
        -24    2    4    4    0    0  0.51657573307E+03 -0.40379696644E+03  0.99966641103E+03  0.11982092961E+04  0.80436967341E+02 0.  0.
         24    2    4    4    0    0  0.15843528855E+03  0.20620079401E+03 -0.62403404172E+02  0.27888479114E+03  0.79133013135E+02 0.  0.
         13    1    3    3    0    0 -0.36080025945E+03  0.10802747284E+03  0.33622394637E+03  0.50486959130E+03  0.00000000000E+00 0. -1.
        -13    1    3    3    0    0 -0.31421076218E+03  0.89568699590E+02  0.18685308714E+03  0.37638415374E+03  0.00000000000E+00 0.  1.
          2    1    6    6  502    0  0.13171315389E+03  0.17591418253E+03 -0.81270472671E+02  0.23430545075E+03  0.00000000000E+00 0. -1.
          1    1    5    5  503    0  0.43313368775E+03 -0.36370076039E+03  0.89223709324E+03  0.10563948434E+04  0.00000000000E+00 0. -1.
         -4    1    5    5    0  503  0.83442045321E+02 -0.40096206055E+02  0.10742931779E+03  0.14181445268E+03  0.00000000000E+00 0.  1.
         -3    1    6    6    0  502  0.26722134664E+02  0.30286611478E+02  0.18867068499E+02  0.44579340390E+02  0.00000000000E+00 0.  1.
<mgrwt>
<rscale>  0 0.18518130E+04</rscale>
<asrwt>0</asrwt>
<pdfrwt beam="1">  1        2 0.29374522E+00 0.18518130E+04</pdfrwt>
<pdfrwt beam="2">  1       -2 0.69077523E-01 0.18518130E+04</pdfrwt>
<totfact> 0.13497638E+01</totfact>
</mgrwt>
</event>
<event>
12    1  0.1960998E-007  0.1845630E+04  0.7818608E-02  0.8682404E-01
          2   -1    0    0  501    0  0.00000000000E+00  0.00000000000E+00  0.32152021684E+04  0.32152021684E+04  0.00000000000E+00 0.  1.
         -2   -1    0    0    0  501 -0.00000000000E+00 -0.00000000000E+00 -0.26486273897E+03  0.26486273897E+03  0.00000000000E+00 0. -1.
         23    2    1    2    0    0  0.25477104659E+02 -0.66002135949E+03  0.15608833780E+04  0.16974141209E+04  0.92630989333E+02 0.  0.
        254    2    1    2    0    0 -0.25477104659E+02  0.66002135949E+03  0.13894560513E+04  0.17826507864E+04  0.90054340809E+03 0.  0.
        -24    2    4    4    0    0  0.39694825961E+03  0.18288269521E+03  0.77993253983E+03  0.89727312436E+03  0.76093968166E+02 0.  0.
         24    2    4    4    0    0 -0.42242536427E+03  0.47713866428E+03  0.60952351152E+03  0.88537766206E+03  0.79184594856E+02 0.  0.
         13    1    3    3    0    0 -0.26965888827E+02 -0.37097663717E+03  0.82003097129E+03  0.90044523340E+03  0.00000000000E+00 0. -1.
        -13    1    3    3    0    0  0.52442993486E+02 -0.28904472231E+03  0.74085240676E+03  0.79696888752E+03  0.00000000000E+00 0.  1.
          4    1    6    6  502    0 -0.28932241696E+03  0.34747266285E+03  0.38441224641E+03  0.59347913828E+03  0.00000000000E+00 0. -1.
          1    1    5    5  503    0  0.38214970234E+03  0.15574533835E+03  0.72887510654E+03  0.83758816034E+03  0.00000000000E+00 0. -1.
         -2    1    5    5    0  503  0.14798557270E+02  0.27137356867E+02  0.51057433288E+02  0.59684964011E+02  0.00000000000E+00 0.  1.
         -3    1    6    6    0  502 -0.13310294731E+03  0.12966600142E+03  0.22511126510E+03  0.29189852378E+03  0.00000000000E+00 0.  1.
<mgrwt>
<rscale>  0 0.18456297E+04</rscale>
<asrwt>0</asrwt>
<pdfrwt beam="1">  1        2 0.49464646E+00 0.18456297E+04</pdfrwt>
<pdfrwt beam="2">  1       -2 0.40748116E-01 0.18456297E+04</pdfrwt>
<totfact> 0.68328942E+00</totfact>
</mgrwt>
</event>
<event>
12    1  0.1960998E-007  0.1542264E+04  0.7818608E-02  0.8856824E-01
          1   -1    0    0  501    0  0.00000000000E+00  0.00000000000E+00  0.32233766903E+04  0.32233766903E+04  0.00000000000E+00 0. -1.
         -1   -1    0    0    0  501 -0.00000000000E+00 -0.00000000000E+00 -0.18447887377E+03  0.18447887377E+03  0.00000000000E+00 0.  1.
         23    2    1    2    0    0  0.35947585325E+03 -0.24576518358E+03  0.44520685865E+03  0.62896727746E+03  0.88132142772E+02 0.  0.
        254    2    1    2    0    0 -0.35947585325E+03  0.24576518358E+03  0.25936909578E+04  0.27788882866E+04  0.89742069842E+03 0.  0.
        -24    2    4    4    0    0 -0.22517378107E+03  0.42368064056E+03  0.60566451430E+03  0.77693210313E+03  0.81150921945E+02 0.  0.
         24    2    4    4    0    0 -0.13430207218E+03 -0.17791545698E+03  0.19880264435E+04  0.20019561834E+04  0.76736326271E+02 0.  0.
         11    1    3    3    0    0  0.41691809903E+02 -0.68423283713E+02  0.88498174761E+02  0.11938123681E+03  0.00000000000E+00 0. -1.
        -11    1    3    3    0    0  0.31778404335E+03 -0.17734189987E+03  0.35670868389E+03  0.50958604064E+03  0.00000000000E+00 0.  1.
          2    1    6    6  502    0 -0.49952964712E+02 -0.12504853855E+03  0.10278027061E+04  0.10365861462E+04  0.00000000000E+00 0. -1.
          1    1    5    5  503    0 -0.54606996568E+02  0.46790463791E+02  0.72740934081E+02  0.10228643638E+03  0.00000000000E+00 0. -1.
         -2    1    5    5    0  503 -0.17056678450E+03  0.37689017677E+03  0.53292358022E+03  0.67464566675E+03  0.00000000000E+00 0.  1.
         -1    1    6    6    0  502 -0.84349107470E+02 -0.52866918430E+02  0.96022373742E+03  0.96537003729E+03  0.00000000000E+00 0.  1.
<mgrwt>
<rscale>  0 0.15422644E+04</rscale>
<asrwt>0</asrwt>
<pdfrwt beam="1">  1        1 0.49590406E+00 0.15422644E+04</pdfrwt>
<pdfrwt beam="2">  1       -1 0.28381368E-01 0.15422644E+04</pdfrwt>
<totfact> 0.44595279E+00</totfact>
</mgrwt>
</event>
<event>
12    1  0.1960998E-007  0.2109543E+04  0.7818608E-02  0.8557051E-01
         -2   -1    0    0    0  501 -0.00000000000E+00  0.00000000000E+00  0.12432134417E+04  0.12432134417E+04  0.00000000000E+00 0.  1.
          2   -1    0    0  501    0  0.00000000000E+00 -0.00000000000E+00 -0.89489278985E+03  0.89489278985E+03  0.00000000000E+00 0. -1.
         23    2    1    2    0    0  0.85140107379E+02  0.63778428518E+03  0.72740583802E+03  0.97541091009E+03  0.91047009996E+02 0.  0.
        254    2    1    2    0    0 -0.85140107379E+02 -0.63778428518E+03 -0.37908518613E+03  0.11626953215E+04  0.89114375943E+03 0.  0.
        -24    2    4    4    0    0 -0.43304589394E+03 -0.48609346693E+03 -0.55269649302E+02  0.65836761696E+03  0.81102281531E+02 0.  0.
         24    2    4    4    0    0  0.34790578657E+03 -0.15169081825E+03 -0.32381553683E+03  0.50432770454E+03  0.73765784797E+02 0.  0.
         13    1    3    3    0    0  0.99431789240E+02  0.44033460770E+03  0.52242182626E+03  0.69043885464E+03  0.00000000000E+00 0.  1.
        -13    1    3    3    0    0 -0.14291681862E+02  0.19744967748E+03  0.20498401176E+03  0.28497205545E+03  0.00000000000E+00 0. -1.
          2    1    6    6  502    0  0.29421593365E+03 -0.10155023461E+03 -0.28082254278E+03  0.41920969252E+03  0.00000000000E+00 0. -1.
          1    1    5    5  503    0 -0.43609943349E+03 -0.47691518439E+03 -0.52877415504E+02  0.64840329276E+03  0.00000000000E+00 0. -1.
         -2    1    5    5    0  503  0.30535395463E+01 -0.91782825383E+01 -0.23922337988E+01  0.99643241950E+01  0.00000000000E+00 0.  1.
         -1    1    6    6    0  502  0.53689852911E+02 -0.50140583642E+02 -0.42992994046E+02  0.85118012022E+02  0.00000000000E+00 0.  1.
<mgrwt>
<rscale>  0 0.21095428E+04</rscale>
<asrwt>0</asrwt>
<pdfrwt beam="1">  1        2 0.13767581E+00 0.21095428E+04</pdfrwt>
<pdfrwt beam="2">  1       -2 0.19126361E+00 0.21095428E+04</pdfrwt>
<totfact> 0.41355593E+00</totfact>
</mgrwt>
</event>
<event>
12    1  0.1960998E-007  0.1691386E+04  0.7818608E-02  0.8766293E-01
         -1   -1    0    0    0  501 -0.00000000000E+00  0.00000000000E+00  0.71488986334E+03  0.71488986334E+03  0.00000000000E+00 0.  1.
          1   -1    0    0  501    0  0.00000000000E+00 -0.00000000000E+00 -0.10004286007E+04  0.10004286007E+04  0.00000000000E+00 0. -1.
         23    2    1    2    0    0  0.19040572705E+03 -0.55312379757E+03 -0.25184993962E+03  0.64371438713E+03  0.93485527119E+02 0.  0.
        254    2    1    2    0    0 -0.19040572705E+03  0.55312379757E+03 -0.33688797717E+02  0.10716040769E+04  0.89721797027E+03 0.  0.
        -24    2    4    4    0    0  0.15822992492E+03  0.62380435956E+03 -0.18820293770E+03  0.67527147488E+03  0.80016441369E+02 0.  0.
         24    2    4    4    0    0 -0.34863565197E+03 -0.70680561984E+02  0.15451413998E+03  0.39633260200E+03  0.81623233776E+02 0.  0.
         13    1    3    3    0    0  0.61570357007E+02 -0.27987886934E+03 -0.86570461996E+02  0.29936188009E+03  0.00000000000E+00 0.  1.
        -13    1    3    3    0    0  0.12883537004E+03 -0.27324492824E+03 -0.16527947762E+03  0.34435250704E+03  0.00000000000E+00 0. -1.
          2    1    6    6  502    0 -0.13795325086E+03 -0.83628216572E+01  0.22528879592E+02  0.14003066316E+03  0.00000000000E+00 0. -1.
          3    1    5    5  503    0  0.49177807851E+02  0.16540772619E+03 -0.14837080117E+02  0.17320020674E+03  0.00000000000E+00 0. -1.
         -4    1    5    5    0  503  0.10905211707E+03  0.45839663337E+03 -0.17336585758E+03  0.50207126814E+03  0.00000000000E+00 0.  1.
         -1    1    6    6    0  502 -0.21068240111E+03 -0.62317740327E+02  0.13198526039E+03  0.25630193884E+03  0.00000000000E+00 0.  1.
<mgrwt>
<rscale>  0 0.16913855E+04</rscale>
<asrwt>0</asrwt>
<pdfrwt beam="1">  1        1 0.15391209E+00 0.16913855E+04</pdfrwt>
<pdfrwt beam="2">  1       -1 0.10998306E+00 0.16913855E+04</pdfrwt>
<totfact> 0.10994671E+01</totfact>
</mgrwt>
</event>
<event>
12    1  0.1960998E-007  0.1851204E+04  0.7818608E-02  0.8679534E-01
          1   -1    0    0  501    0  0.00000000000E+00  0.00000000000E+00  0.39408540216E+03  0.39408540216E+03  0.00000000000E+00 0. -1.
         -1   -1    0    0    0  501 -0.00000000000E+00 -0.00000000000E+00 -0.21739931427E+04  0.21739931427E+04  0.00000000000E+00 0.  1.
         23    2    1    2    0    0  0.57182826317E+03  0.39606889883E+03 -0.56990276180E+03  0.90385244350E+03  0.91115018157E+02 0.  0.
        254    2    1    2    0    0 -0.57182826317E+03 -0.39606889883E+03 -0.12100049788E+04  0.16642261014E+04  0.90646474430E+03 0.  0.
        -24    2    4    4    0    0  0.12769540251E+03  0.74062379627E+02  0.21955407599E+02  0.16941571142E+03  0.80176626617E+02 0.  0.
         24    2    4    4    0    0 -0.69952366568E+03 -0.47013127846E+03 -0.12319603864E+04  0.14948103899E+04  0.79843161793E+02 0.  0.
         13    1    3    3    0    0  0.34119312819E+03  0.25781133763E+03 -0.40141349857E+03  0.58652556071E+03  0.00000000000E+00 0.  1.
        -13    1    3    3    0    0  0.23063513498E+03  0.13825756120E+03 -0.16848926323E+03  0.31732688278E+03  0.00000000000E+00 0. -1.
          4    1    6    6  502    0 -0.56672435179E+03 -0.41642829060E+03 -0.10155615890E+04  0.12352952494E+04  0.00000000000E+00 0. -1.
          1    1    5    5  503    0  0.71246960103E+02 -0.26469820278E+01  0.20420363941E+02  0.74162841782E+02  0.00000000000E+00 0. -1.
         -2    1    5    5    0  503  0.56448442410E+02  0.76709361655E+02  0.15350436583E+01  0.95252869642E+02  0.00000000000E+00 0.  1.
         -3    1    6    6    0  502 -0.13279931389E+03 -0.53702987865E+02 -0.21639879740E+03  0.25951514058E+03  0.00000000000E+00 0.  1.
<mgrwt>
<rscale>  0 0.18512039E+04</rscale>
<asrwt>0</asrwt>
<pdfrwt beam="1">  1        1 0.60628523E-01 0.18512039E+04</pdfrwt>
<pdfrwt beam="2">  1       -1 0.33446049E+00 0.18512039E+04</pdfrwt>
<totfact> 0.11335725E+00</totfact>
</mgrwt>
</event>
<event>
12    1  0.1960998E-007  0.1609211E+04  0.7818608E-02  0.8814909E-01
          1   -1    0    0  501    0  0.00000000000E+00  0.00000000000E+00  0.98940969152E+03  0.98940969152E+03  0.00000000000E+00 0. -1.
         -1   -1    0    0    0  501 -0.00000000000E+00 -0.00000000000E+00 -0.65431937194E+03  0.65431937194E+03  0.00000000000E+00 0.  1.
         23    2    1    2    0    0 -0.52765199506E+03 -0.16191614275E+03  0.10796068756E+03  0.56819915430E+03  0.81001874726E+02 0.  0.
        254    2    1    2    0    0  0.52765199506E+03  0.16191614275E+03  0.22712963202E+03  0.10755299092E+04  0.89473082577E+03 0.  0.
        -24    2    4    4    0    0  0.76409537978E+03  0.20036202596E+03  0.12757621364E+03  0.80434391710E+03  0.81894785211E+02 0.  0.
         24    2    4    4    0    0 -0.23644338471E+03 -0.38445883213E+02  0.99553418388E+02  0.27118599206E+03  0.79040490050E+02 0.  0.
         11    1    3    3    0    0 -0.45362389158E+03 -0.12878853574E+03  0.11903553069E+03  0.48634409580E+03  0.00000000000E+00 0. -1.
        -11    1    3    3    0    0 -0.74028103480E+02 -0.33127607013E+02 -0.11074843133E+02  0.81855058498E+02  0.00000000000E+00 0.  1.
          2    1    6    6  502    0 -0.18545485804E+02 -0.79644338563E+01  0.37494430104E+02  0.42581680794E+02  0.00000000000E+00 0. -1.
          3    1    5    5  503    0  0.16194178638E+03  0.95017722182E+01  0.34459883472E+02  0.16584001151E+03  0.00000000000E+00 0. -1.
         -4    1    5    5    0  503  0.60215359340E+03  0.19086025374E+03  0.93116330164E+02  0.63850390559E+03  0.00000000000E+00 0.  1.
         -1    1    6    6    0  502 -0.21789789891E+03 -0.30481449356E+02  0.62058988284E+02  0.22860431127E+03  0.00000000000E+00 0.  1.
<mgrwt>
<rscale>  0 0.16092109E+04</rscale>
<asrwt>0</asrwt>
<pdfrwt beam="1">  1        1 0.15221688E+00 0.16092109E+04</pdfrwt>
<pdfrwt beam="2">  1       -1 0.10066452E+00 0.16092109E+04</pdfrwt>
<totfact> 0.13885251E+01</totfact>
</mgrwt>
</event>
<event>
12    1  0.1960998E-007  0.1894138E+04  0.7818608E-02  0.8657780E-01
          1   -1    0    0  501    0  0.00000000000E+00  0.00000000000E+00  0.72451353473E+03  0.72451353473E+03  0.00000000000E+00 0. -1.
         -1   -1    0    0    0  501 -0.00000000000E+00 -0.00000000000E+00 -0.12379885773E+04  0.12379885773E+04  0.00000000000E+00 0.  1.
         23    2    1    2    0    0 -0.69614537435E+03  0.11636859369E+03 -0.36338488488E+01  0.71170732645E+03  0.91400666546E+02 0.  0.
        254    2    1    2    0    0  0.69614537435E+03 -0.11636859369E+03 -0.50984119374E+03  0.12507947856E+04  0.89799193818E+03 0.  0.
        -24    2    4    4    0    0  0.50980148477E+03  0.25477686976E+03 -0.58532159912E+03  0.82077999754E+03  0.79180949296E+02 0.  0.
         24    2    4    4    0    0  0.18634388958E+03 -0.37114546344E+03  0.75480405376E+02  0.43001478807E+03  0.82112277656E+02 0.  0.
         11    1    3    3    0    0 -0.28066320490E+03  0.90661794120E+02 -0.14361015309E+02  0.29529245547E+03  0.00000000000E+00 0. -1.
        -11    1    3    3    0    0 -0.41548216945E+03  0.25706799569E+02  0.10727166460E+02  0.41641487098E+03  0.00000000000E+00 0.  1.
          2    1    6    6  502    0  0.13648184436E+03 -0.33504461673E+03  0.63921818701E+02  0.36738016814E+03  0.00000000000E+00 0. -1.
          3    1    5    5  503    0  0.14161681269E+03  0.57797808376E+02 -0.11189250221E+03  0.18951474966E+03  0.00000000000E+00 0. -1.
         -2    1    5    5    0  503  0.36818467208E+03  0.19697906138E+03 -0.47342909690E+03  0.63126524787E+03  0.00000000000E+00 0.  1.
         -1    1    6    6    0  502  0.49862045223E+02 -0.36100846717E+02  0.11558586675E+02  0.62634619927E+02  0.00000000000E+00 0.  1.
<mgrwt>
<rscale>  0 0.18941378E+04</rscale>
<asrwt>0</asrwt>
<pdfrwt beam="1">  1        1 0.11146362E+00 0.18941378E+04</pdfrwt>
<pdfrwt beam="2">  1       -1 0.19045978E+00 0.18941378E+04</pdfrwt>
<totfact> 0.42425013E+00</totfact>
</mgrwt>
</event>
<event>
12    1  0.1960998E-007  0.1278431E+04  0.7818608E-02  0.9046846E-01
         -1   -1    0    0    0  501 -0.00000000000E+00  0.00000000000E+00  0.32564150354E+03  0.32564150354E+03  0.00000000000E+00 0.  1.
          1   -1    0    0  501    0  0.00000000000E+00 -0.00000000000E+00 -0.12547439202E+04  0.12547439202E+04  0.00000000000E+00 0. -1.
         23    2    1    2    0    0 -0.95716246155E+01 -0.16236107170E+03 -0.58623012971E+03  0.61473408741E+03  0.88201471859E+02 0.  0.
        254    2    1    2    0    0  0.95716246155E+01  0.16236107170E+03 -0.34287228694E+03  0.96565133632E+03  0.88795741147E+03 0.  0.
        -24    2    4    4    0    0 -0.31663395289E+03  0.34543977357E+03 -0.37534112606E+02  0.47632606010E+03  0.76759420480E+02 0.  0.
         24    2    4    4    0    0  0.32620557751E+03 -0.18307870188E+03 -0.30533817433E+03  0.48932527622E+03  0.79246043208E+02 0.  0.
         13    1    3    3    0    0 -0.45557262537E+02 -0.11835754035E+03 -0.43750958917E+03  0.45552015558E+03  0.00000000000E+00 0. -1.
        -13    1    3    3    0    0  0.35985637921E+02 -0.44003531343E+02 -0.14872054055E+03  0.15921393183E+03  0.00000000000E+00 0.  1.
          4    1    6    6  502    0  0.14796091980E+03 -0.94131333912E+02 -0.19241529852E+03  0.26033975670E+03  0.00000000000E+00 0. -1.
          3    1    5    5  503    0 -0.22366379964E+03  0.24440335301E+03  0.88054166504E+01  0.33141519216E+03  0.00000000000E+00 0. -1.
         -4    1    5    5    0  503 -0.92970153250E+02  0.10103642057E+03 -0.46339529256E+02  0.14491086794E+03  0.00000000000E+00 0.  1.
         -1    1    6    6    0  502  0.17824465770E+03 -0.88947367966E+02 -0.11292287581E+03  0.22898551952E+03  0.00000000000E+00 0.  1.
<mgrwt>
<rscale>  0 0.12784314E+04</rscale>
<asrwt>0</asrwt>
<pdfrwt beam="1">  1        1 0.19303752E+00 0.12784314E+04</pdfrwt>
<pdfrwt beam="2">  1       -1 0.50098693E-01 0.12784314E+04</pdfrwt>
<totfact> 0.38357700E+01</totfact>
</mgrwt>
</event>
<event>
12    1  0.1960998E-007  0.2449244E+04  0.7818608E-02  0.8421294E-01
          1   -1    0    0  501    0  0.00000000000E+00  0.00000000000E+00  0.23355285049E+04  0.23355285049E+04  0.00000000000E+00 0. -1.
         -1   -1    0    0    0  501 -0.00000000000E+00 -0.00000000000E+00 -0.64212429394E+03  0.64212429394E+03  0.00000000000E+00 0.  1.
         23    2    1    2    0    0 -0.52622120126E+03 -0.23724510533E+03  0.18104593262E+04  0.19024269873E+04  0.90947663866E+02 0.  0.
        254    2    1    2    0    0  0.52622120126E+03  0.23724510533E+03 -0.11705511528E+03  0.10752258115E+04  0.89956359033E+03 0.  0.
        -24    2    4    4    0    0 -0.22222414783E+03  0.20967770954E+03 -0.37156869036E+02  0.31796964343E+03  0.79848277820E+02 0.  0.
         24    2    4    4    0    0  0.74844534909E+03  0.27567395784E+02 -0.79898246240E+02  0.75725616807E+03  0.78248146599E+02 0.  0.
         11    1    3    3    0    0 -0.35596958268E+03 -0.12246617956E+03  0.10838554048E+04  0.11473686624E+04  0.00000000000E+00 0. -1.
        -11    1    3    3    0    0 -0.17025161857E+03 -0.11477892577E+03  0.72660392143E+03  0.75505832494E+03  0.00000000000E+00 0.  1.
          2    1    6    6  502    0  0.31001173066E+03 -0.16783926895E+02 -0.66368227138E+01  0.31053666573E+03  0.00000000000E+00 0. -1.
          3    1    5    5  503    0 -0.16792575838E+02  0.50632060824E+02  0.90006990220E+01  0.54098140166E+02  0.00000000000E+00 0. -1.
         -4    1    5    5    0  503 -0.20543157199E+03  0.15904564872E+03 -0.46157568058E+02  0.26387150327E+03  0.00000000000E+00 0.  1.
         -1    1    6    6    0  502  0.43843361843E+03  0.44351322679E+02 -0.73261423527E+02  0.44671950234E+03  0.00000000000E+00 0.  1.
<mgrwt>
<rscale>  0 0.24492444E+04</rscale>
<asrwt>0</asrwt>
<pdfrwt beam="1">  1        1 0.35931207E+00 0.24492444E+04</pdfrwt>
<pdfrwt beam="2">  1       -1 0.98788354E-01 0.24492444E+04</pdfrwt>
<totfact> 0.15383133E+00</totfact>
</mgrwt>
</event>
<event>
12    1  0.1960998E-007  0.2014546E+04  0.7818608E-02  0.8599850E-01
          2   -1    0    0  501    0  0.00000000000E+00  0.00000000000E+00  0.23166024475E+04  0.23166024475E+04  0.00000000000E+00 0.  1.
         -2   -1    0    0    0  501 -0.00000000000E+00 -0.00000000000E+00 -0.43796847441E+03  0.43796847441E+03  0.00000000000E+00 0. -1.
         23    2    1    2    0    0 -0.19560379715E+03  0.77127191545E+03  0.58555032832E+03  0.99188915051E+03  0.88621029585E+02 0.  0.
        254    2    1    2    0    0  0.19560379715E+03 -0.77127191545E+03  0.12930836448E+04  0.17626817714E+04  0.89546663916E+03 0.  0.
        -24    2    4    4    0    0 -0.11776365983E+03 -0.65796396824E+03  0.34906461687E+03  0.75840744755E+03  0.80937547907E+02 0.  0.
         24    2    4    4    0    0  0.31336745698E+03 -0.11330794721E+03  0.94401902790E+03  0.10042743239E+04  0.79731665840E+02 0.  0.
         11    1    3    3    0    0 -0.11332306646E+03  0.50599535304E+03  0.42950498610E+03  0.67331118198E+03  0.00000000000E+00 0.  1.
        -11    1    3    3    0    0 -0.82280730687E+02  0.26527656242E+03  0.15604534222E+03  0.31857796854E+03  0.00000000000E+00 0. -1.
          4    1    6    6  502    0  0.72439780599E+02 -0.20630565062E+01  0.14083401619E+03  0.15838559951E+03  0.00000000000E+00 0. -1.
          3    1    5    5  503    0  0.60092919868E+01 -0.31085514450E+01  0.47690678310E+01  0.82776017206E+01  0.00000000000E+00 0. -1.
         -4    1    5    5    0  503 -0.12377295182E+03 -0.65485541679E+03  0.34429554904E+03  0.75012984582E+03  0.00000000000E+00 0.  1.
         -1    1    6    6    0  502  0.24092767638E+03 -0.11124489071E+03  0.80318501172E+03  0.84588872436E+03  0.00000000000E+00 0.  1.
<mgrwt>
<rscale>  0 0.20145459E+04</rscale>
<asrwt>0</asrwt>
<pdfrwt beam="1">  1        2 0.35640037E+00 0.20145459E+04</pdfrwt>
<pdfrwt beam="2">  1       -2 0.67379767E-01 0.20145459E+04</pdfrwt>
<totfact> 0.83167469E+00</totfact>
</mgrwt>
</event>
<event>
12    1  0.1960998E-007  0.1785613E+04  0.7818608E-02  0.8713988E-01
         -2   -1    0    0    0  501 -0.00000000000E+00  0.00000000000E+00  0.14021086132E+04  0.14021086132E+04  0.00000000000E+00 0.  1.
          2   -1    0    0  501    0  0.00000000000E+00 -0.00000000000E+00 -0.56850353740E+03  0.56850353740E+03  0.00000000000E+00 0. -1.
         23    2    1    2    0    0 -0.45017634857E+03 -0.15186840681E+03 -0.19696239111E+03  0.52241925362E+03  0.91678433903E+02 0.  0.
        254    2    1    2    0    0  0.45017634857E+03  0.15186840681E+03  0.10305674669E+04  0.14481928970E+04  0.89970584374E+03 0.  0.
        -24    2    4    4    0    0 -0.20575054471E+03  0.22668067234E+03  0.52536957463E+03  0.61317139853E+03  0.79047834722E+02 0.  0.
         24    2    4    4    0    0  0.65592689328E+03 -0.74812265530E+02  0.50519789231E+03  0.83502149849E+03  0.78733907207E+02 0.  0.
         13    1    3    3    0    0 -0.11898921522E+03 -0.22263149460E+02 -0.12260289372E+02  0.12167331613E+03  0.00000000000E+00 0.  1.
        -13    1    3    3    0    0 -0.33118713335E+03 -0.12960525735E+03 -0.18470210174E+03  0.40074593749E+03  0.00000000000E+00 0. -1.
          4    1    6    6  502    0  0.13495486811E+03 -0.11018198598E+02  0.14534902229E+03  0.19864681071E+03  0.00000000000E+00 0. -1.
          1    1    5    5  503    0 -0.31213485446E+02  0.12522766068E+02  0.26141448560E+02  0.42596674477E+02  0.00000000000E+00 0. -1.
         -2    1    5    5    0  503 -0.17453705926E+03  0.21415790627E+03  0.49922812607E+03  0.57057472406E+03  0.00000000000E+00 0.  1.
         -3    1    6    6    0  502  0.52097202517E+03 -0.63794066933E+02  0.35984887002E+03  0.63637468777E+03  0.00000000000E+00 0.  1.
<mgrwt>
<rscale>  0 0.17856133E+04</rscale>
<asrwt>0</asrwt>
<pdfrwt beam="1">  1        2 0.87462084E-01 0.17856133E+04</pdfrwt>
<pdfrwt beam="2">  1       -2 0.21570902E+00 0.17856133E+04</pdfrwt>
<totfact> 0.52606377E+00</totfact>
</mgrwt>
</event>
<event>
12    1  0.1960998E-007  0.2021799E+04  0.7818608E-02  0.8596496E-01
         -1   -1    0    0    0  501 -0.00000000000E+00  0.00000000000E+00  0.11244624363E+04  0.11244624363E+04  0.00000000000E+00 0.  1.
          1   -1    0    0  501    0  0.00000000000E+00 -0.00000000000E+00 -0.90880553757E+03  0.90880553757E+03  0.00000000000E+00 0. -1.
         23    2    1    2    0    0  0.73258134375E+02  0.64368334999E+03  0.57141676917E+03  0.86898742136E+03  0.94482829578E+02 0.  0.
        254    2    1    2    0    0 -0.73258134375E+02 -0.64368334999E+03 -0.35575987042E+03  0.11642805525E+04  0.89960497459E+03 0.  0.
        -24    2    4    4    0    0 -0.19402909527E+03 -0.17160699766E+02  0.21752350653E+03  0.30317624317E+03  0.81593989364E+02 0.  0.
         24    2    4    4    0    0  0.12077096089E+03 -0.62652265022E+03 -0.57328337695E+03  0.86110430937E+03  0.75700363892E+02 0.  0.
         11    1    3    3    0    0  0.21630369555E+02  0.30818175948E+03  0.33259617621E+03  0.45394282260E+03  0.00000000000E+00 0.  1.
        -11    1    3    3    0    0  0.51627764820E+02  0.33550159051E+03  0.23882059296E+03  0.41504459876E+03  0.00000000000E+00 0. -1.
          4    1    6    6  502    0  0.12665691766E+03 -0.58952212076E+03 -0.55457916628E+03  0.81922912382E+03  0.00000000000E+00 0. -1.
          1    1    5    5  503    0 -0.17785453351E+03 -0.38164186778E+02  0.17115946710E+03  0.24976849965E+03  0.00000000000E+00 0. -1.
         -2    1    5    5    0  503 -0.16174561762E+02  0.21003487012E+02  0.46364039430E+02  0.53407743512E+02  0.00000000000E+00 0.  1.
         -3    1    6    6    0  502 -0.58859567624E+01 -0.37000529466E+02 -0.18704210672E+02  0.41875185547E+02  0.00000000000E+00 0.  1.
<mgrwt>
<rscale>  0 0.20217989E+04</rscale>
<asrwt>0</asrwt>
<pdfrwt beam="1">  1        1 0.13981624E+00 0.20217989E+04</pdfrwt>
<pdfrwt beam="2">  1       -1 0.17299422E+00 0.20217989E+04</pdfrwt>
<totfact> 0.38765397E+00</totfact>
</mgrwt>
</event>
<event>
12    1  0.1960998E-007  0.1744374E+04  0.7818608E-02  0.8736453E-01
          1   -1    0    0  501    0  0.00000000000E+00  0.00000000000E+00  0.34007716215E+04  0.34007716215E+04  0.00000000000E+00 0. -1.
         -1   -1    0    0    0  501 -0.00000000000E+00 -0.00000000000E+00 -0.22368744969E+03  0.22368744969E+03  0.00000000000E+00 0.  1.
         23    2    1    2    0    0  0.61568415094E+01 -0.48133944041E+03  0.30651918871E+03  0.57763177969E+03  0.89324667736E+02 0.  0.
        254    2    1    2    0    0 -0.61568415094E+01  0.48133944041E+03  0.28705649831E+04  0.30468272915E+04  0.90071508172E+03 0.  0.
        -24    2    4    4    0    0  0.23208991431E+03 -0.18397265132E+03  0.75670009637E+03  0.81651807483E+03  0.79969156090E+02 0.  0.
         24    2    4    4    0    0 -0.23824675582E+03  0.66531209174E+03  0.21138648868E+04  0.22303092167E+04  0.80328989366E+02 0.  0.
         11    1    3    3    0    0  0.28600800182E+02 -0.26781994449E+03  0.21329405370E+03  0.34356932602E+03  0.00000000000E+00 0. -1.
        -11    1    3    3    0    0 -0.22443958673E+02 -0.21351949592E+03  0.93225135003E+02  0.23406245367E+03  0.00000000000E+00 0.  1.
          4    1    6    6  502    0 -0.10956781785E+03  0.20204794185E+03  0.72666925365E+03  0.76215266300E+03  0.00000000000E+00 0. -1.
          1    1    5    5  503    0  0.55680510202E+02 -0.32071113409E+02  0.26223325365E+03  0.26999102736E+03  0.00000000000E+00 0. -1.
         -2    1    5    5    0  503  0.17640940410E+03 -0.15190153792E+03  0.49446684272E+03  0.54652704748E+03  0.00000000000E+00 0.  1.
         -3    1    6    6    0  502 -0.12867893796E+03  0.46326414989E+03  0.13871956331E+04  0.14681565537E+04  0.00000000000E+00 0.  1.
<mgrwt>
<rscale>  0 0.17443737E+04</rscale>
<asrwt>0</asrwt>
<pdfrwt beam="1">  1        1 0.52319560E+00 0.17443737E+04</pdfrwt>
<pdfrwt beam="2">  1       -1 0.34413456E-01 0.17443737E+04</pdfrwt>
<totfact> 0.22804701E+00</totfact>
</mgrwt>
</event>
<event>
12    1  0.1960998E-007  0.1590216E+04  0.7818608E-02  0.8826581E-01
          1   -1    0    0  501    0  0.00000000000E+00  0.00000000000E+00  0.54109268365E+03  0.54109268365E+03  0.00000000000E+00 0. -1.
         -1   -1    0    0    0  501 -0.00000000000E+00 -0.00000000000E+00 -0.11683709523E+04  0.11683709523E+04  0.00000000000E+00 0.  1.
         23    2    1    2    0    0 -0.23295146818E+03 -0.37305328022E+03  0.11364994407E+03  0.46331789840E+03  0.91170328414E+02 0.  0.
        254    2    1    2    0    0  0.23295146818E+03  0.37305328022E+03 -0.74092821273E+03  0.12461457376E+04  0.90026076578E+03 0.  0.
        -24    2    4    4    0    0  0.36438065016E+02 -0.18013784702E+03 -0.60616247136E+03  0.63862218592E+03  0.81412395560E+02 0.  0.
         24    2    4    4    0    0  0.19651340317E+03  0.55319112724E+03 -0.13476574138E+03  0.60752355165E+03  0.79278747927E+02 0.  0.
         11    1    3    3    0    0 -0.23168178964E+02 -0.91849798676E+02  0.63007302198E+00  0.94728807790E+02  0.00000000000E+00 0.  1.
        -11    1    3    3    0    0 -0.20978328922E+03 -0.28120348154E+03  0.11301987104E+03  0.36858909061E+03  0.00000000000E+00 0. -1.
          2    1    6    6  502    0  0.50728804654E+02  0.21885933983E+03 -0.81157190174E+02  0.23887091026E+03  0.00000000000E+00 0. -1.
          3    1    5    5  503    0  0.62062131854E+01 -0.95107786796E+01 -0.40286126956E+01  0.12049967363E+02  0.00000000000E+00 0. -1.
         -4    1    5    5    0  503  0.30231851830E+02 -0.17062706834E+03 -0.60213385866E+03  0.62657221855E+03  0.00000000000E+00 0.  1.
         -1    1    6    6    0  502  0.14578459852E+03  0.33433178741E+03 -0.53608551203E+02  0.36865264139E+03  0.00000000000E+00 0.  1.
<mgrwt>
<rscale>  0 0.15902163E+04</rscale>
<asrwt>0</asrwt>
<pdfrwt beam="1">  1        1 0.83245030E-01 0.15902163E+04</pdfrwt>
<pdfrwt beam="2">  1       -1 0.17974937E+00 0.15902163E+04</pdfrwt>
<totfact> 0.79650410E+00</totfact>
</mgrwt>
</event>
<event>
12    1  0.1960998E-007  0.2019322E+04  0.7818608E-02  0.8597640E-01
         -1   -1    0    0    0  501 -0.00000000000E+00  0.00000000000E+00  0.85259785752E+03  0.85259785752E+03  0.00000000000E+00 0.  1.
          1   -1    0    0  501    0  0.00000000000E+00 -0.00000000000E+00 -0.11956583978E+04  0.11956583978E+04  0.00000000000E+00 0. -1.
         23    2    1    2    0    0 -0.18605012609E+03  0.72302369190E+03  0.17107399750E+03  0.77135313258E+03  0.91331451577E+02 0.  0.
        254    2    1    2    0    0  0.18605012609E+03 -0.72302369190E+03 -0.51413453778E+03  0.12769031227E+04  0.89931604759E+03 0.  0.
        -24    2    4    4    0    0  0.14565611633E+03 -0.18345907498E+03  0.24039093459E+03  0.34523134027E+03  0.80770913415E+02 0.  0.
         24    2    4    4    0    0  0.40394009766E+02 -0.53956461692E+03 -0.75452547238E+03  0.93167178247E+03  0.77084174296E+02 0.  0.
         11    1    3    3    0    0 -0.14642421641E+03  0.44372132790E+03  0.13866752460E+03  0.48739855392E+03  0.00000000000E+00 0. -1.
        -11    1    3    3    0    0 -0.39625909683E+02  0.27930236400E+03  0.32406472900E+02  0.28395457866E+03  0.00000000000E+00 0.  1.
          2    1    6    6  502    0  0.49910948023E+02 -0.22125467046E+03 -0.34546022399E+03  0.41326444112E+03  0.00000000000E+00 0. -1.
          3    1    5    5  503    0  0.29103235010E+01 -0.55789654293E+02  0.62802531680E+02  0.84054229486E+02  0.00000000000E+00 0. -1.
         -4    1    5    5    0  503  0.14274579283E+03 -0.12766942068E+03  0.17758840291E+03  0.26117711078E+03  0.00000000000E+00 0.  1.
         -1    1    6    6    0  502 -0.95169382569E+01 -0.31830994647E+03 -0.40906524839E+03  0.51840734136E+03  0.00000000000E+00 0.  1.
<mgrwt>
<rscale>  0 0.20193224E+04</rscale>
<asrwt>0</asrwt>
<pdfrwt beam="1">  1        1 0.18394744E+00 0.20193224E+04</pdfrwt>
<pdfrwt beam="2">  1       -1 0.13116890E+00 0.20193224E+04</pdfrwt>
<totfact> 0.49427117E+00</totfact>
</mgrwt>
</event>
<event>
12    1  0.1960998E-007  0.1564826E+04  0.7818608E-02  0.8842453E-01
         -2   -1    0    0    0  501 -0.00000000000E+00  0.00000000000E+00  0.15682320013E+04  0.15682320013E+04  0.00000000000E+00 0.  1.
          2   -1    0    0  501    0  0.00000000000E+00 -0.00000000000E+00 -0.39035683392E+03  0.39035683392E+03  0.00000000000E+00 0. -1.
         23    2    1    2    0    0  0.39608387544E+03  0.33481317998E+03  0.36359136316E+03  0.64073239895E+03  0.96731720912E+02 0.  0.
        254    2    1    2    0    0 -0.39608387544E+03 -0.33481317998E+03  0.81428380422E+03  0.13178564363E+04  0.89705360540E+03 0.  0.
        -24    2    4    4    0    0  0.12914760021E+03 -0.17457064793E+03 -0.96455024249E+02  0.25068406909E+03  0.79905675867E+02 0.  0.
         24    2    4    4    0    0 -0.52523147564E+03 -0.16024253205E+03  0.91073882847E+03  0.10671723672E+04  0.88689771180E+02 0.  0.
         13    1    3    3    0    0  0.86660590335E+02  0.10164385065E+03  0.13957191272E+03  0.19318863609E+03  0.00000000000E+00 0.  1.
        -13    1    3    3    0    0  0.30942328510E+03  0.23316932932E+03  0.22401945044E+03  0.44754376286E+03  0.00000000000E+00 0. -1.
          4    1    6    6  502    0 -0.10374538472E+03 -0.68274944823E+02  0.18268575493E+03  0.22090418284E+03  0.00000000000E+00 0. -1.
          1    1    5    5  503    0  0.12215761374E+02 -0.12501912652E+02  0.13953348120E+02  0.22365566607E+02  0.00000000000E+00 0. -1.
         -2    1    5    5    0  503  0.11693183884E+03 -0.16206873528E+03 -0.11040837237E+03  0.22831850249E+03  0.00000000000E+00 0.  1.
         -3    1    6    6    0  502 -0.42148609092E+03 -0.91967587223E+02  0.72805307354E+03  0.84626818435E+03  0.00000000000E+00 0.  1.
<mgrwt>
<rscale>  0 0.15648260E+04</rscale>
<asrwt>0</asrwt>
<pdfrwt beam="1">  1        2 0.60054898E-01 0.15648260E+04</pdfrwt>
<pdfrwt beam="2">  1       -2 0.24126646E+00 0.15648260E+04</pdfrwt>
<totfact> 0.57178044E+00</totfact>
</mgrwt>
</event>
<event>
12    1  0.1960998E-007  0.1410905E+04  0.7818608E-02  0.8945963E-01
         -1   -1    0    0    0  501 -0.00000000000E+00  0.00000000000E+00  0.40134479571E+03  0.40134479571E+03  0.00000000000E+00 0.  1.
          1   -1    0    0  501    0  0.00000000000E+00 -0.00000000000E+00 -0.12399893363E+04  0.12399893363E+04  0.00000000000E+00 0. -1.
         23    2    1    2    0    0 -0.39701265278E+03  0.73415385119E+02 -0.34805844186E+03  0.54093794940E+03  0.91980002770E+02 0.  0.
        254    2    1    2    0    0  0.39701265278E+03 -0.73415385119E+02 -0.49058609878E+03  0.11003961826E+04  0.89843651597E+03 0.  0.
        -24    2    4    4    0    0 -0.21878405099E+02  0.36211490590E+03 -0.22938754497E+03  0.43689042446E+03  0.81539729632E+02 0.  0.
         24    2    4    4    0    0  0.41889105788E+03 -0.43553029102E+03 -0.26119855381E+03  0.66350575819E+03  0.82818197678E+02 0.  0.
         11    1    3    3    0    0 -0.21591467236E+03  0.86199876572E+02 -0.19977169503E+03  0.30652617278E+03  0.00000000000E+00 0.  1.
        -11    1    3    3    0    0 -0.18109798042E+03 -0.12784491453E+02 -0.14828674683E+03  0.23441177662E+03  0.00000000000E+00 0. -1.
          2    1    6    6  502    0  0.24540585663E+03 -0.28174491558E+03 -0.12179180944E+03  0.39298533913E+03  0.00000000000E+00 0. -1.
          3    1    5    5  503    0 -0.63145716887E+01  0.49643953797E+02 -0.19202236139E+01  0.50080766996E+02  0.00000000000E+00 0. -1.
         -4    1    5    5    0  503 -0.15563833410E+02  0.31247095211E+03 -0.22746732136E+03  0.38680965746E+03  0.00000000000E+00 0.  1.
         -1    1    6    6    0  502  0.17348520126E+03 -0.15378537544E+03 -0.13940674436E+03  0.27052041906E+03  0.00000000000E+00 0.  1.
<mgrwt>
<rscale>  0 0.14109051E+04</rscale>
<asrwt>0</asrwt>
<pdfrwt beam="1">  1        1 0.19076759E+00 0.14109051E+04</pdfrwt>
<pdfrwt beam="2">  1       -1 0.61745353E-01 0.14109051E+04</pdfrwt>
<totfact> 0.25897417E+01</totfact>
</mgrwt>
</event>
<event>
12    1  0.1960998E-007  0.2705586E+04  0.7818608E-02  0.8333195E-01
         -2   -1    0    0    0  501 -0.00000000000E+00  0.00000000000E+00  0.11900037377E+04  0.11900037377E+04  0.00000000000E+00 0.  1.
          2   -1    0    0  501    0  0.00000000000E+00 -0.00000000000E+00 -0.15378517211E+04  0.15378517211E+04  0.00000000000E+00 0. -1.
         23    2    1    2    0    0  0.62758187114E+03 -0.88413615571E+03 -0.67722630667E+03  0.12815354438E+04  0.90232346633E+02 0.  0.
        254    2    1    2    0    0 -0.62758187114E+03  0.88413615571E+03  0.32937832324E+03  0.14463200150E+04  0.89877458752E+03 0.  0.
        -24    2    4    4    0    0 -0.52942947573E+03  0.24408712105E+02  0.75301525640E+02  0.54160790889E+03  0.82325282948E+02 0.  0.
         24    2    4    4    0    0 -0.98152395417E+02  0.85972744361E+03  0.25407679760E+03  0.90471210612E+03  0.71998651850E+02 0.  0.
         11    1    3    3    0    0  0.22153309252E+03 -0.37179845026E+03 -0.30234931889E+03  0.52794517644E+03  0.00000000000E+00 0. -1.
        -11    1    3    3    0    0  0.40604877862E+03 -0.51233770545E+03 -0.37487698779E+03  0.75359026734E+03  0.00000000000E+00 0.  1.
          4    1    6    6  502    0 -0.36080615719E+02  0.10567308592E+03  0.29979961490E+02  0.11561751601E+03  0.00000000000E+00 0. -1.
          3    1    5    5  503    0 -0.11701933861E+03 -0.27687187978E+02  0.25762753503E+02  0.12297896347E+03  0.00000000000E+00 0. -1.
         -4    1    5    5    0  503 -0.41241013712E+03  0.52095900083E+02  0.49538772137E+02  0.41862894542E+03  0.00000000000E+00 0.  1.
         -3    1    6    6    0  502 -0.62071779698E+02  0.75405435769E+03  0.22409683611E+03  0.78909459011E+03  0.00000000000E+00 0.  1.
<mgrwt>
<rscale>  0 0.27055863E+04</rscale>
<asrwt>0</asrwt>
<pdfrwt beam="1">  1        2 0.23659257E+00 0.27055863E+04</pdfrwt>
<pdfrwt beam="2">  1       -2 0.18307750E+00 0.27055863E+04</pdfrwt>
<totfact> 0.18303471E+00</totfact>
</mgrwt>
</event>
<event>
12    1  0.1960998E-007  0.1459190E+04  0.7818608E-02  0.8912054E-01
         -2   -1    0    0    0  501 -0.00000000000E+00  0.00000000000E+00  0.14299298759E+04  0.14299298759E+04  0.00000000000E+00 0.  1.
          2   -1    0    0  501    0  0.00000000000E+00 -0.00000000000E+00 -0.37226242777E+03  0.37226242777E+03  0.00000000000E+00 0. -1.
         23    2    1    2    0    0 -0.12065106650E+03  0.25977258929E+03  0.73828910123E+03  0.79727197488E+03  0.92376008466E+02 0.  0.
        254    2    1    2    0    0  0.12065106650E+03 -0.25977258929E+03  0.31937834686E+03  0.10049203287E+04  0.90874851344E+03 0.  0.
        -24    2    4    4    0    0  0.45272368266E+03 -0.43278273829E+02 -0.39881982670E+02  0.46402776929E+03  0.83062965934E+02 0.  0.
         24    2    4    4    0    0 -0.33207261616E+03 -0.21649431546E+03  0.35926032953E+03  0.54089255945E+03  0.79716782812E+02 0.  0.
         11    1    3    3    0    0 -0.18256637981E+02  0.55357224297E+02  0.70765459456E+02  0.91681390501E+02  0.00000000000E+00 0. -1.
        -11    1    3    3    0    0 -0.10239442852E+03  0.20441536500E+03  0.66752364177E+03  0.70559058438E+03  0.00000000000E+00 0.  1.
          2    1    6    6  502    0 -0.15703772594E+02 -0.37801809595E+02  0.39405908292E+02  0.56819106740E+02  0.00000000000E+00 0. -1.
          1    1    5    5  503    0  0.27628586284E+03 -0.21358037099E+02 -0.64553819845E+02  0.28452985680E+03  0.00000000000E+00 0. -1.
         -2    1    5    5    0  503  0.17643781982E+03 -0.21920236731E+02  0.24671837174E+02  0.17949791250E+03  0.00000000000E+00 0.  1.
         -1    1    6    6    0  502 -0.31636884357E+03 -0.17869250587E+03  0.31985442123E+03  0.48407345271E+03  0.00000000000E+00 0.  1.
<mgrwt>
<rscale>  0 0.14591904E+04</rscale>
<asrwt>0</asrwt>
<pdfrwt beam="1">  1        2 0.57271143E-01 0.14591904E+04</pdfrwt>
<pdfrwt beam="2">  1       -2 0.21998921E+00 0.14591904E+04</pdfrwt>
<totfact> 0.82560850E+00</totfact>
</mgrwt>
</event>
<event>
12    1  0.1960998E-007  0.3642670E+04  0.7818608E-02  0.8080787E-01
          3   -1    0    0  501    0  0.00000000000E+00  0.00000000000E+00  0.13396665781E+04  0.13396665781E+04  0.00000000000E+00 0. -1.
         -3   -1    0    0    0  501 -0.00000000000E+00 -0.00000000000E+00 -0.24761837707E+04  0.24761837707E+04  0.00000000000E+00 0.  1.
         23    2    1    2    0    0  0.44045746314E+01 -0.16222357223E+04 -0.10971247152E+04  0.19605452384E+04  0.91579756759E+02 0.  0.
        254    2    1    2    0    0 -0.44045746314E+01  0.16222357223E+04 -0.39392477386E+02  0.18553051104E+04  0.89940933184E+03 0.  0.
        -24    2    4    4    0    0 -0.41688892836E+03  0.95144086163E+03  0.11733822018E+03  0.10484147037E+04  0.79806273312E+02 0.  0.
         24    2    4    4    0    0  0.41248435373E+03  0.67079486072E+03 -0.15673069757E+03  0.80689040668E+03  0.79990809443E+02 0.  0.
         11    1    3    3    0    0  0.35405026973E+02 -0.13790174614E+04 -0.92141714608E+03  0.16589009108E+04  0.00000000000E+00 0. -1.
        -11    1    3    3    0    0 -0.31000452342E+02 -0.24321826092E+03 -0.17570756916E+03  0.30164432756E+03  0.00000000000E+00 0.  1.
          4    1    6    6  502    0  0.12360085908E+03  0.21112418342E+03 -0.11606276758E+02  0.24491896384E+03  0.00000000000E+00 0. -1.
          1    1    5    5  503    0 -0.37114274358E+03  0.80357052387E+03  0.77137876510E+02  0.88849466793E+03  0.00000000000E+00 0. -1.
         -2    1    5    5    0  503 -0.45746184779E+02  0.14787033776E+03  0.40200343674E+02  0.15992003577E+03  0.00000000000E+00 0.  1.
         -3    1    6    6    0  502  0.28888349465E+03  0.45967067730E+03 -0.14512442081E+03  0.56197144284E+03  0.00000000000E+00 0.  1.
<mgrwt>
<rscale>  0 0.36426697E+04</rscale>
<asrwt>0</asrwt>
<pdfrwt beam="1">  1        3 0.20610255E+00 0.36426697E+04</pdfrwt>
<pdfrwt beam="2">  1       -3 0.38095134E+00 0.36426697E+04</pdfrwt>
<totfact> 0.38109794E-03</totfact>
</mgrwt>
</event>
<event>
12    1  0.1960998E-007  0.1833314E+04  0.7818608E-02  0.8688781E-01
          2   -1    0    0  501    0  0.00000000000E+00  0.00000000000E+00  0.29337402547E+04  0.29337402547E+04  0.00000000000E+00 0.  1.
         -2   -1    0    0    0  501 -0.00000000000E+00 -0.00000000000E+00 -0.28641257934E+03  0.28641257934E+03  0.00000000000E+00 0. -1.
         23    2    1    2    0    0 -0.25263502452E+03  0.17244432873E+03  0.21021079309E+04  0.21261764055E+04  0.90591678254E+02 0.  0.
        254    2    1    2    0    0  0.25263502452E+03 -0.17244432873E+03  0.54521974455E+03  0.10939764286E+04  0.89775183339E+03 0.  0.
        -24    2    4    4    0    0  0.21730797444E+03  0.16940529804E+03 -0.14348981290E+03  0.32040044624E+03  0.78397760112E+02 0.  0.
         24    2    4    4    0    0  0.35327050081E+02 -0.34184962677E+03  0.68870955745E+03  0.77357598236E+03  0.77393657134E+02 0.  0.
         11    1    3    3    0    0 -0.56896454033E+02  0.24413833153E+02  0.23540112337E+03  0.24340692392E+03  0.00000000000E+00 0. -1.
        -11    1    3    3    0    0 -0.19573857048E+03  0.14803049557E+03  0.18667068075E+04  0.18827694816E+04  0.00000000000E+00 0.  1.
          2    1    6    6  502    0  0.29544400369E+02 -0.29064322848E+03  0.51175148392E+03  0.58926729007E+03  0.00000000000E+00 0. -1.
          1    1    5    5  503    0  0.95108906695E+02  0.85472765851E+02 -0.10939905319E+03  0.16828383961E+03  0.00000000000E+00 0. -1.
         -2    1    5    5    0  503  0.12219906774E+03  0.83932532190E+02 -0.34090759708E+02  0.15211660663E+03  0.00000000000E+00 0.  1.
         -1    1    6    6    0  502  0.57826497120E+01 -0.51206398286E+02  0.17695807353E+03  0.18430869229E+03  0.00000000000E+00 0.  1.
<mgrwt>
<rscale>  0 0.18333141E+04</rscale>
<asrwt>0</asrwt>
<pdfrwt beam="1">  1        2 0.45134463E+00 0.18333141E+04</pdfrwt>
<pdfrwt beam="2">  1       -2 0.44063476E-01 0.18333141E+04</pdfrwt>
<totfact> 0.88340057E+00</totfact>
</mgrwt>
</event>
<event>
12    1  0.1960998E-007  0.3429501E+04  0.7818608E-02  0.8130704E-01
          1   -1    0    0  501    0  0.00000000000E+00  0.00000000000E+00  0.24962290940E+04  0.24962290940E+04  0.00000000000E+00 0. -1.
         -1   -1    0    0    0  501 -0.00000000000E+00 -0.00000000000E+00 -0.11779241839E+04  0.11779241839E+04  0.00000000000E+00 0.  1.
         23    2    1    2    0    0  0.33775296379E+03 -0.84475461778E+03 -0.78949318652E+03  0.12079857812E+04  0.90789465940E+02 0.  0.
        254    2    1    2    0    0 -0.33775296379E+03  0.84475461778E+03  0.21077980966E+04  0.24661674967E+04  0.90082288872E+03 0.  0.
        -24    2    4    4    0    0 -0.39591270323E+03  0.82750748104E+03  0.10227014944E+04  0.13761026135E+04  0.78895859604E+02 0.  0.
         24    2    4    4    0    0  0.58159739438E+02  0.17247136742E+02  0.10850966022E+04  0.10900648831E+04  0.84420342646E+02 0.  0.
         13    1    3    3    0    0  0.17057512600E+03 -0.54300445299E+03 -0.50249205960E+03  0.75924171351E+03  0.00000000000E+00 0. -1.
        -13    1    3    3    0    0  0.16717783780E+03 -0.30175016479E+03 -0.28700112692E+03  0.44874406766E+03  0.00000000000E+00 0.  1.
          2    1    6    6  502    0 -0.16943987923E+01  0.37158716795E+02  0.55144495241E+03  0.55269808826E+03  0.00000000000E+00 0. -1.
          3    1    5    5  503    0 -0.21293417307E+02  0.59451374625E+02  0.44761094840E+02  0.77404335645E+02  0.00000000000E+00 0. -1.
         -4    1    5    5    0  503 -0.37461928592E+03  0.76805610642E+03  0.97794039953E+03  0.12986982779E+04  0.00000000000E+00 0.  1.
         -1    1    6    6    0  502  0.59854138230E+02 -0.19911580053E+02  0.53365164983E+03  0.53736679489E+03  0.00000000000E+00 0.  1.
<mgrwt>
<rscale>  0 0.34295006E+04</rscale>
<asrwt>0</asrwt>
<pdfrwt beam="1">  1        1 0.38403524E+00 0.34295006E+04</pdfrwt>
<pdfrwt beam="2">  1       -1 0.18121911E+00 0.34295006E+04</pdfrwt>
<totfact> 0.22808464E-01</totfact>
</mgrwt>
</event>
<event>
12    1  0.1960998E-007  0.2088147E+04  0.7818608E-02  0.8566483E-01
          1   -1    0    0  501    0  0.00000000000E+00  0.00000000000E+00  0.16103788658E+04  0.16103788658E+04  0.00000000000E+00 0. -1.
         -1   -1    0    0    0  501 -0.00000000000E+00 -0.00000000000E+00 -0.67691485795E+03  0.67691485795E+03  0.00000000000E+00 0.  1.
         23    2    1    2    0    0 -0.55270059942E+03 -0.41780295851E+03  0.91858524760E+03  0.11539030359E+04  0.87499111381E+02 0.  0.
        254    2    1    2    0    0  0.55270059942E+03  0.41780295851E+03  0.14878760263E+02  0.11333906878E+04  0.89683655647E+03 0.  0.
        -24    2    4    4    0    0  0.26042453617E+03 -0.10082838269E+03  0.34374509042E+03  0.44845064532E+03  0.70427212770E+02 0.  0.
         24    2    4    4    0    0  0.29227606324E+03  0.51863134120E+03 -0.32886633016E+03  0.68494004251E+03  0.81154380675E+02 0.  0.
         11    1    3    3    0    0 -0.38308080117E+03 -0.23837756730E+03  0.57888830331E+03  0.73395260918E+03  0.00000000000E+00 0.  1.
        -11    1    3    3    0    0 -0.16961979825E+03 -0.17942539121E+03  0.33969694429E+03  0.41995042675E+03  0.00000000000E+00 0. -1.
          4    1    6    6  502    0  0.10017523811E+03  0.19250053780E+03 -0.76842290021E+02  0.23020919382E+03  0.00000000000E+00 0. -1.
          3    1    5    5  503    0  0.17014245019E+03 -0.99592097219E+02  0.22244570664E+03  0.29723581815E+03  0.00000000000E+00 0. -1.
         -4    1    5    5    0  503  0.90282085982E+02 -0.12362854750E+01  0.12129938378E+03  0.15121482717E+03  0.00000000000E+00 0.  1.
         -1    1    6    6    0  502  0.19210082513E+03  0.32613080340E+03 -0.25202404014E+03  0.45473084869E+03  0.00000000000E+00 0.  1.
<mgrwt>
<rscale>  0 0.20881469E+04</rscale>
<asrwt>0</asrwt>
<pdfrwt beam="1">  1        1 0.24775059E+00 0.20881469E+04</pdfrwt>
<pdfrwt beam="2">  1       -1 0.10414075E+00 0.20881469E+04</pdfrwt>
<totfact> 0.43852206E+00</totfact>
</mgrwt>
</event>
<event>
12    1  0.1960998E-007  0.3039781E+04  0.7818608E-02  0.8232462E-01
          2   -1    0    0  501    0  0.00000000000E+00  0.00000000000E+00  0.34648119179E+04  0.34648119179E+04  0.00000000000E+00 0. -1.
         -2   -1    0    0    0  501 -0.00000000000E+00 -0.00000000000E+00 -0.66672202258E+03  0.66672202258E+03  0.00000000000E+00 0.  1.
         23    2    1    2    0    0 -0.62309519191E+03 -0.52460894093E+03  0.27991136896E+04  0.29166369944E+04  0.90949163908E+02 0.  0.
        254    2    1    2    0    0  0.62309519191E+03  0.52460894093E+03 -0.10237942831E+01  0.12148969461E+04  0.90139413271E+03 0.  0.
        -24    2    4    4    0    0 -0.11771199089E+01 -0.13821650602E+03  0.22235011864E+03  0.27352747793E+03  0.79199228395E+02 0.  0.
         24    2    4    4    0    0  0.62427231181E+03  0.66282544695E+03 -0.22337391292E+03  0.94136946820E+03  0.85012224167E+02 0.  0.
         13    1    3    3    0    0 -0.11372027898E+03 -0.97339563699E+02  0.39950133736E+03  0.42662467236E+03  0.00000000000E+00 0.  1.
        -13    1    3    3    0    0 -0.50937491292E+03 -0.42726937723E+03  0.23996123523E+04  0.24900123220E+04  0.00000000000E+00 0. -1.
          2    1    6    6  502    0  0.40264948106E+03  0.42938124219E+03 -0.10229213033E+03  0.59746007035E+03  0.00000000000E+00 0. -1.
          1    1    5    5  503    0  0.15932339216E+02 -0.14093973108E+03  0.20158880959E+03  0.24648710997E+03  0.00000000000E+00 0. -1.
         -2    1    5    5    0  503 -0.17109459125E+02  0.27232250560E+01  0.20761309047E+02  0.27040367963E+02  0.00000000000E+00 0.  1.
         -1    1    6    6    0  502  0.22162283075E+03  0.23344420477E+03 -0.12108178260E+03  0.34390939784E+03  0.00000000000E+00 0.  1.
<mgrwt>
<rscale>  0 0.30397805E+04</rscale>
<asrwt>0</asrwt>
<pdfrwt beam="1">  1        2 0.53304798E+00 0.30397805E+04</pdfrwt>
<pdfrwt beam="2">  1       -2 0.10257262E+00 0.30397805E+04</pdfrwt>
<totfact> 0.57014376E-01</totfact>
</mgrwt>
</event>
<event>
12    1  0.1960998E-007  0.2228461E+04  0.7818608E-02  0.8506674E-01
          2   -1    0    0  501    0  0.00000000000E+00  0.00000000000E+00  0.78914608882E+03  0.78914608882E+03  0.00000000000E+00 0. -1.
         -2   -1    0    0    0  501 -0.00000000000E+00 -0.00000000000E+00 -0.15732322550E+04  0.15732322550E+04  0.00000000000E+00 0.  1.
         23    2    1    2    0    0  0.68863775162E+03 -0.62335291329E+03 -0.36022985331E+03  0.10003841224E+04  0.90620293947E+02 0.  0.
        254    2    1    2    0    0 -0.68863775162E+03  0.62335291329E+03 -0.42385631282E+03  0.13619942214E+04  0.90143401182E+03 0.  0.
        -24    2    4    4    0    0 -0.25299638801E+03  0.43693671073E+03  0.22149484511E+03  0.55745491799E+03  0.82311345786E+02 0.  0.
         24    2    4    4    0    0 -0.43564136360E+03  0.18641620256E+03 -0.64535115793E+03  0.80453930339E+03  0.79189490446E+02 0.  0.
         13    1    3    3    0    0  0.23784112163E+03 -0.27449150758E+03 -0.13483645765E+03  0.38742077536E+03  0.00000000000E+00 0.  1.
        -13    1    3    3    0    0  0.45079662999E+03 -0.34886140571E+03 -0.22539339566E+03  0.61296334704E+03  0.00000000000E+00 0. -1.
          4    1    6    6  502    0 -0.12251497648E+02  0.21218854076E+02 -0.48650403693E+02  0.54472017976E+02  0.00000000000E+00 0. -1.
          1    1    5    5  503    0 -0.27897039774E+02  0.10812162180E+03  0.65987906540E+02  0.12970325261E+03  0.00000000000E+00 0. -1.
         -2    1    5    5    0  503 -0.22509934824E+03  0.32881508893E+03  0.15550693857E+03  0.42775166537E+03  0.00000000000E+00 0.  1.
         -1    1    6    6    0  502 -0.42338986595E+03  0.16519734848E+03 -0.59670075423E+03  0.75006728541E+03  0.00000000000E+00 0.  1.
<mgrwt>
<rscale>  0 0.22284614E+04</rscale>
<asrwt>0</asrwt>
<pdfrwt beam="1">  1        2 0.12140709E+00 0.22284614E+04</pdfrwt>
<pdfrwt beam="2">  1       -2 0.24203573E+00 0.22284614E+04</pdfrwt>
<totfact> 0.23011329E+00</totfact>
</mgrwt>
</event>
<event>
12    1  0.1960998E-007  0.1360718E+04  0.7818608E-02  0.8982754E-01
          2   -1    0    0  501    0  0.00000000000E+00  0.00000000000E+00  0.92011776486E+03  0.92011776486E+03  0.00000000000E+00 0. -1.
         -2   -1    0    0    0  501 -0.00000000000E+00 -0.00000000000E+00 -0.50307520171E+03  0.50307520171E+03  0.00000000000E+00 0.  1.
         23    2    1    2    0    0  0.83788928906E+02 -0.94530858182E+02 -0.24697492479E+03  0.29294976877E+03  0.94160956846E+02 0.  0.
        254    2    1    2    0    0 -0.83788928906E+02  0.94530858182E+02  0.66401748795E+03  0.11302431978E+04  0.90585528320E+03 0.  0.
        -24    2    4    4    0    0  0.23626459600E+03  0.97491976844E+02 -0.10941036347E+03  0.28927647744E+03  0.79903741397E+02 0.  0.
         24    2    4    4    0    0 -0.32005352491E+03 -0.29611186618E+01  0.77342785142E+03  0.84096672036E+03  0.81187168761E+02 0.  0.
         13    1    3    3    0    0  0.90421716112E+02 -0.76065996766E+02 -0.24646168651E+03  0.27332304244E+03  0.00000000000E+00 0.  1.
        -13    1    3    3    0    0 -0.66327872059E+01 -0.18464861416E+02 -0.51323827884E+00  0.19626726338E+02  0.00000000000E+00 0. -1.
          2    1    6    6  502    0 -0.27805492314E+03  0.66287644477E+01  0.58605836285E+03  0.64870862909E+03  0.00000000000E+00 0. -1.
          1    1    5    5  503    0  0.16831793414E+02  0.17991180843E+02  0.10620992618E+02  0.26829039153E+02  0.00000000000E+00 0. -1.
         -2    1    5    5    0  503  0.21943280259E+03  0.79500796001E+02 -0.12003135609E+03  0.26244743828E+03  0.00000000000E+00 0.  1.
         -1    1    6    6    0  502 -0.41998601769E+02 -0.95898831095E+01  0.18736948857E+03  0.19225809126E+03  0.00000000000E+00 0.  1.
<mgrwt>
<rscale>  0 0.13607181E+04</rscale>
<asrwt>0</asrwt>
<pdfrwt beam="1">  1        2 0.14155658E+00 0.13607181E+04</pdfrwt>
<pdfrwt beam="2">  1       -2 0.77396185E-01 0.13607181E+04</pdfrwt>
<totfact> 0.41311518E+01</totfact>
</mgrwt>
</event>
<event>
12    1  0.1960998E-007  0.5120782E+04  0.7818608E-02  0.7810141E-01
          1   -1    0    0  501    0  0.00000000000E+00  0.00000000000E+00  0.18143505919E+04  0.18143505919E+04  0.00000000000E+00 0. -1.
         -1   -1    0    0    0  501 -0.00000000000E+00 -0.00000000000E+00 -0.36131946550E+04  0.36131946550E+04  0.00000000000E+00 0.  1.
         23    2    1    2    0    0  0.16236927259E+04 -0.18155102218E+04 -0.37565910336E+03  0.24664801715E+04  0.99745882790E+02 0.  0.
        254    2    1    2    0    0 -0.16236927259E+04  0.18155102218E+04 -0.14231849597E+04  0.29610650753E+04  0.89999750941E+03 0.  0.
        -24    2    4    4    0    0 -0.38345185967E+03  0.57197887926E+03  0.93164726098E+01  0.69330636086E+03  0.79948398006E+02 0.  0.
         24    2    4    4    0    0 -0.12402408662E+04  0.12435313425E+04 -0.14325014323E+04  0.22677587144E+04  0.78112912500E+02 0.  0.
         13    1    3    3    0    0  0.62555075611E+03 -0.67264963796E+03 -0.96272065778E+02  0.92360142625E+03  0.00000000000E+00 0.  1.
        -13    1    3    3    0    0  0.99814196979E+03 -0.11428605838E+04 -0.27938703758E+03  0.15428787453E+04  0.00000000000E+00 0. -1.
          4    1    6    6  502    0 -0.57176001718E+02  0.69226118722E+02 -0.93597918595E+02  0.12969934869E+03  0.00000000000E+00 0. -1.
          1    1    5    5  503    0 -0.18588692619E+02  0.12526025372E+02 -0.11235859333E+02  0.25073598463E+02  0.00000000000E+00 0. -1.
         -2    1    5    5    0  503 -0.36486316705E+03  0.55945285389E+03  0.20552331942E+02  0.66823276240E+03  0.00000000000E+00 0.  1.
         -3    1    6    6    0  502 -0.11830648645E+04  0.11743052238E+04 -0.13389035137E+04  0.21380593657E+04  0.00000000000E+00 0.  1.
<mgrwt>
<rscale>  0 0.51207819E+04</rscale>
<asrwt>0</asrwt>
<pdfrwt beam="1">  1        1 0.27913086E+00 0.51207819E+04</pdfrwt>
<pdfrwt beam="2">  1       -1 0.55587609E+00 0.51207819E+04</pdfrwt>
<totfact> 0.20146102E-03</totfact>
</mgrwt>
</event>
<event>
12    1  0.1960998E-007  0.1845173E+04  0.7818608E-02  0.8682639E-01
         -2   -1    0    0    0  501 -0.00000000000E+00  0.00000000000E+00  0.13743431143E+04  0.13743431143E+04  0.00000000000E+00 0.  1.
          2   -1    0    0  501    0  0.00000000000E+00 -0.00000000000E+00 -0.61932558375E+03  0.61932558375E+03  0.00000000000E+00 0. -1.
         23    2    1    2    0    0 -0.11337850611E+03  0.55696012533E+03  0.72757821961E+03  0.92772286604E+03  0.90776559040E+02 0.  0.
        254    2    1    2    0    0  0.11337850611E+03 -0.55696012533E+03  0.27439310934E+02  0.10659458320E+04  0.90134806491E+03 0.  0.
        -24    2    4    4    0    0 -0.18696948645E+03  0.24449982000E+02  0.29118441504E+03  0.35589198091E+03  0.79469164051E+02 0.  0.
         24    2    4    4    0    0  0.30034799256E+03 -0.58141010733E+03 -0.26374510410E+03  0.71005385108E+03  0.79802017277E+02 0.  0.
         13    1    3    3    0    0 -0.50875964120E+02  0.38853062313E+03  0.54823951790E+03  0.67387756887E+03  0.00000000000E+00 0.  1.
        -13    1    3    3    0    0 -0.62502541992E+02  0.16842950220E+03  0.17933870171E+03  0.25384529717E+03  0.00000000000E+00 0. -1.
          2    1    6    6  502    0  0.68303954968E+01  0.11454911656E+01 -0.30787585647E+01  0.75792616364E+01  0.00000000000E+00 0. -1.
          3    1    5    5  503    0 -0.23028697463E+02 -0.14528468028E+02  0.86949575759E+02  0.91113259270E+02  0.00000000000E+00 0. -1.
         -4    1    5    5    0  503 -0.16394078899E+03  0.38978450028E+02  0.20423483928E+03  0.26477872164E+03  0.00000000000E+00 0.  1.
         -1    1    6    6    0  502  0.29351759707E+03 -0.58255559849E+03 -0.26066634554E+03  0.70247458945E+03  0.00000000000E+00 0.  1.
<mgrwt>
<rscale>  0 0.18451730E+04</rscale>
<asrwt>0</asrwt>
<pdfrwt beam="1">  1        2 0.95280859E-01 0.18451730E+04</pdfrwt>
<pdfrwt beam="2">  1       -2 0.21143740E+00 0.18451730E+04</pdfrwt>
<totfact> 0.50280077E+00</totfact>
</mgrwt>
</event>
<event>
12    1  0.1960998E-007  0.2819195E+04  0.7818608E-02  0.8297334E-01
          1   -1    0    0  501    0  0.00000000000E+00  0.00000000000E+00  0.28080377522E+04  0.28080377522E+04  0.00000000000E+00 0. -1.
         -1   -1    0    0    0  501 -0.00000000000E+00 -0.00000000000E+00 -0.70759924479E+03  0.70759924479E+03  0.00000000000E+00 0.  1.
         23    2    1    2    0    0  0.40587392392E+03  0.40011055480E+03 -0.46287533436E+03  0.73982232003E+03  0.90892199215E+02 0.  0.
        254    2    1    2    0    0 -0.40587392392E+03 -0.40011055480E+03  0.25633138418E+04  0.27758146770E+04  0.89985952864E+03 0.  0.
        -24    2    4    4    0    0 -0.35608954262E+03 -0.46876893791E+03  0.74055008274E+03  0.94932523637E+03  0.79119528902E+02 0.  0.
         24    2    4    4    0    0 -0.49784381296E+02  0.68658383112E+02  0.18227637590E+04  0.18264894406E+04  0.80021854331E+02 0.  0.
         13    1    3    3    0    0  0.73672570568E+01 -0.13573698585E+01  0.18698990537E+01  0.77211043216E+01  0.00000000000E+00 0. -1.
        -13    1    3    3    0    0  0.39850666686E+03  0.40146792466E+03 -0.46474523341E+03  0.73210121571E+03  0.00000000000E+00 0.  1.
          2    1    6    6  502    0  0.14970115234E+02  0.36615430282E+02  0.91518058921E+03  0.91603510028E+03  0.00000000000E+00 0. -1.
          3    1    5    5  503    0 -0.27949766353E+03 -0.33101686234E+03  0.49810469209E+03  0.66015103677E+03  0.00000000000E+00 0. -1.
         -4    1    5    5    0  503 -0.76591879097E+02 -0.13775207558E+03  0.24244539064E+03  0.28917419960E+03  0.00000000000E+00 0.  1.
         -1    1    6    6    0  502 -0.64754496530E+02  0.32042952831E+02  0.90758316982E+03  0.91045434031E+03  0.00000000000E+00 0.  1.
<mgrwt>
<rscale>  0 0.28191952E+04</rscale>
<asrwt>0</asrwt>
<pdfrwt beam="1">  1        1 0.43200580E+00 0.28191952E+04</pdfrwt>
<pdfrwt beam="2">  1       -1 0.10886142E+00 0.28191952E+04</pdfrwt>
<totfact> 0.55569374E-01</totfact>
</mgrwt>
</event>
<event>
12    1  0.1960998E-007  0.5360999E+04  0.7818608E-02  0.7775111E-01
         -1   -1    0    0    0  501 -0.00000000000E+00  0.00000000000E+00  0.24509941050E+04  0.24509941050E+04  0.00000000000E+00 0.  1.
          1   -1    0    0  501    0  0.00000000000E+00 -0.00000000000E+00 -0.29314956594E+04  0.29314956594E+04  0.00000000000E+00 0. -1.
         23    2    1    2    0    0 -0.16584122551E+04 -0.18249562871E+04 -0.10742406582E+04  0.26912308888E+04  0.89073268778E+02 0.  0.
        254    2    1    2    0    0  0.16584122551E+04  0.18249562871E+04  0.59373910374E+03  0.26912588756E+04  0.89975082896E+03 0.  0.
        -24    2    4    4    0    0 -0.16472174262E+02  0.26234836068E+03  0.25402568901E+03  0.37420449558E+03  0.80012242534E+02 0.  0.
         24    2    4    4    0    0  0.16748844294E+04  0.15626079265E+04  0.33971341473E+03  0.23170543800E+04  0.79714566714E+02 0.  0.
         11    1    3    3    0    0 -0.61167914675E+03 -0.71661192192E+03 -0.37562849456E+03  0.10142883176E+04  0.00000000000E+00 0.  1.
        -11    1    3    3    0    0 -0.10467331084E+04 -0.11083443652E+04 -0.69861216360E+03  0.16769425712E+04  0.00000000000E+00 0. -1.
          4    1    6    6  502    0  0.79055726178E+03  0.77500481590E+03  0.19339364938E+03  0.11238391132E+04  0.00000000000E+00 0. -1.
          1    1    5    5  503    0  0.13699670433E+02  0.90505019416E+02  0.45205895199E+02  0.10209021731E+03  0.00000000000E+00 0. -1.
         -2    1    5    5    0  503 -0.30171844694E+02  0.17184334127E+03  0.20881979381E+03  0.27211427827E+03  0.00000000000E+00 0.  1.
         -3    1    6    6    0  502  0.88432716762E+03  0.78760311055E+03  0.14631976535E+03  0.11932152668E+04  0.00000000000E+00 0.  1.
<mgrwt>
<rscale>  0 0.53609994E+04</rscale>
<asrwt>0</asrwt>
<pdfrwt beam="1">  1        1 0.45099933E+00 0.53609994E+04</pdfrwt>
<pdfrwt beam="2">  1       -1 0.37707602E+00 0.53609994E+04</pdfrwt>
<totfact> 0.48183292E-03</totfact>
</mgrwt>
</event>
<event>
12    1  0.1960998E-007  0.1726799E+04  0.7818608E-02  0.8746226E-01
          2   -1    0    0  501    0  0.00000000000E+00  0.00000000000E+00  0.19509840179E+04  0.19509840179E+04  0.00000000000E+00 0.  1.
         -2   -1    0    0    0  501 -0.00000000000E+00 -0.00000000000E+00 -0.38209388846E+03  0.38209388846E+03  0.00000000000E+00 0. -1.
         23    2    1    2    0    0  0.44056535124E+03  0.46036390213E+03  0.63687555563E+03  0.90543549370E+03  0.90389207244E+02 0.  0.
        254    2    1    2    0    0 -0.44056535124E+03 -0.46036390213E+03  0.93201457385E+03  0.14276424127E+04  0.87377282037E+03 0.  0.
        -24    2    4    4    0    0  0.13052263598E+03 -0.85817807062E+01  0.60760961219E+03  0.62676232707E+03  0.80819356276E+02 0.  0.
         24    2    4    4    0    0 -0.57108798722E+03 -0.45178212142E+03  0.32440496167E+03  0.80088008564E+03  0.76952959937E+02 0.  0.
         11    1    3    3    0    0  0.28857742514E+03  0.27410393102E+03  0.34023199991E+03  0.52361026448E+03  0.00000000000E+00 0. -1.
        -11    1    3    3    0    0  0.15198792610E+03  0.18625997111E+03  0.29664355572E+03  0.38182522922E+03  0.00000000000E+00 0.  1.
          2    1    6    6  502    0 -0.60989664954E+02 -0.64905882482E+02  0.16932967931E+02  0.90660014422E+02  0.00000000000E+00 0. -1.
          1    1    5    5  503    0 -0.50912012248E+01  0.14568298654E+02  0.44862371708E+02  0.47442470960E+02  0.00000000000E+00 0. -1.
         -2    1    5    5    0  503  0.13561383721E+03 -0.23150079360E+02  0.56274724048E+03  0.57931985611E+03  0.00000000000E+00 0.  1.
         -1    1    6    6    0  502 -0.51009832226E+03 -0.38687623894E+03  0.30747199374E+03  0.71022007122E+03  0.00000000000E+00 0.  1.
<mgrwt>
<rscale>  0 0.17267994E+04</rscale>
<asrwt>0</asrwt>
<pdfrwt beam="1">  1        2 0.30015138E+00 0.17267994E+04</pdfrwt>
<pdfrwt beam="2">  1       -2 0.58783676E-01 0.17267994E+04</pdfrwt>
<totfact> 0.18269439E+01</totfact>
</mgrwt>
</event>
<event>
12    1  0.1960998E-007  0.1399392E+04  0.7818608E-02  0.8954259E-01
         -2   -1    0    0    0  501 -0.00000000000E+00  0.00000000000E+00  0.34991174360E+03  0.34991174360E+03  0.00000000000E+00 0.  1.
          2   -1    0    0  501    0  0.00000000000E+00 -0.00000000000E+00 -0.13991369677E+04  0.13991369677E+04  0.00000000000E+00 0. -1.
         23    2    1    2    0    0  0.35198488853E+03 -0.19515917842E+03 -0.26445824309E+03  0.48871478588E+03  0.83207649442E+02 0.  0.
        254    2    1    2    0    0 -0.35198488853E+03  0.19515917842E+03 -0.78476698101E+03  0.12603339254E+04  0.90033433924E+03 0.  0.
        -24    2    4    4    0    0 -0.30436432041E+03  0.45686635651E+03 -0.80984805665E+03  0.98163768330E+03  0.79963486431E+02 0.  0.
         24    2    4    4    0    0 -0.47620568121E+02 -0.26170717809E+03  0.25081075640E+02  0.27869624213E+03  0.79272753498E+02 0.  0.
         11    1    3    3    0    0  0.79586984690E+02 -0.77819982405E+01 -0.60103322309E+02  0.10003527868E+03  0.00000000000E+00 0. -1.
        -11    1    3    3    0    0  0.27239790384E+03 -0.18737718018E+03 -0.20435492078E+03  0.38867950720E+03  0.00000000000E+00 0.  1.
          2    1    6    6  502    0 -0.41093898166E+02 -0.49163551228E+02 -0.33307651845E+01  0.64162740220E+02  0.00000000000E+00 0. -1.
          1    1    5    5  503    0 -0.54690063337E+02  0.38204234147E+02 -0.11288862412E+03  0.13112744941E+03  0.00000000000E+00 0. -1.
         -2    1    5    5    0  503 -0.24967425708E+03  0.41866212236E+03 -0.69695943253E+03  0.85051023388E+03  0.00000000000E+00 0.  1.
         -1    1    6    6    0  502 -0.65266699551E+01 -0.21254362686E+03  0.28411840824E+02  0.21453350191E+03  0.00000000000E+00 0.  1.
<mgrwt>
<rscale>  0 0.13993919E+04</rscale>
<asrwt>0</asrwt>
<pdfrwt beam="1">  1        2 0.21525184E+00 0.13993919E+04</pdfrwt>
<pdfrwt beam="2">  1       -2 0.53832576E-01 0.13993919E+04</pdfrwt>
<totfact> 0.45829374E+01</totfact>
</mgrwt>
</event>
<event>
12    1  0.1960998E-007  0.2121238E+04  0.7818608E-02  0.8551945E-01
         -2   -1    0    0    0  501 -0.00000000000E+00  0.00000000000E+00  0.33376632113E+03  0.33376632113E+03  0.00000000000E+00 0.  1.
          2   -1    0    0  501    0  0.00000000000E+00 -0.00000000000E+00 -0.33703611731E+04  0.33703611731E+04  0.00000000000E+00 0. -1.
         23    2    1    2    0    0 -0.62111812126E+03 -0.37982538553E+03 -0.42733070340E+03  0.84923093370E+03  0.92339615757E+02 0.  0.
        254    2    1    2    0    0  0.62111812126E+03  0.37982538553E+03 -0.26092641486E+04  0.28548965605E+04  0.90117696942E+03 0.  0.
        -24    2    4    4    0    0 -0.22793513861E+03  0.10194368243E+03 -0.56556172359E+03  0.62321684939E+03  0.78690764231E+02 0.  0.
         24    2    4    4    0    0  0.84905325987E+03  0.27788170310E+03 -0.20437024250E+04  0.22316797111E+04  0.74599277507E+02 0.  0.
         11    1    3    3    0    0 -0.25653962719E+03 -0.17937602639E+03 -0.23187580057E+03  0.38955708959E+03  0.00000000000E+00 0. -1.
        -11    1    3    3    0    0 -0.36457849407E+03 -0.20044935914E+03 -0.19545490283E+03  0.45967384411E+03  0.00000000000E+00 0.  1.
          2    1    6    6  502    0  0.22734937990E+03  0.10352881382E+03 -0.52435241102E+03  0.58081959916E+03  0.00000000000E+00 0. -1.
          3    1    5    5  503    0 -0.60528498996E+02  0.13797138261E+02 -0.74539168814E+02  0.97005916842E+02  0.00000000000E+00 0. -1.
         -4    1    5    5    0  503 -0.16740663961E+03  0.88146544164E+02 -0.49102255478E+03  0.52621093255E+03  0.00000000000E+00 0.  1.
         -1    1    6    6    0  502  0.62170387997E+03  0.17435288928E+03 -0.15193500140E+04  0.16508601120E+04  0.00000000000E+00 0.  1.
<mgrwt>
<rscale>  0 0.21212384E+04</rscale>
<asrwt>0</asrwt>
<pdfrwt beam="1">  1        2 0.51851712E+00 0.21212384E+04</pdfrwt>
<pdfrwt beam="2">  1       -2 0.51348663E-01 0.21212384E+04</pdfrwt>
<totfact> 0.33040731E+00</totfact>
</mgrwt>
</event>
<event>
12    1  0.1960998E-007  0.1644267E+04  0.7818608E-02  0.8793805E-01
         -2   -1    0    0    0  501 -0.00000000000E+00  0.00000000000E+00  0.22541689094E+03  0.22541689094E+03  0.00000000000E+00 0. -1.
          2   -1    0    0  501    0  0.00000000000E+00 -0.00000000000E+00 -0.29984597449E+04  0.29984597449E+04  0.00000000000E+00 0.  1.
         23    2    1    2    0    0  0.43341693491E+03  0.35079871546E+03 -0.12138133485E+04  0.13388242565E+04  0.90540413909E+02 0.  0.
        254    2    1    2    0    0 -0.43341693491E+03 -0.35079871546E+03 -0.15592295054E+04  0.18850523793E+04  0.90073072776E+03 0.  0.
        -24    2    4    4    0    0 -0.47689215725E+03 -0.43905362269E+03 -0.51092637212E+03  0.82916057458E+03  0.79166201484E+02 0.  0.
         24    2    4    4    0    0  0.43475222337E+02  0.88254907229E+02 -0.10483031333E+04  0.10558918047E+04  0.79303344270E+02 0.  0.
         11    1    3    3    0    0  0.14190804391E+03  0.15841473016E+03 -0.39467491519E+03  0.44833180607E+03  0.00000000000E+00 0. -1.
        -11    1    3    3    0    0  0.29150889101E+03  0.19238398531E+03 -0.81913843335E+03  0.89049245046E+03  0.00000000000E+00 0.  1.
          4    1    6    6  502    0  0.89124351647E+01  0.29343998652E+02 -0.88527705783E+02  0.93689147977E+02  0.00000000000E+00 0. -1.
          3    1    5    5  503    0 -0.21892433468E+03 -0.14882316617E+03 -0.20429906400E+03  0.33438646302E+03  0.00000000000E+00 0. -1.
         -4    1    5    5    0  503 -0.25796782257E+03 -0.29023045653E+03 -0.30662730812E+03  0.49477411156E+03  0.00000000000E+00 0.  1.
         -3    1    6    6    0  502  0.34562787173E+02  0.58910908577E+02 -0.95977542751E+03  0.96220265675E+03  0.00000000000E+00 0.  1.
<mgrwt>
<rscale>  0 0.16442670E+04</rscale>
<asrwt>0</asrwt>
<pdfrwt beam="1">  1        2 0.46130150E+00 0.16442670E+04</pdfrwt>
<pdfrwt beam="2">  1       -2 0.34679522E-01 0.16442670E+04</pdfrwt>
<totfact> 0.13073742E+01</totfact>
</mgrwt>
</event>
<event>
12    1  0.1960998E-007  0.1240817E+04  0.7818608E-02  0.9077861E-01
          1   -1    0    0  501    0  0.00000000000E+00  0.00000000000E+00  0.37148835849E+03  0.37148835849E+03  0.00000000000E+00 0. -1.
         -1   -1    0    0    0  501 -0.00000000000E+00 -0.00000000000E+00 -0.10361212121E+04  0.10361212121E+04  0.00000000000E+00 0.  1.
         23    2    1    2    0    0 -0.54626384730E+02 -0.83869970619E+02 -0.46478016445E+03  0.48392840446E+03  0.90265638551E+02 0.  0.
        254    2    1    2    0    0  0.54626384730E+02  0.83869970619E+02 -0.19985268919E+03  0.92368116616E+03  0.89622964996E+03 0.  0.
        -24    2    4    4    0    0 -0.38393675588E+03  0.93860766241E+02 -0.25101991429E+03  0.47464935628E+03  0.77870007669E+02 0.  0.
         24    2    4    4    0    0  0.43856314061E+03 -0.99907956215E+01  0.51167225093E+02  0.44903180988E+03  0.81080435775E+02 0.  0.
         11    1    3    3    0    0 -0.13955326548E+02 -0.52916942257E+01 -0.50422962668E+01  0.15753663653E+02  0.00000000000E+00 0. -1.
        -11    1    3    3    0    0 -0.40671058182E+02 -0.78578276393E+02 -0.45973786818E+03  0.46817474081E+03  0.00000000000E+00 0.  1.
          4    1    6    6  502    0  0.41224197872E+03 -0.21240660807E+02  0.63895879871E+02  0.41770479786E+03  0.00000000000E+00 0. -1.
          1    1    5    5  503    0 -0.31430033003E+03  0.10446650088E+03 -0.22043676368E+03  0.39785715281E+03  0.00000000000E+00 0. -1.
         -2    1    5    5    0  503 -0.69636425847E+02 -0.10605734640E+02 -0.30583150608E+02  0.76792203465E+02  0.00000000000E+00 0.  1.
         -3    1    6    6    0  502  0.26321161889E+02  0.11249865185E+02 -0.12728654778E+02  0.31327012024E+02  0.00000000000E+00 0.  1.
<mgrwt>
<rscale>  0 0.12408174E+04</rscale>
<asrwt>0</asrwt>
<pdfrwt beam="1">  1        1 0.57152057E-01 0.12408174E+04</pdfrwt>
<pdfrwt beam="2">  1       -1 0.15940326E+00 0.12408174E+04</pdfrwt>
<totfact> 0.19290067E+01</totfact>
</mgrwt>
</event>
<event>
12    1  0.1960998E-007  0.1429477E+04  0.7818608E-02  0.8932754E-01
          1   -1    0    0  501    0  0.00000000000E+00  0.00000000000E+00  0.17731257146E+04  0.17731257146E+04  0.00000000000E+00 0. -1.
         -1   -1    0    0    0  501 -0.00000000000E+00 -0.00000000000E+00 -0.28810777431E+03  0.28810777431E+03  0.00000000000E+00 0.  1.
         23    2    1    2    0    0  0.27532770449E+03  0.15560773902E+03  0.47322340769E+02  0.33335325189E+03  0.94158766506E+02 0.  0.
        254    2    1    2    0    0 -0.27532770449E+03 -0.15560773902E+03  0.14376955995E+04  0.17278802371E+04  0.90475541631E+03 0.  0.
        -24    2    4    4    0    0 -0.25141968066E+03 -0.38218229110E+03  0.27519544833E+03  0.54059682276E+03  0.85071913957E+02 0.  0.
         24    2    4    4    0    0 -0.23908023836E+02  0.22657455208E+03  0.11625001512E+04  0.11872834143E+04  0.79546734921E+02 0.  0.
         11    1    3    3    0    0 -0.33053699678E+01  0.19108775920E+02 -0.60512358603E+00  0.19401983464E+02  0.00000000000E+00 0. -1.
        -11    1    3    3    0    0  0.27863307446E+03  0.13649896309E+03  0.47927464355E+02  0.31395126843E+03  0.00000000000E+00 0.  1.
          4    1    6    6  502    0  0.23743404575E+02  0.81128664120E+02  0.31899957373E+03  0.33000960204E+03  0.00000000000E+00 0. -1.
          3    1    5    5  503    0 -0.15130209113E+00  0.24696639630E+00  0.13415829254E+02  0.13418955224E+02  0.00000000000E+00 0. -1.
         -4    1    5    5    0  503 -0.25126837856E+03 -0.38242925749E+03  0.26177961908E+03  0.52717786753E+03  0.00000000000E+00 0.  1.
         -1    1    6    6    0  502 -0.47651428411E+02  0.14544588796E+03  0.84350057748E+03  0.85727381225E+03  0.00000000000E+00 0.  1.
<mgrwt>
<rscale>  0 0.14294773E+04</rscale>
<asrwt>0</asrwt>
<pdfrwt beam="1">  1        1 0.27278856E+00 0.14294773E+04</pdfrwt>
<pdfrwt beam="2">  1       -1 0.44324274E-01 0.14294773E+04</pdfrwt>
<totfact> 0.20829653E+01</totfact>
</mgrwt>
</event>
<event>
12    1  0.1960998E-007  0.2031464E+04  0.7818608E-02  0.8592050E-01
         -1   -1    0    0    0  501 -0.00000000000E+00  0.00000000000E+00  0.16912161251E+04  0.16912161251E+04  0.00000000000E+00 0.  1.
          1   -1    0    0  501    0  0.00000000000E+00 -0.00000000000E+00 -0.61004113124E+03  0.61004113124E+03  0.00000000000E+00 0. -1.
         23    2    1    2    0    0 -0.27091726032E+03  0.71892676967E+03  0.73898100518E+03  0.10700875288E+04  0.93501503377E+02 0.  0.
        254    2    1    2    0    0  0.27091726032E+03 -0.71892676967E+03  0.34219398866E+03  0.12311697275E+04  0.89912752714E+03 0.  0.
        -24    2    4    4    0    0 -0.21511229201E+03 -0.53737165604E+03 -0.34615137491E+02  0.58529800389E+03  0.79586121441E+02 0.  0.
         24    2    4    4    0    0  0.48602955232E+03 -0.18155511363E+03  0.37680912615E+03  0.64587172365E+03  0.77318696593E+02 0.  0.
         11    1    3    3    0    0 -0.84456677473E+02  0.34103161283E+03  0.30618777779E+03  0.46603266687E+03  0.00000000000E+00 0. -1.
        -11    1    3    3    0    0 -0.18646058285E+03  0.37789515684E+03  0.43279322739E+03  0.60405486190E+03  0.00000000000E+00 0.  1.
          2    1    6    6  502    0  0.22853214902E+03 -0.44549707528E+02  0.16279210136E+03  0.28410013699E+03  0.00000000000E+00 0. -1.
          1    1    5    5  503    0 -0.16511346363E+03 -0.42109590934E+03  0.60676403926E+01  0.45235056869E+03  0.00000000000E+00 0. -1.
         -2    1    5    5    0  503 -0.49998828380E+02 -0.11627574670E+03 -0.40682777884E+02  0.13294743520E+03  0.00000000000E+00 0.  1.
         -1    1    6    6    0  502  0.25749740331E+03 -0.13700540610E+03  0.21401702479E+03  0.36177158666E+03  0.00000000000E+00 0.  1.
<mgrwt>
<rscale>  0 0.20314639E+04</rscale>
<asrwt>0</asrwt>
<pdfrwt beam="1">  1        1 0.93852482E-01 0.20314639E+04</pdfrwt>
<pdfrwt beam="2">  1       -1 0.26018710E+00 0.20314639E+04</pdfrwt>
<totfact> 0.18508145E+00</totfact>
</mgrwt>
</event>
<event>
12    1  0.1960998E-007  0.2110924E+04  0.7818608E-02  0.8556446E-01
         -2   -1    0    0    0  501 -0.00000000000E+00  0.00000000000E+00  0.28296869621E+03  0.28296869621E+03  0.00000000000E+00 0.  1.
          2   -1    0    0  501    0  0.00000000000E+00 -0.00000000000E+00 -0.39368325928E+04  0.39368325928E+04  0.00000000000E+00 0. -1.
         23    2    1    2    0    0  0.34367892322E+02  0.60007876751E+03 -0.27306321841E+04  0.27973801646E+04  0.87795108320E+02 0.  0.
        254    2    1    2    0    0 -0.34367892322E+02 -0.60007876751E+03 -0.92323171245E+03  0.14224211244E+04  0.89980519060E+03 0.  0.
        -24    2    4    4    0    0  0.73458221754E+02 -0.77744261454E+03 -0.90758447268E+03  0.12000742241E+04  0.81580873652E+02 0.  0.
         24    2    4    4    0    0 -0.10782611408E+03  0.17736384702E+03 -0.15647239770E+02  0.22234690035E+03  0.78159470785E+02 0.  0.
         13    1    3    3    0    0  0.42102844998E+02  0.36478635709E+03 -0.14876511715E+04  0.15323014534E+04  0.00000000000E+00 0.  1.
        -13    1    3    3    0    0 -0.77349526767E+01  0.23529241042E+03 -0.12429810126E+04  0.12650787112E+04  0.00000000000E+00 0. -1.
          2    1    6    6  502    0 -0.17635768009E+02  0.96006385019E+02 -0.24248272222E+02  0.10057944613E+03  0.00000000000E+00 0. -1.
          3    1    5    5  503    0  0.29944315606E+02 -0.22231170960E+03 -0.20777722510E+03  0.30576221731E+03  0.00000000000E+00 0. -1.
         -4    1    5    5    0  503  0.43513906148E+02 -0.55513090494E+03 -0.69980724758E+03  0.89431200675E+03  0.00000000000E+00 0.  1.
         -1    1    6    6    0  502 -0.90190346067E+02  0.81357462006E+02  0.86010324519E+01  0.12176745422E+03  0.00000000000E+00 0.  1.
<mgrwt>
<rscale>  0 0.21109243E+04</rscale>
<asrwt>0</asrwt>
<pdfrwt beam="1">  1        2 0.60566656E+00 0.21109243E+04</pdfrwt>
<pdfrwt beam="2">  1       -2 0.43533645E-01 0.21109243E+04</pdfrwt>
<totfact> 0.17853559E+00</totfact>
</mgrwt>
</event>
<event>
12    1  0.1960998E-007  0.1871869E+04  0.7818608E-02  0.8668987E-01
          2   -1    0    0  501    0  0.00000000000E+00  0.00000000000E+00  0.10589551492E+04  0.10589551492E+04  0.00000000000E+00 0. -1.
         -2   -1    0    0    0  501 -0.00000000000E+00 -0.00000000000E+00 -0.82720517901E+03  0.82720517901E+03  0.00000000000E+00 0.  1.
         23    2    1    2    0    0 -0.40752273490E+02  0.70019211826E+03  0.23293881494E+03  0.74451312331E+03  0.90053034438E+02 0.  0.
        254    2    1    2    0    0  0.40752273490E+02 -0.70019211826E+03 -0.11888447313E+01  0.11416472049E+04  0.90079252710E+03 0.  0.
        -24    2    4    4    0    0  0.12398509643E+03  0.16922144580E+03  0.12520694634E+03  0.25555405249E+03  0.74985948536E+02 0.  0.
         24    2    4    4    0    0 -0.83232822936E+02 -0.86941356406E+03 -0.12639579107E+03  0.88609315243E+03  0.79859442789E+02 0.  0.
         11    1    3    3    0    0 -0.31092124648E+02  0.15336321662E+03  0.20635911089E+02  0.15783800953E+03  0.00000000000E+00 0.  1.
        -11    1    3    3    0    0 -0.96601488423E+01  0.54682890165E+03  0.21230290385E+03  0.58667511378E+03  0.00000000000E+00 0. -1.
          2    1    6    6  502    0 -0.23201084050E+02 -0.42856276297E+03 -0.98200128479E+02  0.44028127071E+03  0.00000000000E+00 0. -1.
          1    1    5    5  503    0  0.13332619211E+03  0.14707579653E+03  0.10795003293E+03  0.22596542443E+03  0.00000000000E+00 0. -1.
         -2    1    5    5    0  503 -0.93410956837E+01  0.22145649268E+02  0.17256913409E+02  0.29588628060E+02  0.00000000000E+00 0.  1.
         -1    1    6    6    0  502 -0.60031738886E+02 -0.44085080109E+03 -0.28195662592E+02  0.44581188172E+03  0.00000000000E+00 0.  1.
<mgrwt>
<rscale>  0 0.18718688E+04</rscale>
<asrwt>0</asrwt>
<pdfrwt beam="1">  1        2 0.16291618E+00 0.18718688E+04</pdfrwt>
<pdfrwt beam="2">  1       -2 0.12726233E+00 0.18718688E+04</pdfrwt>
<totfact> 0.99413697E+00</totfact>
</mgrwt>
</event>
<event>
12    1  0.1960998E-007  0.1658749E+04  0.7818608E-02  0.8785248E-01
         -2   -1    0    0    0  501 -0.00000000000E+00  0.00000000000E+00  0.28732772876E+03  0.28732772876E+03  0.00000000000E+00 0.  1.
          2   -1    0    0  501    0  0.00000000000E+00 -0.00000000000E+00 -0.23939972207E+04  0.23939972207E+04  0.00000000000E+00 0. -1.
         23    2    1    2    0    0  0.74030252612E+02 -0.52801926124E+03 -0.38138617962E+03  0.66177691851E+03  0.90600514998E+02 0.  0.
        254    2    1    2    0    0 -0.74030252612E+02  0.52801926124E+03 -0.17252833123E+04  0.20195480309E+04  0.90426042875E+03 0.  0.
        -24    2    4    4    0    0  0.97935483109E+02  0.42087334762E+03 -0.20712219455E+03  0.48588227772E+03  0.80350798044E+02 0.  0.
         24    2    4    4    0    0 -0.17196573572E+03  0.10714591363E+03 -0.15181611177E+04  0.15336657532E+04  0.79151766024E+02 0.  0.
         11    1    3    3    0    0  0.12970081389E+02 -0.20611636621E+03 -0.19896489522E+03  0.28677379406E+03  0.00000000000E+00 0. -1.
        -11    1    3    3    0    0  0.61060171223E+02 -0.32190289504E+03 -0.18242128440E+03  0.37500312445E+03  0.00000000000E+00 0.  1.
          4    1    6    6  502    0 -0.51143780936E+02  0.67452688671E+02 -0.78561913043E+03  0.79016641895E+03  0.00000000000E+00 0. -1.
          1    1    5    5  503    0  0.27813448476E+01 -0.25568184892E+01 -0.70423661460E+01  0.79917533046E+01  0.00000000000E+00 0. -1.
         -2    1    5    5    0  503  0.95154138261E+02  0.42343016610E+03 -0.20007982841E+03  0.47789052442E+03  0.00000000000E+00 0.  1.
         -3    1    6    6    0  502 -0.12082195478E+03  0.39693224957E+02 -0.73254198730E+03  0.74349933424E+03  0.00000000000E+00 0.  1.
<mgrwt>
<rscale>  0 0.16587487E+04</rscale>
<asrwt>0</asrwt>
<pdfrwt beam="1">  1        2 0.36830726E+00 0.16587487E+04</pdfrwt>
<pdfrwt beam="2">  1       -2 0.44204266E-01 0.16587487E+04</pdfrwt>
<totfact> 0.18589706E+01</totfact>
</mgrwt>
</event>
<event>
12    1  0.1960998E-007  0.2726009E+04  0.7818608E-02  0.8326615E-01
         -2   -1    0    0    0  501 -0.00000000000E+00  0.00000000000E+00  0.57084390364E+03  0.57084390364E+03  0.00000000000E+00 0.  1.
          2   -1    0    0  501    0  0.00000000000E+00 -0.00000000000E+00 -0.32544461142E+04  0.32544461142E+04  0.00000000000E+00 0. -1.
         23    2    1    2    0    0 -0.13941541059E+03 -0.11633134356E+04 -0.76030271048E+03  0.14002191405E+04  0.99088968972E+02 0.  0.
        254    2    1    2    0    0  0.13941541059E+03  0.11633134356E+04 -0.19232995001E+04  0.24250708773E+04  0.89952931410E+03 0.  0.
        -24    2    4    4    0    0 -0.48301195625E+02  0.12483623447E+04 -0.15647232287E+04  0.20038474871E+04  0.79400376433E+02 0.  0.
         24    2    4    4    0    0  0.18771660622E+03 -0.85048909136E+02 -0.35857627138E+03  0.42122339026E+03  0.79883420738E+02 0.  0.
         13    1    3    3    0    0 -0.15182878487E+03 -0.10761680822E+04 -0.68780363325E+03  0.12861817753E+04  0.00000000000E+00 0.  1.
        -13    1    3    3    0    0  0.12413374279E+02 -0.87145353363E+02 -0.72499077228E+02  0.11403736525E+03  0.00000000000E+00 0. -1.
          4    1    6    6  502    0 -0.77685831621E+01 -0.51599271972E+01 -0.10055297571E+02  0.13714399085E+02  0.00000000000E+00 0. -1.
          1    1    5    5  503    0 -0.77355374566E+01  0.10614221772E+03 -0.17098143216E+03  0.20139677024E+03  0.00000000000E+00 0. -1.
         -2    1    5    5    0  503 -0.40565658169E+02  0.11422201270E+04 -0.13937417966E+04  0.18024507168E+04  0.00000000000E+00 0.  1.
         -3    1    6    6    0  502  0.19548518938E+03 -0.79888981939E+02 -0.34852097381E+03  0.40750899118E+03  0.00000000000E+00 0.  1.
<mgrwt>
<rscale>  0 0.27260086E+04</rscale>
<asrwt>0</asrwt>
<pdfrwt beam="1">  1        2 0.50068402E+00 0.27260086E+04</pdfrwt>
<pdfrwt beam="2">  1       -2 0.87822138E-01 0.27260086E+04</pdfrwt>
<totfact> 0.11687813E+00</totfact>
</mgrwt>
</event>
<event>
12    1  0.1960998E-007  0.3114636E+04  0.7818608E-02  0.8211733E-01
         -1   -1    0    0    0  501 -0.00000000000E+00  0.00000000000E+00  0.16517708806E+04  0.16517708806E+04  0.00000000000E+00 0.  1.
          1   -1    0    0  501    0  0.00000000000E+00 -0.00000000000E+00 -0.14682665994E+04  0.14682665994E+04  0.00000000000E+00 0. -1.
         23    2    1    2    0    0 -0.27401643491E+02  0.14017234396E+04  0.34821419094E+03  0.14474499171E+04  0.90987298973E+02 0.  0.
        254    2    1    2    0    0  0.27401643491E+02 -0.14017234396E+04 -0.16470990979E+03  0.16725875630E+04  0.89712894853E+03 0.  0.
        -24    2    4    4    0    0  0.11808659520E+03 -0.14179762895E+04  0.52460674936E+02  0.14263225306E+04  0.83920423600E+02 0.  0.
         24    2    4    4    0    0 -0.90684951713E+02  0.16252849900E+02 -0.21717058472E+03  0.24626503234E+03  0.70678764043E+02 0.  0.
         11    1    3    3    0    0 -0.20877435773E+02  0.31108021415E+03  0.11365707125E+03  0.33185041330E+03  0.00000000000E+00 0.  1.
        -11    1    3    3    0    0 -0.65242077181E+01  0.10906432254E+04  0.23455711968E+03  0.11155995038E+04  0.00000000000E+00 0. -1.
          4    1    6    6  502    0  0.10072259145E+02 -0.75482521252E+01 -0.23871016283E+02  0.26986143348E+02  0.00000000000E+00 0. -1.
          3    1    5    5  503    0  0.15721723133E+02 -0.79239714945E+02  0.20286834583E+02  0.83292620683E+02  0.00000000000E+00 0. -1.
         -4    1    5    5    0  503  0.10236487207E+03 -0.13387365745E+04  0.32173840354E+02  0.13430299099E+04  0.00000000000E+00 0.  1.
         -3    1    6    6    0  502 -0.10075721086E+03  0.23801102025E+02 -0.19329956844E+03  0.21927888899E+03  0.00000000000E+00 0.  1.
<mgrwt>
<rscale>  0 0.31146364E+04</rscale>
<asrwt>0</asrwt>
<pdfrwt beam="1">  1        1 0.22588717E+00 0.31146364E+04</pdfrwt>
<pdfrwt beam="2">  1       -1 0.25411860E+00 0.31146364E+04</pdfrwt>
<totfact> 0.38011362E-01</totfact>
</mgrwt>
</event>
<event>
12    1  0.1960998E-007  0.1415259E+04  0.7818608E-02  0.8942847E-01
         -1   -1    0    0    0  501 -0.00000000000E+00  0.00000000000E+00  0.75979237457E+03  0.75979237457E+03  0.00000000000E+00 0.  1.
          1   -1    0    0  501    0  0.00000000000E+00 -0.00000000000E+00 -0.65904751978E+03  0.65904751978E+03  0.00000000000E+00 0. -1.
         23    2    1    2    0    0  0.27939656123E+03 -0.25140636019E+03 -0.14381309125E+03  0.41262863516E+03  0.91173400561E+02 0.  0.
        254    2    1    2    0    0 -0.27939656123E+03  0.25140636019E+03  0.24455794604E+03  0.10062112592E+04  0.90076906739E+03 0.  0.
        -24    2    4    4    0    0 -0.31591902936E+03  0.32118313081E+02  0.53812007428E+03  0.62954167387E+03  0.76896590636E+02 0.  0.
         24    2    4    4    0    0  0.36522468129E+02  0.21928804711E+03 -0.29356212823E+03  0.37666958532E+03  0.79247177139E+02 0.  0.
         11    1    3    3    0    0  0.25355556655E+03 -0.25043146555E+03 -0.14896652070E+03  0.38626075203E+03  0.00000000000E+00 0. -1.
        -11    1    3    3    0    0  0.25840994689E+02 -0.97489464033E+00  0.51534294584E+01  0.26367883139E+02  0.00000000000E+00 0.  1.
          4    1    6    6  502    0  0.30582806016E+02  0.81317722250E+02 -0.60858202099E+02  0.10607356286E+03  0.00000000000E+00 0. -1.
          3    1    5    5  503    0 -0.69314403240E+02  0.11832278358E+02  0.18876112836E+03  0.20143299850E+03  0.00000000000E+00 0. -1.
         -4    1    5    5    0  503 -0.24660462612E+03  0.20286034723E+02  0.34935894592E+03  0.42810867537E+03  0.00000000000E+00 0.  1.
         -3    1    6    6    0  502  0.59396621124E+01  0.13797032486E+03 -0.23270392614E+03  0.27059602245E+03  0.00000000000E+00 0.  1.
<mgrwt>
<rscale>  0 0.14152587E+04</rscale>
<asrwt>0</asrwt>
<pdfrwt beam="1">  1        1 0.10139193E+00 0.14152587E+04</pdfrwt>
<pdfrwt beam="2">  1       -1 0.11689114E+00 0.14152587E+04</pdfrwt>
<totfact> 0.19183532E+01</totfact>
</mgrwt>
</event>
<event>
12    1  0.1960998E-007  0.4579548E+04  0.7818608E-02  0.7896856E-01
          2   -1    0    0  501    0  0.00000000000E+00  0.00000000000E+00  0.25603314382E+04  0.25603314382E+04  0.00000000000E+00 0. -1.
         -2   -1    0    0    0  501 -0.00000000000E+00 -0.00000000000E+00 -0.20478074969E+04  0.20478074969E+04  0.00000000000E+00 0.  1.
         23    2    1    2    0    0 -0.12398207917E+04  0.15351251237E+04  0.12279469649E+04  0.23259497301E+04  0.91780485659E+02 0.  0.
        254    2    1    2    0    0  0.12398207917E+04 -0.15351251237E+04 -0.71542302359E+03  0.22821892049E+04  0.89598701063E+03 0.  0.
        -24    2    4    4    0    0  0.45704484969E+03 -0.20245657497E+03  0.12344522520E+03  0.52184404249E+03  0.84875330261E+02 0.  0.
         24    2    4    4    0    0  0.78277594205E+03 -0.13326685487E+04 -0.83886824879E+03  0.17603451624E+04  0.79821774849E+02 0.  0.
         11    1    3    3    0    0 -0.64721651416E+03  0.85249412252E+03  0.62733349698E+03  0.12406380462E+04  0.00000000000E+00 0. -1.
        -11    1    3    3    0    0 -0.59260427758E+03  0.68263100117E+03  0.60061346791E+03  0.10853116840E+04  0.00000000000E+00 0.  1.
          4    1    6    6  502    0  0.58382074035E+03 -0.99774490462E+03 -0.58750125117E+03  0.12967263673E+04  0.00000000000E+00 0. -1.
          1    1    5    5  503    0  0.35668351433E+03 -0.11779178106E+03  0.95992167753E+02  0.38770159834E+03  0.00000000000E+00 0. -1.
         -2    1    5    5    0  503  0.10036133536E+03 -0.84664793904E+02  0.27453057446E+02  0.13414244416E+03  0.00000000000E+00 0.  1.
         -3    1    6    6    0  502  0.19895520170E+03 -0.33492364410E+03 -0.25136699763E+03  0.46361879509E+03  0.00000000000E+00 0.  1.
<mgrwt>
<rscale>  0 0.45795484E+04</rscale>
<asrwt>0</asrwt>
<pdfrwt beam="1">  1        2 0.39389714E+00 0.45795484E+04</pdfrwt>
<pdfrwt beam="2">  1       -2 0.31504731E+00 0.45795484E+04</pdfrwt>
<totfact> 0.62094414E-02</totfact>
</mgrwt>
</event>
<event>
12    1  0.2511279E-007  0.3668646E+04  0.7818608E-02  0.8074946E-01
          1   -1    0    0  501    0  0.00000000000E+00  0.00000000000E+00  0.23617829145E+04  0.23617829145E+04  0.00000000000E+00 0. -1.
         -1   -1    0    0    0  501 -0.00000000000E+00 -0.00000000000E+00 -0.14246612369E+04  0.14246612369E+04  0.00000000000E+00 0.  1.
         23    2    1    2    0    0 -0.14208106567E+04 -0.81218315994E+03  0.99646976668E+03  0.19182577356E+04  0.91740594807E+02 0.  0.
        254    2    1    2    0    0  0.14208106567E+04  0.81218315994E+03 -0.59348089076E+02  0.18681864158E+04  0.89902941050E+03 0.  0.
        -24    2    4    4    0    0 -0.57265977414E+02  0.16881112498E+03  0.14203144028E+03  0.24174855985E+03  0.80578210904E+02 0.  0.
         24    2    4    4    0    0  0.14780766341E+04  0.64337203496E+03 -0.20137952935E+03  0.16264378559E+04  0.78155439330E+02 0.  0.
         13    1    3    3    0    0 -0.86380777840E+03 -0.45725350015E+03  0.55711246865E+03  0.11249973085E+04  0.00000000000E+00 0. -1.
        -13    1    3    3    0    0 -0.55700287830E+03 -0.35492965979E+03  0.43935729802E+03  0.79326042707E+03  0.00000000000E+00 0.  1.
          2    1    6    6  502    0  0.63696050361E+02  0.23423492311E+02 -0.24075241525E+02  0.72010166491E+02  0.00000000000E+00 0. -1.
          1    1    5    5  503    0 -0.18349719073E+02  0.61901168009E+02  0.66448250305E+01  0.64904703147E+02  0.00000000000E+00 0. -1.
         -2    1    5    5    0  503 -0.38916258341E+02  0.10690995697E+03  0.13538661525E+03  0.17684385670E+03  0.00000000000E+00 0.  1.
         -1    1    6    6    0  502  0.14143805838E+04  0.61994854265E+03 -0.17730428783E+03  0.15544276894E+04  0.00000000000E+00 0.  1.
<mgrwt>
<rscale>  0 0.36686458E+04</rscale>
<asrwt>0</asrwt>
<pdfrwt beam="1">  1        1 0.36335122E+00 0.36686458E+04</pdfrwt>
<pdfrwt beam="2">  1       -1 0.21917865E+00 0.36686458E+04</pdfrwt>
<totfact> 0.15133999E-01</totfact>
</mgrwt>
</event>
<event>
12    1  0.1960998E-007  0.1936126E+04  0.7818608E-02  0.8637080E-01
          2   -1    0    0  501    0  0.00000000000E+00  0.00000000000E+00  0.74985200167E+03  0.74985200167E+03  0.00000000000E+00 0. -1.
         -2   -1    0    0    0  501 -0.00000000000E+00 -0.00000000000E+00 -0.12497746718E+04  0.12497746718E+04  0.00000000000E+00 0.  1.
         23    2    1    2    0    0  0.59332882254E+03 -0.29719345385E+03 -0.57162071960E+03  0.88035622542E+03  0.88959518289E+02 0.  0.
        254    2    1    2    0    0 -0.59332882254E+03  0.29719345385E+03  0.71698049466E+02  0.11192704481E+04  0.89847798244E+03 0.  0.
        -24    2    4    4    0    0 -0.79446250571E+03  0.87509372731E+02 -0.20920592640E+02  0.80361165705E+03  0.80780324716E+02 0.  0.
         24    2    4    4    0    0  0.20113368317E+03  0.20968408112E+03  0.92618642106E+02  0.31565879100E+03  0.81486729528E+02 0.  0.
         13    1    3    3    0    0  0.33715172313E+03 -0.12775383889E+03 -0.27596718259E+03  0.45403767864E+03  0.00000000000E+00 0. -1.
        -13    1    3    3    0    0  0.25617709941E+03 -0.16943961497E+03 -0.29565353702E+03  0.42631854678E+03  0.00000000000E+00 0.  1.
          4    1    6    6  502    0 -0.65310771968E+01  0.28266755284E+00  0.42253200197E+01  0.77838422110E+01  0.00000000000E+00 0. -1.
          3    1    5    5  503    0 -0.34941713853E+03  0.71617090519E+02 -0.32271825966E+02  0.35813798333E+03  0.00000000000E+00 0. -1.
         -4    1    5    5    0  503 -0.44504536718E+03  0.15892282213E+02  0.11351233326E+02  0.44547367372E+03  0.00000000000E+00 0.  1.
         -1    1    6    6    0  502  0.20766476037E+03  0.20940141357E+03  0.88393322086E+02  0.30787494879E+03  0.00000000000E+00 0.  1.
<mgrwt>
<rscale>  0 0.19361261E+04</rscale>
<asrwt>0</asrwt>
<pdfrwt beam="1">  1        2 0.11536185E+00 0.19361261E+04</pdfrwt>
<pdfrwt beam="2">  1       -2 0.19227303E+00 0.19361261E+04</pdfrwt>
<totfact> 0.52391368E+00</totfact>
</mgrwt>
</event>
<event>
12    1  0.1960998E-007  0.4730357E+04  0.7818608E-02  0.7871504E-01
         -2   -1    0    0    0  501 -0.00000000000E+00  0.00000000000E+00  0.15970275777E+04  0.15970275777E+04  0.00000000000E+00 0.  1.
          2   -1    0    0  501    0  0.00000000000E+00 -0.00000000000E+00 -0.35028014395E+04  0.35028014395E+04  0.00000000000E+00 0. -1.
         23    2    1    2    0    0 -0.12212058474E+04 -0.19056157496E+04 -0.12103866960E+04  0.25681731684E+04  0.88104268109E+02 0.  0.
        254    2    1    2    0    0  0.12212058474E+04  0.19056157496E+04 -0.69538716585E+03  0.25316558488E+04  0.89610430166E+03 0.  0.
        -24    2    4    4    0    0  0.39114180887E+03  0.14104159857E+03 -0.35067011730E+03  0.54972252296E+03  0.79628348624E+02 0.  0.
         24    2    4    4    0    0  0.83006403850E+03  0.17645741510E+04 -0.34471704855E+03  0.19819333258E+04  0.80632635806E+02 0.  0.
         13    1    3    3    0    0 -0.19872924318E+03 -0.37016442442E+03 -0.21207643718E+03  0.47062875858E+03  0.00000000000E+00 0.  1.
        -13    1    3    3    0    0 -0.10224766042E+04 -0.15354513252E+04 -0.99831025882E+03  0.20975444098E+04  0.00000000000E+00 0. -1.
          4    1    6    6  502    0  0.40382129904E+03  0.94768031830E+03 -0.19550286037E+03  0.10485184765E+04  0.00000000000E+00 0. -1.
          3    1    5    5  503    0  0.35271848115E+03  0.14039750132E+03 -0.28924814959E+03  0.47726960658E+03  0.00000000000E+00 0. -1.
         -4    1    5    5    0  503  0.38423327723E+02  0.64409724926E+00 -0.61421967710E+02  0.72452916380E+02  0.00000000000E+00 0.  1.
         -1    1    6    6    0  502  0.42624273945E+03  0.81689383274E+03 -0.14921418819E+03  0.93341484928E+03  0.00000000000E+00 0.  1.
<mgrwt>
<rscale>  0 0.47303575E+04</rscale>
<asrwt>0</asrwt>
<pdfrwt beam="1">  1        2 0.53889253E+00 0.47303575E+04</pdfrwt>
<pdfrwt beam="2">  1       -2 0.24569655E+00 0.47303575E+04</pdfrwt>
<totfact> 0.41036417E-02</totfact>
</mgrwt>
</event>
<event>
12    1  0.1960998E-007  0.1903194E+04  0.7818608E-02  0.8653268E-01
         -2   -1    0    0    0  501 -0.00000000000E+00  0.00000000000E+00  0.15445813451E+04  0.15445813451E+04  0.00000000000E+00 0. -1.
          2   -1    0    0  501    0  0.00000000000E+00 -0.00000000000E+00 -0.58626684662E+03  0.58626684662E+03  0.00000000000E+00 0.  1.
         23    2    1    2    0    0 -0.66825244708E+03  0.30140173617E+03  0.30385545861E+03  0.79837344230E+03  0.87565255900E+02 0.  0.
        254    2    1    2    0    0  0.66825244708E+03 -0.30140173617E+03  0.65445903989E+03  0.13324747495E+04  0.89987109268E+03 0.  0.
        -24    2    4    4    0    0  0.17380931195E+03 -0.40341101276E+03 -0.63653626708E+02  0.45102910754E+03  0.80158277913E+02 0.  0.
         24    2    4    4    0    0  0.49444313513E+03  0.10200927659E+03  0.71811266660E+03  0.88144564192E+03  0.79879354918E+02 0.  0.
         13    1    3    3    0    0 -0.34175052262E+03  0.16809409624E+03  0.11242303550E+03  0.39709946337E+03  0.00000000000E+00 0.  1.
        -13    1    3    3    0    0 -0.32650192446E+03  0.13330763993E+03  0.19143242312E+03  0.40127397893E+03  0.00000000000E+00 0. -1.
          4    1    6    6  502    0  0.42783287349E+03  0.10973950714E+03  0.64998395856E+03  0.78585168668E+03  0.00000000000E+00 0. -1.
          3    1    5    5  503    0  0.16836360566E+03 -0.39243936903E+03 -0.75883289327E+02  0.43372022742E+03  0.00000000000E+00 0. -1.
         -2    1    5    5    0  503  0.54457062861E+01 -0.10971643729E+02  0.12229662619E+02  0.17308880115E+02  0.00000000000E+00 0.  1.
         -3    1    6    6    0  502  0.66610261641E+02 -0.77302305485E+01  0.68128708035E+02  0.95593955242E+02  0.00000000000E+00 0.  1.
<mgrwt>
<rscale>  0 0.19031940E+04</rscale>
<asrwt>0</asrwt>
<pdfrwt beam="1">  1        2 0.90194900E-01 0.19031940E+04</pdfrwt>
<pdfrwt beam="2">  1       -2 0.23762790E+00 0.19031940E+04</pdfrwt>
<totfact> 0.36580404E+00</totfact>
</mgrwt>
</event>
<event>
12    1  0.1960998E-007  0.2711336E+04  0.7818608E-02  0.8331336E-01
          2   -1    0    0  501    0  0.00000000000E+00  0.00000000000E+00  0.44710975573E+04  0.44710975573E+04  0.00000000000E+00 0. -1.
         -2   -1    0    0    0  501 -0.00000000000E+00 -0.00000000000E+00 -0.41104800079E+03  0.41104800079E+03  0.00000000000E+00 0.  1.
         23    2    1    2    0    0  0.10754587813E+03  0.11605153417E+04  0.23488090465E+04  0.26235974641E+04  0.89430099837E+02 0.  0.
        254    2    1    2    0    0 -0.10754587813E+03 -0.11605153417E+04  0.17112405100E+04  0.22585480939E+04  0.90240425268E+03 0.  0.
        -24    2    4    4    0    0  0.72594866937E+02 -0.11360771824E+04  0.17145760149E+04  0.20596393252E+04  0.80011623509E+02 0.  0.
         24    2    4    4    0    0 -0.18014074506E+03 -0.24438159361E+02 -0.33355049462E+01  0.19890876873E+03  0.80657677998E+02 0.  0.
         13    1    3    3    0    0  0.10273743764E+03  0.69249321135E+03  0.13599712711E+04  0.15295828474E+04  0.00000000000E+00 0. -1.
        -13    1    3    3    0    0  0.48084404815E+01  0.46802213036E+03  0.98883777534E+03  0.10940146167E+04  0.00000000000E+00 0.  1.
          4    1    6    6  502    0 -0.20350211428E+02  0.23547543614E+02  0.64420056487E+01  0.31782343403E+02  0.00000000000E+00 0. -1.
          1    1    5    5  503    0  0.64906980948E+02 -0.90689136309E+03  0.13102222799E+04  0.15947875355E+04  0.00000000000E+00 0. -1.
         -2    1    5    5    0  503  0.76878859885E+01 -0.22918581926E+03  0.40435373506E+03  0.46485178971E+03  0.00000000000E+00 0.  1.
         -3    1    6    6    0  502 -0.15979053363E+03 -0.47985702975E+02 -0.97775105949E+01  0.16712642533E+03  0.00000000000E+00 0.  1.
<mgrwt>
<rscale>  0 0.27113360E+04</rscale>
<asrwt>0</asrwt>
<pdfrwt beam="1">  1        2 0.68786113E+00 0.27113360E+04</pdfrwt>
<pdfrwt beam="2">  1       -2 0.63238157E-01 0.27113360E+04</pdfrwt>
<totfact> 0.26720405E-01</totfact>
</mgrwt>
</event>
<event>
12    1  0.1960998E-007  0.2321136E+04  0.7818608E-02  0.8469634E-01
         -2   -1    0    0    0  501 -0.00000000000E+00  0.00000000000E+00  0.21728136948E+04  0.21728136948E+04  0.00000000000E+00 0.  1.
          2   -1    0    0  501    0  0.00000000000E+00 -0.00000000000E+00 -0.61989559874E+03  0.61989559874E+03  0.00000000000E+00 0. -1.
         23    2    1    2    0    0 -0.21533010351E+03 -0.41553655313E+03 -0.38551038869E+03  0.61317431756E+03  0.91251320298E+02 0.  0.
        254    2    1    2    0    0  0.21533010351E+03  0.41553655313E+03  0.19384284847E+04  0.21795349759E+04  0.87967609980E+03 0.  0.
        -24    2    4    4    0    0  0.55070725220E+03  0.21621738658E+03  0.11158026677E+04  0.12655169240E+04  0.80554675931E+02 0.  0.
         24    2    4    4    0    0 -0.33537714869E+03  0.19931916655E+03  0.82262581706E+03  0.91401805198E+03  0.80683346691E+02 0.  0.
         13    1    3    3    0    0  0.36217123386E+00 -0.66498546367E+02 -0.51721372879E+02  0.84245404916E+02  0.00000000000E+00 0.  1.
        -13    1    3    3    0    0 -0.21569227475E+03 -0.34903800676E+03 -0.33378901581E+03  0.52892891264E+03  0.00000000000E+00 0. -1.
          2    1    6    6  502    0 -0.33164676384E+03  0.18562873011E+03  0.75912685803E+03  0.84895299516E+03  0.00000000000E+00 0. -1.
          3    1    5    5  503    0  0.49471502261E+03  0.21899969202E+03  0.10090605389E+04  0.11449484660E+04  0.00000000000E+00 0. -1.
         -4    1    5    5    0  503  0.55992229593E+02 -0.27823054360E+01  0.10674212878E+03  0.12056845796E+03  0.00000000000E+00 0.  1.
         -1    1    6    6    0  502 -0.37303848506E+01  0.13690436437E+02  0.63498959038E+02  0.65065056827E+02  0.00000000000E+00 0.  1.
<mgrwt>
<rscale>  0 0.23211356E+04</rscale>
<asrwt>0</asrwt>
<pdfrwt beam="1">  1        2 0.95368555E-01 0.23211356E+04</pdfrwt>
<pdfrwt beam="2">  1       -2 0.33427902E+00 0.23211356E+04</pdfrwt>
<totfact> 0.84292150E-01</totfact>
</mgrwt>
</event>
<event>
12    1  0.1960998E-007  0.3327698E+04  0.7818608E-02  0.8155883E-01
          1   -1    0    0  501    0  0.00000000000E+00  0.00000000000E+00  0.24635306837E+04  0.24635306837E+04  0.00000000000E+00 0. -1.
         -1   -1    0    0    0  501 -0.00000000000E+00 -0.00000000000E+00 -0.11237506671E+04  0.11237506671E+04  0.00000000000E+00 0.  1.
         23    2    1    2    0    0 -0.88560516410E+03 -0.11521289176E+04  0.70738813572E+02  0.14578200255E+04  0.92399662073E+02 0.  0.
        254    2    1    2    0    0  0.88560516410E+03  0.11521289176E+04  0.12690412031E+04  0.21294613253E+04  0.90135587383E+03 0.  0.
        -24    2    4    4    0    0 -0.10999564185E+03  0.49867088963E+03  0.36594601990E+03  0.63269489338E+03  0.74930909735E+02 0.  0.
         24    2    4    4    0    0  0.99560080595E+03  0.65345802799E+03  0.90309518318E+03  0.14967664319E+04  0.80625570802E+02 0.  0.
         11    1    3    3    0    0 -0.50420204683E+03 -0.65652688272E+03 -0.55272961371E+01  0.82781507764E+03  0.00000000000E+00 0.  1.
        -11    1    3    3    0    0 -0.38140311727E+03 -0.49560203490E+03  0.76266109709E+02  0.63000494788E+03  0.00000000000E+00 0. -1.
          4    1    6    6  502    0  0.70238941378E+03  0.41725643374E+03  0.60805785375E+03  0.10184243583E+04  0.00000000000E+00 0. -1.
          3    1    5    5  503    0 -0.60338619610E+02  0.35927146902E+03  0.29407764722E+03  0.46818628778E+03  0.00000000000E+00 0. -1.
         -4    1    5    5    0  503 -0.49657022239E+02  0.13939942062E+03  0.71868372675E+02  0.16450860560E+03  0.00000000000E+00 0.  1.
         -3    1    6    6    0  502  0.29321139217E+03  0.23620159425E+03  0.29503732943E+03  0.47834207361E+03  0.00000000000E+00 0.  1.
<mgrwt>
<rscale>  0 0.33276985E+04</rscale>
<asrwt>0</asrwt>
<pdfrwt beam="1">  1        1 0.37900472E+00 0.33276985E+04</pdfrwt>
<pdfrwt beam="2">  1       -1 0.17288472E+00 0.33276985E+04</pdfrwt>
<totfact> 0.27849649E-01</totfact>
</mgrwt>
</event>
<event>
12    1  0.1960998E-007  0.1673240E+04  0.7818608E-02  0.8776776E-01
          2   -1    0    0  501    0  0.00000000000E+00  0.00000000000E+00  0.11878093081E+04  0.11878093081E+04  0.00000000000E+00 0. -1.
         -2   -1    0    0    0  501 -0.00000000000E+00 -0.00000000000E+00 -0.58926357071E+03  0.58926357071E+03  0.00000000000E+00 0.  1.
         23    2    1    2    0    0 -0.10310816195E+03  0.25586528763E+03 -0.34227940850E+03  0.44850331375E+03  0.88891453379E+02 0.  0.
        254    2    1    2    0    0  0.10310816195E+03 -0.25586528763E+03  0.94082514594E+03  0.13285695651E+04  0.89657503624E+03 0.  0.
        -24    2    4    4    0    0  0.18084133560E+03 -0.39704161316E+02 -0.12298498821E+03  0.23727103321E+03  0.83019436207E+02 0.  0.
         24    2    4    4    0    0 -0.77733173650E+02 -0.21616112632E+03  0.10638101341E+04  0.10912985319E+04  0.80451260976E+02 0.  0.
         13    1    3    3    0    0 -0.58354193100E+02  0.16236594453E+03 -0.27592378776E+03  0.32542564196E+03  0.00000000000E+00 0.  1.
        -13    1    3    3    0    0 -0.44753968851E+02  0.93499343104E+02 -0.66355620746E+02  0.12307767179E+03  0.00000000000E+00 0. -1.
          4    1    6    6  502    0 -0.18872072623E+01 -0.54429603269E+02  0.40709732712E+03  0.41072421040E+03  0.00000000000E+00 0. -1.
          3    1    5    5  503    0  0.15266558273E+03 -0.64077238180E+02 -0.10305103079E+03  0.19501842875E+03  0.00000000000E+00 0. -1.
         -4    1    5    5    0  503  0.28175752867E+02  0.24373076864E+02 -0.19933957412E+02  0.42252604459E+02  0.00000000000E+00 0.  1.
         -3    1    6    6    0  502 -0.75845966388E+02 -0.16173152305E+03  0.65671280703E+03  0.68057432150E+03  0.00000000000E+00 0.  1.
<mgrwt>
<rscale>  0 0.16732397E+04</rscale>
<asrwt>0</asrwt>
<pdfrwt beam="1">  1        2 0.18273989E+00 0.16732397E+04</pdfrwt>
<pdfrwt beam="2">  1       -2 0.90655934E-01 0.16732397E+04</pdfrwt>
<totfact> 0.19090815E+01</totfact>
</mgrwt>
</event>
<event>
12    1  0.1960998E-007  0.5518016E+04  0.7818608E-02  0.7753215E-01
         -1   -1    0    0    0  501 -0.00000000000E+00  0.00000000000E+00  0.39677894129E+04  0.39677894129E+04  0.00000000000E+00 0.  1.
          1   -1    0    0  501    0  0.00000000000E+00 -0.00000000000E+00 -0.19184804579E+04  0.19184804579E+04  0.00000000000E+00 0. -1.
         23    2    1    2    0    0  0.20636700364E+04 -0.11162578022E+04 -0.39383971657E+03  0.23808526018E+04  0.92649279696E+02 0.  0.
        254    2    1    2    0    0 -0.20636700364E+04  0.11162578022E+04  0.24431486716E+04  0.35054172690E+04  0.90233546880E+03 0.  0.
        -24    2    4    4    0    0 -0.12542138339E+04  0.19607696564E+03  0.10603713546E+04  0.16560005408E+04  0.80323495823E+02 0.  0.
         24    2    4    4    0    0 -0.80945620251E+03  0.92018083652E+03  0.13827773170E+04  0.18494167282E+04  0.79479622335E+02 0.  0.
         13    1    3    3    0    0  0.85792079816E+03 -0.48653420087E+03 -0.12375828057E+03  0.99401193984E+03  0.00000000000E+00 0.  1.
        -13    1    3    3    0    0  0.12057492382E+04 -0.62972360128E+03 -0.27008143600E+03  0.13868406619E+04  0.00000000000E+00 0. -1.
          4    1    6    6  502    0 -0.63285652813E+03  0.71360246299E+03  0.10251231652E+04  0.14002190415E+04  0.00000000000E+00 0. -1.
          3    1    5    5  503    0 -0.12514010166E+04  0.19608361080E+03  0.10618072815E+04  0.16528423971E+04  0.00000000000E+00 0. -1.
         -4    1    5    5    0  503 -0.28128172873E+01 -0.66451608180E-02 -0.14359269208E+01  0.31581436591E+01  0.00000000000E+00 0.  1.
         -3    1    6    6    0  502 -0.17659967438E+03  0.20657837353E+03  0.35765415187E+03  0.44919768672E+03  0.00000000000E+00 0.  1.
<mgrwt>
<rscale>  0 0.55180165E+04</rscale>
<asrwt>0</asrwt>
<pdfrwt beam="1">  1        1 0.29515084E+00 0.55180165E+04</pdfrwt>
<pdfrwt beam="2">  1       -1 0.61042914E+00 0.55180165E+04</pdfrwt>
<totfact> 0.95852586E-04</totfact>
</mgrwt>
</event>
<event>
12    1  0.1960998E-007  0.1529219E+04  0.7818608E-02  0.8865252E-01
         -1   -1    0    0    0  501 -0.00000000000E+00  0.00000000000E+00  0.41407455139E+03  0.41407455139E+03  0.00000000000E+00 0.  1.
          1   -1    0    0  501    0  0.00000000000E+00 -0.00000000000E+00 -0.14118906326E+04  0.14118906326E+04  0.00000000000E+00 0. -1.
         23    2    1    2    0    0  0.46227118955E+03 -0.13824397873E+03 -0.47034632794E+03  0.68213175502E+03  0.10616973510E+03 0.  0.
        254    2    1    2    0    0 -0.46227118955E+03  0.13824397873E+03 -0.52746975329E+03  0.11438334290E+04  0.89293030093E+03 0.  0.
        -24    2    4    4    0    0  0.97540739827E+02  0.45460571640E+02  0.18557715520E+03  0.22913999429E+03  0.80531962286E+02 0.  0.
         24    2    4    4    0    0 -0.55981192938E+03  0.92783407091E+02 -0.71304690850E+03  0.91469343471E+03  0.78930532000E+02 0.  0.
         13    1    3    3    0    0  0.24323124701E+03 -0.12763659520E+03 -0.26680429304E+03  0.38293220123E+03  0.00000000000E+00 0.  1.
        -13    1    3    3    0    0  0.21903994254E+03 -0.10607383534E+02 -0.20354203490E+03  0.29919955379E+03  0.00000000000E+00 0. -1.
          4    1    6    6  502    0 -0.19591408121E+03  0.22488754459E+02 -0.19160545110E+03  0.27495585133E+03  0.00000000000E+00 0. -1.
          3    1    5    5  503    0  0.29828749883E+02 -0.93750399965E+01  0.10814428149E+03  0.11257367061E+03  0.00000000000E+00 0. -1.
         -4    1    5    5    0  503  0.67711989944E+02  0.54835611637E+02  0.77432873713E+02  0.11656632368E+03  0.00000000000E+00 0.  1.
         -3    1    6    6    0  502 -0.36389784817E+03  0.70294652632E+02 -0.52144145740E+03  0.63973758338E+03  0.00000000000E+00 0.  1.
<mgrwt>
<rscale>  0 0.15292194E+04</rscale>
<asrwt>0</asrwt>
<pdfrwt beam="1">  1        1 0.21721394E+00 0.15292194E+04</pdfrwt>
<pdfrwt beam="2">  1       -1 0.63703777E-01 0.15292194E+04</pdfrwt>
<totfact> 0.18175461E+01</totfact>
</mgrwt>
</event>
<event>
12    1  0.1960998E-007  0.7092314E+04  0.7818608E-02  0.7567989E-01
         -2   -1    0    0    0  501 -0.00000000000E+00  0.00000000000E+00  0.44799741012E+04  0.44799741012E+04  0.00000000000E+00 0.  1.
          2   -1    0    0  501    0  0.00000000000E+00 -0.00000000000E+00 -0.28069870680E+04  0.28069870680E+04  0.00000000000E+00 0. -1.
         23    2    1    2    0    0  0.25553975469E+04 -0.97553705640E+03 -0.14011474962E+04  0.30746200747E+04  0.91351662285E+02 0.  0.
        254    2    1    2    0    0 -0.25553975469E+04  0.97553705640E+03  0.30741345294E+04  0.42123410946E+04  0.90099124358E+03 0.  0.
        -24    2    4    4    0    0 -0.21390734826E+04  0.95419418428E+03  0.29549816676E+04  0.37715244588E+04  0.79738209397E+02 0.  0.
         24    2    4    4    0    0 -0.41632406429E+03  0.21342872115E+02  0.11915286175E+03  0.44081663575E+03  0.79628243651E+02 0.  0.
         13    1    3    3    0    0  0.86068929650E+03 -0.36793994123E+03 -0.45361149963E+03  0.10401582851E+04  0.00000000000E+00 0. -1.
        -13    1    3    3    0    0  0.16947082504E+04 -0.60759711517E+03 -0.94753599659E+03  0.20344617896E+04  0.00000000000E+00 0.  1.
          2    1    6    6  502    0 -0.34200310751E+03  0.78323632299E+01  0.65870851409E+02  0.34837686566E+03  0.00000000000E+00 0. -1.
          3    1    5    5  503    0 -0.16459158743E+04  0.75288716357E+03  0.22361287695E+04  0.28768298559E+04  0.00000000000E+00 0. -1.
         -4    1    5    5    0  503 -0.49315760833E+03  0.20130702071E+03  0.71885289813E+03  0.89469460287E+03  0.00000000000E+00 0.  1.
         -1    1    6    6    0  502 -0.74320956780E+02  0.13510508885E+02  0.53282010345E+02  0.92439770086E+02  0.00000000000E+00 0.  1.
<mgrwt>
<rscale>  0 0.70923140E+04</rscale>
<asrwt>0</asrwt>
<pdfrwt beam="1">  1        2 0.43184416E+00 0.70923140E+04</pdfrwt>
<pdfrwt beam="2">  1       -2 0.68922678E+00 0.70923140E+04</pdfrwt>
<totfact> 0.36171947E-04</totfact>
</mgrwt>
</event>
<event>
12    1  0.1960998E-007  0.1695578E+04  0.7818608E-02  0.8763890E-01
          1   -1    0    0  501    0  0.00000000000E+00  0.00000000000E+00  0.16365780808E+04  0.16365780808E+04  0.00000000000E+00 0. -1.
         -1   -1    0    0    0  501 -0.00000000000E+00 -0.00000000000E+00 -0.43917628179E+03  0.43917628179E+03  0.00000000000E+00 0.  1.
         23    2    1    2    0    0  0.46547100144E+03 -0.72211661493E+02 -0.36226070140E+02  0.48031216092E+03  0.86658332133E+02 0.  0.
        254    2    1    2    0    0 -0.46547100144E+03  0.72211661493E+02  0.12336278691E+04  0.15954422017E+04  0.89538836382E+03 0.  0.
        -24    2    4    4    0    0 -0.17423946911E+03 -0.39940797011E+03  0.64876531262E+03  0.78555582671E+03  0.79469534055E+02 0.  0.
         24    2    4    4    0    0 -0.29123153234E+03  0.47161963160E+03  0.58486255652E+03  0.80988637494E+03  0.81307121214E+02 0.  0.
         11    1    3    3    0    0  0.30789977386E+03 -0.87710709660E+02 -0.34167050923E+02  0.32196712053E+03  0.00000000000E+00 0. -1.
        -11    1    3    3    0    0  0.15757122758E+03  0.15499048167E+02 -0.20590192174E+01  0.15834504039E+03  0.00000000000E+00 0.  1.
          4    1    6    6  502    0 -0.37015663296E+02  0.93271520484E+02  0.14581240240E+03  0.17700562860E+03  0.00000000000E+00 0. -1.
          3    1    5    5  503    0 -0.49027512677E-01  0.16430271435E+01 -0.13178600402E+01  0.21068215342E+01  0.00000000000E+00 0. -1.
         -4    1    5    5    0  503 -0.17419044160E+03 -0.40105099725E+03  0.65008317266E+03  0.78344900518E+03  0.00000000000E+00 0.  1.
         -3    1    6    6    0  502 -0.25421586904E+03  0.37834811112E+03  0.43905015412E+03  0.63288074634E+03  0.00000000000E+00 0.  1.
<mgrwt>
<rscale>  0 0.16955781E+04</rscale>
<asrwt>0</asrwt>
<pdfrwt beam="1">  1        1 0.25178124E+00 0.16955781E+04</pdfrwt>
<pdfrwt beam="2">  1       -1 0.67565583E-01 0.16955781E+04</pdfrwt>
<totfact> 0.11121799E+01</totfact>
</mgrwt>
</event>
<event>
12    1  0.1960998E-007  0.1122399E+04  0.7818608E-02  0.9183631E-01
          1   -1    0    0  501    0  0.00000000000E+00  0.00000000000E+00  0.81557639086E+03  0.81557639086E+03  0.00000000000E+00 0. -1.
         -1   -1    0    0    0  501 -0.00000000000E+00 -0.00000000000E+00 -0.38616248787E+03  0.38616248787E+03  0.00000000000E+00 0.  1.
         23    2    1    2    0    0  0.10026207242E+03 -0.71327048375E+02 -0.66263597229E+02  0.16637662256E+03  0.90278930102E+02 0.  0.
        254    2    1    2    0    0 -0.10026207242E+03  0.71327048375E+02  0.49567750021E+03  0.10353622562E+04  0.90063243684E+03 0.  0.
        -24    2    4    4    0    0 -0.43511828597E+03  0.18184151960E+01  0.17687954504E+02  0.44230663228E+03  0.77401962574E+02 0.  0.
         24    2    4    4    0    0  0.33485621354E+03  0.69508633179E+02  0.47798954571E+03  0.59305562389E+03  0.79251709008E+02 0.  0.
         11    1    3    3    0    0  0.62890617207E+02 -0.46011525839E+02 -0.86919720698E+02  0.11673614731E+03  0.00000000000E+00 0.  1.
        -11    1    3    3    0    0  0.37371455218E+02 -0.25315522536E+02  0.20656123469E+02  0.49640475251E+02  0.00000000000E+00 0. -1.
          4    1    6    6  502    0  0.22342693793E+03  0.11076323597E+02  0.27873807358E+03  0.35740340681E+03  0.00000000000E+00 0. -1.
          1    1    5    5  503    0 -0.35199694618E+03  0.90542546335E+01  0.43925925918E+02  0.35484266459E+03  0.00000000000E+00 0. -1.
         -2    1    5    5    0  503 -0.83121339792E+02 -0.72358394375E+01 -0.26237971414E+02  0.87463967695E+02  0.00000000000E+00 0.  1.
         -3    1    6    6    0  502  0.11142927562E+03  0.58432309582E+02  0.19925147213E+03  0.23565221708E+03  0.00000000000E+00 0.  1.
<mgrwt>
<rscale>  0 0.11223992E+04</rscale>
<asrwt>0</asrwt>
<pdfrwt beam="1">  1        1 0.12547329E+00 0.11223992E+04</pdfrwt>
<pdfrwt beam="2">  1       -1 0.59409614E-01 0.11223992E+04</pdfrwt>
<totfact> 0.61251664E+01</totfact>
</mgrwt>
</event>
<event>
12    1  0.1960998E-007  0.1260264E+04  0.7818608E-02  0.9061683E-01
          2   -1    0    0  501    0  0.00000000000E+00  0.00000000000E+00  0.33233071070E+04  0.33233071070E+04  0.00000000000E+00 0. -1.
         -2   -1    0    0    0  501 -0.00000000000E+00 -0.00000000000E+00 -0.11947935248E+03  0.11947935248E+03  0.00000000000E+00 0.  1.
         23    2    1    2    0    0 -0.27220515136E+03  0.12253777876E+03  0.78897752449E+03  0.84855203832E+03  0.91890564954E+02 0.  0.
        254    2    1    2    0    0  0.27220515136E+03 -0.12253777876E+03  0.24148502300E+04  0.25942344212E+04  0.89968852768E+03 0.  0.
        -24    2    4    4    0    0  0.56420158091E+02  0.22507910230E+03  0.14265916276E+03  0.28415189477E+03  0.80912459184E+02 0.  0.
         24    2    4    4    0    0  0.21578499327E+03 -0.34761688106E+03  0.22721910673E+04  0.23100825264E+04  0.78920043427E+02 0.  0.
         11    1    3    3    0    0 -0.14576451825E+03  0.58885759392E+02  0.53694257285E+03  0.55948382817E+03  0.00000000000E+00 0. -1.
        -11    1    3    3    0    0 -0.12644063311E+03  0.63652019373E+02  0.25203495164E+03  0.28906821015E+03  0.00000000000E+00 0.  1.
          4    1    6    6  502    0  0.19299688745E+03 -0.33500918385E+03  0.21899458279E+04  0.22238124204E+04  0.00000000000E+00 0. -1.
          1    1    5    5  503    0  0.48604947171E+02  0.23058237509E+03  0.13313161124E+03  0.27065605204E+03  0.00000000000E+00 0. -1.
         -2    1    5    5    0  503  0.78152109204E+01 -0.55032727922E+01  0.95275515168E+01  0.13495842733E+02  0.00000000000E+00 0.  1.
         -3    1    6    6    0  502  0.22788105814E+02 -0.12607697214E+02  0.82245239391E+02  0.86270106051E+02  0.00000000000E+00 0.  1.
<mgrwt>
<rscale>  0 0.12602644E+04</rscale>
<asrwt>0</asrwt>
<pdfrwt beam="1">  1        2 0.51127795E+00 0.12602644E+04</pdfrwt>
<pdfrwt beam="2">  1       -2 0.18381441E-01 0.12602644E+04</pdfrwt>
<totfact> 0.26657917E+01</totfact>
</mgrwt>
</event>
<event>
12    1  0.1960998E-007  0.1307480E+04  0.7818608E-02  0.9023655E-01
          2   -1    0    0  501    0  0.00000000000E+00  0.00000000000E+00  0.12204392336E+04  0.12204392336E+04  0.00000000000E+00 0. -1.
         -2   -1    0    0    0  501 -0.00000000000E+00 -0.00000000000E+00 -0.35018199283E+03  0.35018199283E+03  0.00000000000E+00 0.  1.
         23    2    1    2    0    0 -0.21286260407E+03 -0.24233007383E+03  0.12387193653E+03  0.35860284061E+03  0.96007227532E+02 0.  0.
        254    2    1    2    0    0  0.21286260407E+03  0.24233007383E+03  0.74638530425E+03  0.12120183858E+04  0.89881210067E+03 0.  0.
        -24    2    4    4    0    0  0.16994983717E+03  0.49896818914E+03  0.14692160626E+03  0.55363041163E+03  0.84074213441E+02 0.  0.
         24    2    4    4    0    0  0.42912766901E+02 -0.25663811531E+03  0.59946369799E+03  0.65838797420E+03  0.80083528765E+02 0.  0.
         11    1    3    3    0    0 -0.60294596425E+02 -0.13888225543E+03  0.68115371193E+02  0.16602235700E+03  0.00000000000E+00 0.  1.
        -11    1    3    3    0    0 -0.15256800764E+03 -0.10344781840E+03  0.55756565337E+02  0.19258048361E+03  0.00000000000E+00 0. -1.
          2    1    6    6  502    0  0.37057459055E+02 -0.19670726523E+03  0.52954180071E+03  0.56611087445E+03  0.00000000000E+00 0. -1.
          3    1    5    5  503    0  0.57757475367E+02  0.29842015058E+03  0.81036050334E+02  0.31457487771E+03  0.00000000000E+00 0. -1.
         -4    1    5    5    0  503  0.11219236180E+03  0.20054803856E+03  0.65885555923E+02  0.23905553391E+03  0.00000000000E+00 0.  1.
         -1    1    6    6    0  502  0.58553078454E+01 -0.59930850075E+02  0.69921897275E+02  0.92277099755E+02  0.00000000000E+00 0.  1.
<mgrwt>
<rscale>  0 0.13074798E+04</rscale>
<asrwt>0</asrwt>
<pdfrwt beam="1">  1        2 0.18775988E+00 0.13074798E+04</pdfrwt>
<pdfrwt beam="2">  1       -2 0.53874153E-01 0.13074798E+04</pdfrwt>
<totfact> 0.58545369E+01</totfact>
</mgrwt>
</event>
<event>
12    1  0.1960998E-007  0.4719140E+04  0.7818608E-02  0.7873356E-01
          2   -1    0    0  501    0  0.00000000000E+00  0.00000000000E+00  0.25266891065E+04  0.25266891065E+04  0.00000000000E+00 0. -1.
         -2   -1    0    0    0  501 -0.00000000000E+00 -0.00000000000E+00 -0.22035041054E+04  0.22035041054E+04  0.00000000000E+00 0.  1.
         23    2    1    2    0    0  0.13569431659E+04  0.18013407719E+04 -0.12340240485E+03  0.22604933601E+04  0.92080104640E+02 0.  0.
        254    2    1    2    0    0 -0.13569431659E+04 -0.18013407719E+04  0.44658740599E+03  0.24696998518E+04  0.90213841241E+03 0.  0.
        -24    2    4    4    0    0 -0.27097960499E+03 -0.53102814561E+03 -0.25732360837E+03  0.65432146840E+03  0.80624480362E+02 0.  0.
         24    2    4    4    0    0 -0.10859635609E+04 -0.12703126263E+04  0.70391101436E+03  0.18153783834E+04  0.84243307804E+02 0.  0.
         13    1    3    3    0    0  0.33122900674E+03  0.38351401515E+03 -0.94559413925E+01  0.50683830710E+03  0.00000000000E+00 0.  1.
        -13    1    3    3    0    0  0.10257141591E+04  0.14178267567E+04 -0.11394646346E+03  0.17536550530E+04  0.00000000000E+00 0. -1.
          4    1    6    6  502    0 -0.39265557735E+03 -0.46156389868E+03  0.21156856401E+03  0.64185737688E+03  0.00000000000E+00 0. -1.
          3    1    5    5  503    0 -0.20905182427E+03 -0.42051229776E+03 -0.23697521270E+03  0.52601379187E+03  0.00000000000E+00 0. -1.
         -4    1    5    5    0  503 -0.61927780729E+02 -0.11051584785E+03 -0.20348395665E+02  0.12830767654E+03  0.00000000000E+00 0.  1.
         -3    1    6    6    0  502 -0.69330798354E+03 -0.80874872759E+03  0.49234245036E+03  0.11735210066E+04  0.00000000000E+00 0.  1.
<mgrwt>
<rscale>  0 0.47191397E+04</rscale>
<asrwt>0</asrwt>
<pdfrwt beam="1">  1        2 0.38872140E+00 0.47191397E+04</pdfrwt>
<pdfrwt beam="2">  1       -2 0.33900063E+00 0.47191397E+04</pdfrwt>
<totfact> 0.45614965E-02</totfact>
</mgrwt>
</event>
<event>
12    1  0.1960998E-007  0.1934031E+04  0.7818608E-02  0.8638100E-01
          1   -1    0    0  501    0  0.00000000000E+00  0.00000000000E+00  0.14673687660E+04  0.14673687660E+04  0.00000000000E+00 0. -1.
         -1   -1    0    0    0  501 -0.00000000000E+00 -0.00000000000E+00 -0.63727613217E+03  0.63727613217E+03  0.00000000000E+00 0.  1.
         23    2    1    2    0    0  0.11393206464E+03 -0.70376244862E+03  0.49457841433E+02  0.71941453843E+03  0.82759293072E+02 0.  0.
        254    2    1    2    0    0 -0.11393206464E+03  0.70376244862E+03  0.78063479243E+03  0.13852303598E+04  0.89510355326E+03 0.  0.
        -24    2    4    4    0    0 -0.41571927223E+03  0.52265216831E+03  0.77220718765E+03  0.10241002565E+04  0.80558005962E+02 0.  0.
         24    2    4    4    0    0  0.30178720759E+03  0.18111028031E+03  0.84276047801E+01  0.36113010330E+03  0.80420611084E+02 0.  0.
         13    1    3    3    0    0 -0.94500095888E+01 -0.15328481051E+03  0.11129616707E+02  0.15397858351E+03  0.00000000000E+00 0. -1.
        -13    1    3    3    0    0  0.12338207423E+03 -0.55047763811E+03  0.38328224726E+02  0.56543595491E+03  0.00000000000E+00 0.  1.
          4    1    6    6  502    0 -0.47544991599E+01  0.17915101530E+01 -0.28258505348E+01  0.58137941256E+01  0.00000000000E+00 0. -1.
          3    1    5    5  503    0 -0.27716784048E-01  0.13401063998E+02  0.64189885139E+01  0.14859094792E+02  0.00000000000E+00 0. -1.
         -4    1    5    5    0  503 -0.41569155545E+03  0.50925110431E+03  0.76578819913E+03  0.10092411617E+04  0.00000000000E+00 0.  1.
         -1    1    6    6    0  502  0.30654170675E+03  0.17931877016E+03  0.11253455315E+02  0.35531630917E+03  0.00000000000E+00 0.  1.
<mgrwt>
<rscale>  0 0.19340311E+04</rscale>
<asrwt>0</asrwt>
<pdfrwt beam="1">  1        1 0.22574904E+00 0.19340311E+04</pdfrwt>
<pdfrwt beam="2">  1       -1 0.98042482E-01 0.19340311E+04</pdfrwt>
<totfact> 0.64111954E+00</totfact>
</mgrwt>
</event>
<event>
12    1  0.1960998E-007  0.1301342E+04  0.7818608E-02  0.9028501E-01
         -2   -1    0    0    0  501 -0.00000000000E+00  0.00000000000E+00  0.24553986036E+03  0.24553986036E+03  0.00000000000E+00 0.  1.
          2   -1    0    0  501    0  0.00000000000E+00 -0.00000000000E+00 -0.17242535778E+04  0.17242535778E+04  0.00000000000E+00 0. -1.
         23    2    1    2    0    0  0.22325788148E+03 -0.17819493989E+03 -0.64198151061E+03  0.70857924564E+03  0.91360654277E+02 0.  0.
        254    2    1    2    0    0 -0.22325788148E+03  0.17819493989E+03 -0.83673220686E+03  0.12612141925E+04  0.89941255008E+03 0.  0.
        -24    2    4    4    0    0  0.23965136552E+03  0.28624068275E+03 -0.62996794547E+03  0.73664799997E+03  0.80150845787E+02 0.  0.
         24    2    4    4    0    0 -0.46290924700E+03 -0.10804574286E+03 -0.20676426139E+03  0.52456619258E+03  0.80370250093E+02 0.  0.
         11    1    3    3    0    0  0.15157035932E+03 -0.14631278647E+03 -0.54190944586E+03  0.58141796740E+03  0.00000000000E+00 0. -1.
        -11    1    3    3    0    0  0.71687522163E+02 -0.31882153420E+02 -0.10007206474E+03  0.12716127824E+03  0.00000000000E+00 0.  1.
          2    1    6    6  502    0 -0.81525504873E+02 -0.20196877053E+02 -0.47263344266E+01  0.84122886450E+02  0.00000000000E+00 0. -1.
          3    1    5    5  503    0  0.18173815617E+03  0.25945482589E+03 -0.54523938265E+03  0.63058032674E+03  0.00000000000E+00 0. -1.
         -4    1    5    5    0  503  0.57913209355E+02  0.26785856854E+02 -0.84728562824E+02  0.10606767323E+03  0.00000000000E+00 0.  1.
         -1    1    6    6    0  502 -0.38138374213E+03 -0.87848865809E+02 -0.20203792696E+03  0.44044330613E+03  0.00000000000E+00 0.  1.
<mgrwt>
<rscale>  0 0.13013424E+04</rscale>
<asrwt>0</asrwt>
<pdfrwt beam="1">  1        2 0.26526978E+00 0.13013424E+04</pdfrwt>
<pdfrwt beam="2">  1       -2 0.37775363E-01 0.13013424E+04</pdfrwt>
<totfact> 0.61606741E+01</totfact>
</mgrwt>
</event>
<event>
12    1  0.1960998E-007  0.1724741E+04  0.7818608E-02  0.8747378E-01
         -2   -1    0    0    0  501 -0.00000000000E+00  0.00000000000E+00  0.80203235221E+03  0.80203235221E+03  0.00000000000E+00 0.  1.
          2   -1    0    0  501    0  0.00000000000E+00 -0.00000000000E+00 -0.92724800953E+03  0.92724800953E+03  0.00000000000E+00 0. -1.
         23    2    1    2    0    0  0.17414420546E+02  0.61917615322E+03  0.22897547546E+02  0.62704100255E+03  0.94729881434E+02 0.  0.
        254    2    1    2    0    0 -0.17414420546E+02 -0.61917615322E+03 -0.14811320487E+03  0.11022393592E+04  0.89961753692E+03 0.  0.
        -24    2    4    4    0    0 -0.90112759376E+02  0.21635947504E+03 -0.66133980537E+02  0.25570268837E+03  0.77964284235E+02 0.  0.
         24    2    4    4    0    0  0.72698338830E+02 -0.83553562826E+03 -0.81979224333E+02  0.84653667082E+03  0.80615800392E+02 0.  0.
         13    1    3    3    0    0 -0.38372158540E+01  0.11873223421E+02 -0.13366137557E+02  0.18285275309E+02  0.00000000000E+00 0. -1.
        -13    1    3    3    0    0  0.21251636400E+02  0.60730292980E+03  0.36263685103E+02  0.60875572724E+03  0.00000000000E+00 0.  1.
          2    1    6    6  502    0  0.80240651573E+02 -0.52737458444E+03 -0.70362889455E+02  0.53806454138E+03  0.00000000000E+00 0. -1.
          1    1    5    5  503    0 -0.40892709224E+02  0.36726585883E+02 -0.39201176398E+02  0.67511391700E+02  0.00000000000E+00 0. -1.
         -2    1    5    5    0  503 -0.49220050152E+02  0.17963288915E+03 -0.26932804139E+02  0.18819129667E+03  0.00000000000E+00 0.  1.
         -1    1    6    6    0  502 -0.75423127435E+01 -0.30816104382E+03 -0.11616334878E+02  0.30847212945E+03  0.00000000000E+00 0.  1.
<mgrwt>
<rscale>  0 0.17247410E+04</rscale>
<asrwt>0</asrwt>
<pdfrwt beam="1">  1        2 0.14265354E+00 0.17247410E+04</pdfrwt>
<pdfrwt beam="2">  1       -2 0.12338959E+00 0.17247410E+04</pdfrwt>
<totfact> 0.13223482E+01</totfact>
</mgrwt>
</event>
<event>
12    1  0.1960998E-007  0.1804462E+04  0.7818608E-02  0.8703930E-01
          2   -1    0    0  501    0  0.00000000000E+00  0.00000000000E+00  0.19532235340E+04  0.19532235340E+04  0.00000000000E+00 0. -1.
         -2   -1    0    0    0  501 -0.00000000000E+00 -0.00000000000E+00 -0.41675770133E+03  0.41675770133E+03  0.00000000000E+00 0.  1.
         23    2    1    2    0    0  0.49393314528E+03  0.13860505094E+03  0.11421488500E+04  0.12554003962E+04  0.91350135437E+02 0.  0.
        254    2    1    2    0    0 -0.49393314528E+03 -0.13860505094E+03  0.39431698268E+03  0.11145808391E+04  0.90753691487E+03 0.  0.
        -24    2    4    4    0    0 -0.32247659082E+03 -0.44511898303E+03  0.49113097633E+03  0.74136246350E+03  0.79288118288E+02 0.  0.
         24    2    4    4    0    0 -0.17145655446E+03  0.30651393209E+03 -0.96813993654E+02  0.37321837556E+03  0.81060877492E+02 0.  0.
         11    1    3    3    0    0  0.11005926788E+02  0.13711681307E+02  0.80617654877E+02  0.82512707546E+02  0.00000000000E+00 0.  1.
        -11    1    3    3    0    0  0.48292721849E+03  0.12489336963E+03  0.10615311951E+04  0.11728876887E+04  0.00000000000E+00 0. -1.
          4    1    6    6  502    0 -0.11832196334E+02  0.28694612963E+02  0.14183478270E+02  0.34125543791E+02  0.00000000000E+00 0. -1.
          3    1    5    5  503    0 -0.75651465457E+02 -0.73886135295E+02  0.13045525231E+03  0.16793117063E+03  0.00000000000E+00 0. -1.
         -4    1    5    5    0  503 -0.24682512536E+03 -0.37123284774E+03  0.36067572402E+03  0.57343129287E+03  0.00000000000E+00 0.  1.
         -3    1    6    6    0  502 -0.15962435812E+03  0.27781931913E+03 -0.11099747192E+03  0.33909283177E+03  0.00000000000E+00 0.  1.
<mgrwt>
<rscale>  0 0.18044622E+04</rscale>
<asrwt>0</asrwt>
<pdfrwt beam="1">  1        2 0.30049592E+00 0.18044622E+04</pdfrwt>
<pdfrwt beam="2">  1       -2 0.64116571E-01 0.18044622E+04</pdfrwt>
<totfact> 0.15050790E+01</totfact>
</mgrwt>
</event>
<event>
12    1  0.1960998E-007  0.1655008E+04  0.7818608E-02  0.8787449E-01
         -1   -1    0    0    0  501 -0.00000000000E+00  0.00000000000E+00  0.96123257030E+03  0.96123257030E+03  0.00000000000E+00 0.  1.
          1   -1    0    0  501    0  0.00000000000E+00 -0.00000000000E+00 -0.71238010041E+03  0.71238010041E+03  0.00000000000E+00 0. -1.
         23    2    1    2    0    0 -0.12614993285E+03 -0.83267464517E+02 -0.47720224245E+03  0.50903988869E+03  0.92478926669E+02 0.  0.
        254    2    1    2    0    0  0.12614993285E+03  0.83267464517E+02  0.72605471234E+03  0.11645727820E+04  0.89790146625E+03 0.  0.
        -24    2    4    4    0    0  0.27434615666E+03  0.22723361265E+03 -0.39596441518E+02  0.36751985659E+03  0.81252928652E+02 0.  0.
         24    2    4    4    0    0 -0.14819622380E+03 -0.14396614813E+03  0.76565115385E+03  0.79705292542E+03  0.79895581647E+02 0.  0.
         13    1    3    3    0    0 -0.71661389789E+02  0.55539159083E+01 -0.16725349757E+03  0.18204376731E+03  0.00000000000E+00 0.  1.
        -13    1    3    3    0    0 -0.54488543066E+02 -0.88821380426E+02 -0.30994874488E+03  0.32699612138E+03  0.00000000000E+00 0. -1.
          2    1    6    6  502    0 -0.81588885431E+02 -0.12983099307E+03  0.51950767944E+03  0.54166508285E+03  0.00000000000E+00 0. -1.
          3    1    5    5  503    0  0.16187398565E+03  0.14503962971E+03 -0.62931057220E+02  0.22627416861E+03  0.00000000000E+00 0. -1.
         -4    1    5    5    0  503  0.11247217101E+03  0.82193982942E+02  0.23334615703E+02  0.14124568798E+03  0.00000000000E+00 0.  1.
         -1    1    6    6    0  502 -0.66607338374E+02 -0.14135155062E+02  0.24614347442E+03  0.25538784257E+03  0.00000000000E+00 0.  1.
<mgrwt>
<rscale>  0 0.16550081E+04</rscale>
<asrwt>0</asrwt>
<pdfrwt beam="1">  1        1 0.10959694E+00 0.16550081E+04</pdfrwt>
<pdfrwt beam="2">  1       -1 0.14788193E+00 0.16550081E+04</pdfrwt>
<totfact> 0.91852076E+00</totfact>
</mgrwt>
</event>
<event>
12    1  0.1960998E-007  0.2435138E+04  0.7818608E-02  0.8426464E-01
         -1   -1    0    0    0  501 -0.00000000000E+00  0.00000000000E+00  0.69946353721E+03  0.69946353721E+03  0.00000000000E+00 0.  1.
          1   -1    0    0  501    0  0.00000000000E+00 -0.00000000000E+00 -0.21194453568E+04  0.21194453568E+04  0.00000000000E+00 0. -1.
         23    2    1    2    0    0 -0.10206444658E+04 -0.16080165063E+03 -0.81806771994E+03  0.13212093158E+04  0.93738814915E+02 0.  0.
        254    2    1    2    0    0  0.10206444658E+04  0.16080165063E+03 -0.60191409965E+03  0.14976995782E+04  0.90179329483E+03 0.  0.
        -24    2    4    4    0    0 -0.48300786847E+01 -0.23139660400E+03 -0.22893289808E+03  0.33559934184E+03  0.81540961615E+02 0.  0.
         24    2    4    4    0    0  0.10254745445E+04  0.39219825463E+03 -0.37298120157E+03  0.11621002363E+04  0.77100390130E+02 0.  0.
         13    1    3    3    0    0 -0.47310870513E+03 -0.36446978845E+02 -0.33956157738E+03  0.58349146864E+03  0.00000000000E+00 0. -1.
        -13    1    3    3    0    0 -0.54753576068E+03 -0.12435467178E+03 -0.47850614256E+03  0.73771784721E+03  0.00000000000E+00 0.  1.
          4    1    6    6  502    0  0.52141962262E+03  0.21900063776E+03 -0.15618646784E+03  0.58671450888E+03  0.00000000000E+00 0. -1.
          3    1    5    5  503    0  0.12902679577E+02 -0.11751496347E+03 -0.16743294334E+03  0.20496349991E+03  0.00000000000E+00 0. -1.
         -4    1    5    5    0  503 -0.17732758262E+02 -0.11388164053E+03 -0.61499954738E+02  0.13063584194E+03  0.00000000000E+00 0.  1.
         -3    1    6    6    0  502  0.50405492189E+03  0.17319761687E+03 -0.21679473372E+03  0.57538572744E+03  0.00000000000E+00 0.  1.
<mgrwt>
<rscale>  0 0.24351384E+04</rscale>
<asrwt>0</asrwt>
<pdfrwt beam="1">  1        1 0.32606852E+00 0.24351384E+04</pdfrwt>
<pdfrwt beam="2">  1       -1 0.10760977E+00 0.24351384E+04</pdfrwt>
<totfact> 0.17747410E+00</totfact>
</mgrwt>
</event>
<event>
12    1  0.1960998E-007  0.2072864E+04  0.7818608E-02  0.8573292E-01
         -2   -1    0    0    0  501 -0.00000000000E+00  0.00000000000E+00  0.96000119107E+03  0.96000119107E+03  0.00000000000E+00 0.  1.
          2   -1    0    0  501    0  0.00000000000E+00 -0.00000000000E+00 -0.11189478754E+04  0.11189478754E+04  0.00000000000E+00 0. -1.
         23    2    1    2    0    0 -0.26513246926E+03 -0.77449394962E+03 -0.24936408193E+03  0.86056211359E+03  0.90821813134E+02 0.  0.
        254    2    1    2    0    0  0.26513246926E+03  0.77449394962E+03  0.90417397596E+02  0.12183869529E+04  0.89786154664E+03 0.  0.
        -24    2    4    4    0    0  0.36301845748E+03  0.90495448883E+03 -0.62979822790E+02  0.98022858210E+03  0.78463926522E+02 0.  0.
         24    2    4    4    0    0 -0.97885988223E+02 -0.13046053921E+03  0.15339722039E+03  0.23815837079E+03  0.81160848761E+02 0.  0.
         13    1    3    3    0    0 -0.15331922062E+03 -0.40858353783E+03 -0.17821928324E+03  0.47139092452E+03  0.00000000000E+00 0.  1.
        -13    1    3    3    0    0 -0.11181324864E+03 -0.36591041179E+03 -0.71144798692E+02  0.38917118907E+03  0.00000000000E+00 0. -1.
          4    1    6    6  502    0 -0.90607903299E+02 -0.13831221672E+03  0.15579946856E+03  0.22718612598E+03  0.00000000000E+00 0. -1.
          3    1    5    5  503    0  0.27683778284E+03  0.59231495330E+03 -0.48233284108E+02  0.65559332791E+03  0.00000000000E+00 0. -1.
         -4    1    5    5    0  503  0.86180674641E+02  0.31263953553E+03 -0.14746538682E+02  0.32463525419E+03  0.00000000000E+00 0.  1.
         -3    1    6    6    0  502 -0.72780849241E+01  0.78516775048E+01 -0.24022481762E+01  0.10972244807E+02  0.00000000000E+00 0.  1.
<mgrwt>
<rscale>  0 0.20728640E+04</rscale>
<asrwt>0</asrwt>
<pdfrwt beam="1">  1        2 0.17214583E+00 0.20728640E+04</pdfrwt>
<pdfrwt beam="2">  1       -2 0.14769249E+00 0.20728640E+04</pdfrwt>
<totfact> 0.61149748E+00</totfact>
</mgrwt>
</event>
<event>
12    1  0.1960998E-007  0.2383029E+04  0.7818608E-02  0.8445885E-01
          1   -1    0    0  501    0  0.00000000000E+00  0.00000000000E+00  0.12704841150E+04  0.12704841150E+04  0.00000000000E+00 0. -1.
         -1   -1    0    0    0  501 -0.00000000000E+00 -0.00000000000E+00 -0.11174529913E+04  0.11174529913E+04  0.00000000000E+00 0.  1.
         23    2    1    2    0    0 -0.58576060955E+03  0.76945296616E+03  0.38844486218E+03  0.10462056525E+04  0.92105904244E+02 0.  0.
        254    2    1    2    0    0  0.58576060955E+03 -0.76945296616E+03 -0.23541373850E+03  0.13417314537E+04  0.89980570498E+03 0.  0.
        -24    2    4    4    0    0  0.57524319014E+03 -0.94466813285E+03 -0.11667343876E+03  0.11152406710E+04  0.82743301057E+02 0.  0.
         24    2    4    4    0    0  0.10517419408E+02  0.17521516669E+03 -0.11874029973E+03  0.22649078271E+03  0.79923995926E+02 0.  0.
         13    1    3    3    0    0 -0.16684732437E+03  0.20979947306E+03  0.15245317181E+03  0.30837609852E+03  0.00000000000E+00 0. -1.
        -13    1    3    3    0    0 -0.41891328518E+03  0.55965349311E+03  0.23599169037E+03  0.73782955401E+03  0.00000000000E+00 0.  1.
          4    1    6    6  502    0  0.33158969002E+02  0.10019854014E+03 -0.10113911362E+03  0.14617929052E+03  0.00000000000E+00 0. -1.
          1    1    5    5  503    0  0.13874173553E+02 -0.54432974815E+02  0.13707599884E+01  0.56190038458E+02  0.00000000000E+00 0. -1.
         -2    1    5    5    0  503  0.56136901659E+03 -0.89023515803E+03 -0.11804419875E+03  0.10590506325E+04  0.00000000000E+00 0.  1.
         -3    1    6    6    0  502 -0.22641549594E+02  0.75016626544E+02 -0.17601186113E+02  0.80311492195E+02  0.00000000000E+00 0.  1.
<mgrwt>
<rscale>  0 0.23830286E+04</rscale>
<asrwt>0</asrwt>
<pdfrwt beam="1">  1        1 0.19545910E+00 0.23830286E+04</pdfrwt>
<pdfrwt beam="2">  1       -1 0.17191584E+00 0.23830286E+04</pdfrwt>
<totfact> 0.20306916E+00</totfact>
</mgrwt>
</event>
<event>
12    1  0.1960998E-007  0.1765528E+04  0.7818608E-02  0.8724849E-01
          2   -1    0    0  501    0  0.00000000000E+00  0.00000000000E+00  0.10385228593E+04  0.10385228593E+04  0.00000000000E+00 0. -1.
         -2   -1    0    0    0  501 -0.00000000000E+00 -0.00000000000E+00 -0.75036641869E+03  0.75036641869E+03  0.00000000000E+00 0.  1.
         23    2    1    2    0    0  0.30168600093E+03 -0.54541574402E+03 -0.75196686524E+02  0.63440630896E+03  0.91236211029E+02 0.  0.
        254    2    1    2    0    0 -0.30168600093E+03  0.54541574402E+03  0.36335312713E+03  0.11544829690E+04  0.90128389189E+03 0.  0.
        -24    2    4    4    0    0 -0.14873090030E+03 -0.20408678611E+03 -0.66209299153E+02  0.27346339560E+03  0.81401845622E+02 0.  0.
         24    2    4    4    0    0 -0.15295510063E+03  0.74950253013E+03  0.42956242628E+03  0.88101957342E+03  0.80760789992E+02 0.  0.
         11    1    3    3    0    0  0.25525176033E+03 -0.49111996354E+03 -0.40465801042E+02  0.55496825206E+03  0.00000000000E+00 0. -1.
        -11    1    3    3    0    0  0.46434240602E+02 -0.54295780483E+02 -0.34730885482E+02  0.79438056905E+02  0.00000000000E+00 0.  1.
          2    1    6    6  502    0  0.42611880562E+01  0.12672130854E+03  0.65842628586E+02  0.14286951915E+03  0.00000000000E+00 0. -1.
          1    1    5    5  503    0 -0.27856438779E+02 -0.94902596017E+02 -0.36398285817E+01  0.98973391698E+02  0.00000000000E+00 0. -1.
         -2    1    5    5    0  503 -0.12087446152E+03 -0.10918419009E+03 -0.62569470572E+02  0.17449000390E+03  0.00000000000E+00 0.  1.
         -1    1    6    6    0  502 -0.15721628868E+03  0.62278122159E+03  0.36371979769E+03  0.73815005428E+03  0.00000000000E+00 0.  1.
<mgrwt>
<rscale>  0 0.17655285E+04</rscale>
<asrwt>0</asrwt>
<pdfrwt beam="1">  1        2 0.15977275E+00 0.17655285E+04</pdfrwt>
<pdfrwt beam="2">  1       -2 0.11544099E+00 0.17655285E+04</pdfrwt>
<totfact> 0.13164043E+01</totfact>
</mgrwt>
</event>
<event>
12    1  0.1960998E-007  0.1054288E+04  0.7818608E-02  0.9250928E-01
         -2   -1    0    0    0  501 -0.00000000000E+00  0.00000000000E+00  0.34340248471E+03  0.34340248471E+03  0.00000000000E+00 0.  1.
          2   -1    0    0  501    0  0.00000000000E+00 -0.00000000000E+00 -0.80919867699E+03  0.80919867699E+03  0.00000000000E+00 0. -1.
         23    2    1    2    0    0 -0.10916219565E+03 -0.41595025594E+02 -0.12806314187E+03  0.19569438171E+03  0.90827262500E+02 0.  0.
        254    2    1    2    0    0  0.10916219565E+03  0.41595025594E+02 -0.33773305041E+03  0.95690677999E+03  0.88767135875E+03 0.  0.
        -24    2    4    4    0    0  0.35470069431E+03 -0.27862496644E+03 -0.29209119878E+03  0.54321839580E+03  0.79526741813E+02 0.  0.
         24    2    4    4    0    0 -0.24553849866E+03  0.32021999203E+03 -0.45641851627E+02  0.41368838420E+03  0.78898054329E+02 0.  0.
         13    1    3    3    0    0 -0.60456634772E+02  0.14076329436E+02 -0.20932882221E+02  0.65508268916E+02  0.00000000000E+00 0.  1.
        -13    1    3    3    0    0 -0.48705560876E+02 -0.55671355030E+02 -0.10713025965E+03  0.13018611279E+03  0.00000000000E+00 0. -1.
          2    1    6    6  502    0 -0.22630468047E+03  0.24502589221E+03 -0.36312298913E+02  0.33551464843E+03  0.00000000000E+00 0. -1.
          1    1    5    5  503    0  0.30356293335E+03 -0.19832909795E+03 -0.23779150297E+03  0.43362389750E+03  0.00000000000E+00 0. -1.
         -2    1    5    5    0  503  0.51137760956E+02 -0.80295868491E+02 -0.54299695809E+02  0.10959449830E+03  0.00000000000E+00 0.  1.
         -3    1    6    6    0  502 -0.19233818188E+02  0.75194099821E+02 -0.93295527137E+01  0.78173735768E+02  0.00000000000E+00 0.  1.
<mgrwt>
<rscale>  0 0.10542881E+04</rscale>
<asrwt>0</asrwt>
<pdfrwt beam="1">  1        2 0.12449210E+00 0.10542881E+04</pdfrwt>
<pdfrwt beam="2">  1       -2 0.52831152E-01 0.10542881E+04</pdfrwt>
<totfact> 0.11413789E+02</totfact>
</mgrwt>
</event>
<event>
12    1  0.1960998E-007  0.2055500E+04  0.7818608E-02  0.8581103E-01
         -2   -1    0    0    0  501 -0.00000000000E+00  0.00000000000E+00  0.11533460759E+04  0.11533460759E+04  0.00000000000E+00 0.  1.
          2   -1    0    0  501    0  0.00000000000E+00 -0.00000000000E+00 -0.91583113488E+03  0.91583113488E+03  0.00000000000E+00 0. -1.
         23    2    1    2    0    0 -0.68009855874E+03  0.30269083678E+03 -0.26737766167E+03  0.79616163335E+03  0.90701379210E+02 0.  0.
        254    2    1    2    0    0  0.68009855874E+03 -0.30269083678E+03  0.50489260264E+03  0.12730155774E+04  0.90083090966E+03 0.  0.
        -24    2    4    4    0    0  0.69345138112E+03 -0.54819317828E+03  0.28260243964E+03  0.93141748170E+03  0.79270471452E+02 0.  0.
         24    2    4    4    0    0 -0.13352822374E+02  0.24550234150E+03  0.22229016300E+03  0.34159809568E+03  0.82623512764E+02 0.  0.
         11    1    3    3    0    0 -0.11897178962E+03  0.24869910148E+02 -0.66753653949E+02  0.13866812709E+03  0.00000000000E+00 0. -1.
        -11    1    3    3    0    0 -0.56112676912E+03  0.27782092663E+03 -0.20062400772E+03  0.65749350626E+03  0.00000000000E+00 0.  1.
          4    1    6    6  502    0  0.26340206133E+02  0.17682186126E+03  0.16919096037E+03  0.24614093148E+03  0.00000000000E+00 0. -1.
          3    1    5    5  503    0  0.35482821732E+03 -0.31451113038E+03  0.18188595681E+03  0.50784132977E+03  0.00000000000E+00 0. -1.
         -4    1    5    5    0  503  0.33862316380E+03 -0.23368204790E+03  0.10071648283E+03  0.42357615193E+03  0.00000000000E+00 0.  1.
         -3    1    6    6    0  502 -0.39693028507E+02  0.68680480244E+02  0.53099202625E+02  0.95457164205E+02  0.00000000000E+00 0.  1.
<mgrwt>
<rscale>  0 0.20555002E+04</rscale>
<asrwt>0</asrwt>
<pdfrwt beam="1">  1        2 0.14089710E+00 0.20555002E+04</pdfrwt>
<pdfrwt beam="2">  1       -2 0.17743786E+00 0.20555002E+04</pdfrwt>
<totfact> 0.49970096E+00</totfact>
</mgrwt>
</event>
<event>
12    1  0.1960998E-007  0.1764866E+04  0.7818608E-02  0.8725210E-01
          1   -1    0    0  501    0  0.00000000000E+00  0.00000000000E+00  0.11309807575E+04  0.11309807575E+04  0.00000000000E+00 0. -1.
         -1   -1    0    0    0  501 -0.00000000000E+00 -0.00000000000E+00 -0.68850706238E+03  0.68850706238E+03  0.00000000000E+00 0.  1.
         23    2    1    2    0    0 -0.60416086133E+03 -0.17157611921E+03 -0.23095364038E+00  0.63468502577E+03  0.91522224339E+02 0.  0.
        254    2    1    2    0    0  0.60416086133E+03  0.17157611921E+03  0.44270464878E+03  0.11848027941E+04  0.90184341427E+03 0.  0.
        -24    2    4    4    0    0 -0.22121916588E+03  0.21540880904E+02  0.19603853598E+03  0.30694315291E+03  0.79881553726E+02 0.  0.
         24    2    4    4    0    0  0.82538002721E+03  0.15003523830E+03  0.24666611280E+03  0.87785964122E+03  0.77657043612E+02 0.  0.
         11    1    3    3    0    0 -0.35759032819E+03 -0.14048183257E+03  0.24243619048E+02  0.38495940196E+03  0.00000000000E+00 0. -1.
        -11    1    3    3    0    0 -0.24657053314E+03 -0.31094286637E+02 -0.24474572689E+02  0.24972562381E+03  0.00000000000E+00 0.  1.
          2    1    6    6  502    0  0.36718985267E+03  0.75052993163E+02  0.14960179232E+03  0.40353690780E+03  0.00000000000E+00 0. -1.
          1    1    5    5  503    0 -0.40439776093E+02 -0.24170172084E+02  0.22476752212E+02  0.52199397497E+02  0.00000000000E+00 0. -1.
         -2    1    5    5    0  503 -0.18077938979E+03  0.45711052988E+02  0.17356178376E+03  0.25474375541E+03  0.00000000000E+00 0.  1.
         -1    1    6    6    0  502  0.45819017454E+03  0.74982245142E+02  0.97064320481E+02  0.47432273342E+03  0.00000000000E+00 0.  1.
<mgrwt>
<rscale>  0 0.17648663E+04</rscale>
<asrwt>0</asrwt>
<pdfrwt beam="1">  1        1 0.17399704E+00 0.17648663E+04</pdfrwt>
<pdfrwt beam="2">  1       -1 0.10592416E+00 0.17648663E+04</pdfrwt>
<totfact> 0.94885883E+00</totfact>
</mgrwt>
</event>
<event>
12    1  0.1960998E-007  0.1663775E+04  0.7818608E-02  0.8782299E-01
          1   -1    0    0  501    0  0.00000000000E+00  0.00000000000E+00  0.70096182369E+03  0.70096182369E+03  0.00000000000E+00 0. -1.
         -1   -1    0    0    0  501 -0.00000000000E+00 -0.00000000000E+00 -0.98726782136E+03  0.98726782136E+03  0.00000000000E+00 0.  1.
         23    2    1    2    0    0  0.36764293635E+03 -0.22751323413E+03 -0.50093109038E+03  0.66753423769E+03  0.88013640037E+02 0.  0.
        254    2    1    2    0    0 -0.36764293635E+03  0.22751323413E+03  0.21462509272E+03  0.10206954074E+04  0.89935064565E+03 0.  0.
        -24    2    4    4    0    0 -0.56076669061E+03  0.15473615416E+03  0.41737608305E+03  0.72027855357E+03  0.78713666717E+02 0.  0.
         24    2    4    4    0    0  0.19312375426E+03  0.72777079965E+02 -0.20275099033E+03  0.30041685379E+03  0.80926102913E+02 0.  0.
         11    1    3    3    0    0  0.12880786689E+03 -0.32786154365E+02 -0.14324421649E+03  0.19541060373E+03  0.00000000000E+00 0.  1.
        -11    1    3    3    0    0  0.23883506945E+03 -0.19472707976E+03 -0.35768687389E+03  0.47212363396E+03  0.00000000000E+00 0. -1.
          2    1    6    6  502    0  0.59980397958E+02  0.11056797618E+02 -0.11295840606E+03  0.12837251424E+03  0.00000000000E+00 0. -1.
          1    1    5    5  503    0 -0.18171046010E+03  0.88733526530E+02  0.14812593252E+03  0.25066635579E+03  0.00000000000E+00 0. -1.
         -2    1    5    5    0  503 -0.37905623051E+03  0.66002627631E+02  0.26925015052E+03  0.46961219778E+03  0.00000000000E+00 0.  1.
         -1    1    6    6    0  502  0.13314335631E+03  0.61720282348E+02 -0.89792584270E+02  0.17204433955E+03  0.00000000000E+00 0.  1.
<mgrwt>
<rscale>  0 0.16637753E+04</rscale>
<asrwt>0</asrwt>
<pdfrwt beam="1">  1        1 0.10784028E+00 0.16637753E+04</pdfrwt>
<pdfrwt beam="2">  1       -1 0.15188736E+00 0.16637753E+04</pdfrwt>
<totfact> 0.87530973E+00</totfact>
</mgrwt>
</event>
<event>
12    1  0.1960998E-007  0.4189783E+04  0.7818608E-02  0.7967319E-01
         -2   -1    0    0    0  501 -0.00000000000E+00  0.00000000000E+00  0.17812500752E+04  0.17812500752E+04  0.00000000000E+00 0. -1.
          2   -1    0    0  501    0  0.00000000000E+00 -0.00000000000E+00 -0.24637584539E+04  0.24637584539E+04  0.00000000000E+00 0.  1.
         23    2    1    2    0    0 -0.11420784779E+04  0.16311549972E+04 -0.19034785411E+03  0.20021816872E+04  0.86540905298E+02 0.  0.
        254    2    1    2    0    0  0.11420784779E+04 -0.16311549972E+04 -0.49216052455E+03  0.22428268420E+04  0.90721573328E+03 0.  0.
        -24    2    4    4    0    0  0.63201111391E+03 -0.88937922721E+03 -0.72143399522E+03  0.13104782283E+04  0.80328820896E+02 0.  0.
         24    2    4    4    0    0  0.51006736396E+03 -0.74177577000E+03  0.22927347068E+03  0.93234861370E+03  0.79420427965E+02 0.  0.
         13    1    3    3    0    0 -0.86902286309E+03  0.12897266651E+04 -0.17115590108E+03  0.15645734083E+04  0.00000000000E+00 0. -1.
        -13    1    3    3    0    0 -0.27305561477E+03  0.34142833207E+03 -0.19191953029E+02  0.43760827890E+03  0.00000000000E+00 0.  1.
          2    1    6    6  502    0  0.65445728655E+02 -0.11119793848E+03  0.60643086119E+02  0.14256826019E+03  0.00000000000E+00 0. -1.
          3    1    5    5  503    0  0.11253241151E+03 -0.16038912154E+03 -0.16777105614E+03  0.25794445376E+03  0.00000000000E+00 0. -1.
         -4    1    5    5    0  503  0.51947870240E+03 -0.72899010566E+03 -0.55366293908E+03  0.10525337745E+04  0.00000000000E+00 0.  1.
         -1    1    6    6    0  502  0.44462163530E+03 -0.63057783152E+03  0.16863038456E+03  0.78978035351E+03  0.00000000000E+00 0.  1.
<mgrwt>
<rscale>  0 0.41897828E+04</rscale>
<asrwt>0</asrwt>
<pdfrwt beam="1">  1        2 0.37903976E+00 0.41897828E+04</pdfrwt>
<pdfrwt beam="2">  1       -2 0.27403847E+00 0.41897828E+04</pdfrwt>
<totfact> 0.12997578E-01</totfact>
</mgrwt>
</event>
<event>
12    1  0.1960998E-007  0.2038293E+04  0.7818608E-02  0.8588924E-01
          2   -1    0    0  501    0  0.00000000000E+00  0.00000000000E+00  0.79190597694E+03  0.79190597694E+03  0.00000000000E+00 0. -1.
         -2   -1    0    0    0  501 -0.00000000000E+00 -0.00000000000E+00 -0.13115939898E+04  0.13115939898E+04  0.00000000000E+00 0.  1.
         23    2    1    2    0    0  0.21794361471E+03 -0.72744765568E+03 -0.52365597054E+03  0.92685978052E+03  0.90409990182E+02 0.  0.
        254    2    1    2    0    0 -0.21794361471E+03  0.72744765568E+03  0.39679576983E+01  0.11766401862E+04  0.89876964353E+03 0.  0.
        -24    2    4    4    0    0  0.63408633970E+01  0.89734217267E+02 -0.37769106886E+03  0.39626053908E+03  0.79242886369E+02 0.  0.
         24    2    4    4    0    0 -0.22428447811E+03  0.63771343841E+03  0.38165902656E+03  0.78037964711E+03  0.79666959396E+02 0.  0.
         11    1    3    3    0    0 -0.76883709797E+01 -0.23628940062E+02 -0.25158799292E+02  0.35361038426E+02  0.00000000000E+00 0.  1.
        -11    1    3    3    0    0  0.22563198569E+03 -0.70381871562E+03 -0.49849717124E+03  0.89149874209E+03  0.00000000000E+00 0. -1.
          2    1    6    6  502    0 -0.19738476007E+03  0.61221675082E+03  0.35483189934E+03  0.73462627933E+03  0.00000000000E+00 0. -1.
          3    1    5    5  503    0  0.36343559818E+02  0.73532550138E+02 -0.30710686496E+03  0.31787185591E+03  0.00000000000E+00 0. -1.
         -4    1    5    5    0  503 -0.30002696421E+02  0.16201667129E+02 -0.70584203896E+02  0.78388683175E+02  0.00000000000E+00 0.  1.
         -1    1    6    6    0  502 -0.26899718032E+02  0.25496687591E+02  0.26827127215E+02  0.45753367777E+02  0.00000000000E+00 0.  1.
<mgrwt>
<rscale>  0 0.20382925E+04</rscale>
<asrwt>0</asrwt>
<pdfrwt beam="1">  1        2 0.12183169E+00 0.20382925E+04</pdfrwt>
<pdfrwt beam="2">  1       -2 0.20178369E+00 0.20382925E+04</pdfrwt>
<totfact> 0.41844967E+00</totfact>
</mgrwt>
</event>
<event>
12    1  0.1960998E-007  0.1396209E+04  0.7818608E-02  0.8956568E-01
         -2   -1    0    0    0  501 -0.00000000000E+00  0.00000000000E+00  0.21730770508E+03  0.21730770508E+03  0.00000000000E+00 0. -1.
          2   -1    0    0  501    0  0.00000000000E+00 -0.00000000000E+00 -0.22426704365E+04  0.22426704365E+04  0.00000000000E+00 0.  1.
         23    2    1    2    0    0 -0.39271771563E+03  0.67173511268E+02 -0.79081424481E+03  0.89029050360E+03  0.92144051458E+02 0.  0.
        254    2    1    2    0    0  0.39271771563E+03 -0.67173511268E+02 -0.12345484867E+04  0.15696876380E+04  0.88378155121E+03 0.  0.
        -24    2    4    4    0    0  0.25419593439E+03 -0.33320240714E+03 -0.16728905022E+03  0.45854021155E+03  0.81449874784E+02 0.  0.
         24    2    4    4    0    0  0.13852178124E+03  0.26602889587E+03 -0.10672594364E+04  0.11111474265E+04  0.75141475690E+02 0.  0.
         13    1    3    3    0    0 -0.14982494252E+03  0.15083546151E+02 -0.39782658688E+03  0.42537162575E+03  0.00000000000E+00 0. -1.
        -13    1    3    3    0    0 -0.24289277311E+03  0.52089965117E+02 -0.39298765793E+03  0.46491887785E+03  0.00000000000E+00 0.  1.
          2    1    6    6  502    0  0.31910484953E+02  0.13423730447E+03 -0.53755014118E+03  0.55497575375E+03  0.00000000000E+00 0. -1.
          3    1    5    5  503    0  0.20312510760E+03 -0.21206574340E+03 -0.95720898936E+02  0.30885948157E+03  0.00000000000E+00 0. -1.
         -4    1    5    5    0  503  0.51070826796E+02 -0.12113666374E+03 -0.71568151280E+02  0.14968072998E+03  0.00000000000E+00 0.  1.
         -1    1    6    6    0  502  0.10661129629E+03  0.13179159140E+03 -0.52970929526E+03  0.55617167272E+03  0.00000000000E+00 0.  1.
<mgrwt>
<rscale>  0 0.13962085E+04</rscale>
<asrwt>0</asrwt>
<pdfrwt beam="1">  1        2 0.34502622E+00 0.13962085E+04</pdfrwt>
<pdfrwt beam="2">  1       -2 0.33431954E-01 0.13962085E+04</pdfrwt>
<totfact> 0.39840895E+01</totfact>
</mgrwt>
</event>
<event>
12    1  0.1960998E-007  0.1442695E+04  0.7818608E-02  0.8923481E-01
          2   -1    0    0  501    0  0.00000000000E+00  0.00000000000E+00  0.35350758256E+04  0.35350758256E+04  0.00000000000E+00 0. -1.
         -2   -1    0    0    0  501 -0.00000000000E+00 -0.00000000000E+00 -0.14719400736E+03  0.14719400736E+03  0.00000000000E+00 0.  1.
         23    2    1    2    0    0 -0.71658413868E+02  0.41072378055E+03  0.73252031660E+03  0.84785753051E+03  0.91909877696E+02 0.  0.
        254    2    1    2    0    0  0.71658413868E+02 -0.41072378055E+03  0.26553615016E+04  0.28344123024E+04  0.89951066903E+03 0.  0.
        -24    2    4    4    0    0  0.35896882688E+03 -0.41075593306E+03  0.23232552648E+04  0.23878368700E+04  0.81675192516E+02 0.  0.
         24    2    4    4    0    0 -0.28731041301E+03  0.32152509118E-01  0.33210623683E+03  0.44657543245E+03  0.81165201072E+02 0.  0.
         13    1    3    3    0    0 -0.64409132730E+00 -0.38335386607E+01  0.95303402617E+00  0.40023925539E+01  0.00000000000E+00 0. -1.
        -13    1    3    3    0    0 -0.71014322541E+02  0.41455731922E+03  0.73156728257E+03  0.84385513795E+03  0.00000000000E+00 0.  1.
          4    1    6    6  502    0 -0.19828273388E+02 -0.14417104699E+02  0.59652220557E+02  0.64493416337E+02  0.00000000000E+00 0. -1.
          3    1    5    5  503    0  0.33378657412E+02 -0.24144327752E+02  0.27882904981E+03  0.28185585385E+03  0.00000000000E+00 0. -1.
         -4    1    5    5    0  503  0.32559016947E+03 -0.38661160531E+03  0.20444262150E+04  0.21059810161E+04  0.00000000000E+00 0.  1.
         -3    1    6    6    0  502 -0.26748213962E+03  0.14449257208E+02  0.27245401628E+03  0.38208201611E+03  0.00000000000E+00 0.  1.
<mgrwt>
<rscale>  0 0.14426947E+04</rscale>
<asrwt>0</asrwt>
<pdfrwt beam="1">  1        2 0.54385775E+00 0.14426947E+04</pdfrwt>
<pdfrwt beam="2">  1       -2 0.22645235E-01 0.14426947E+04</pdfrwt>
<totfact> 0.12991185E+01</totfact>
</mgrwt>
</event>
<event>
12    1  0.1960998E-007  0.3002226E+04  0.7818608E-02  0.8243096E-01
          2   -1    0    0  501    0  0.00000000000E+00  0.00000000000E+00  0.17683636736E+04  0.17683636736E+04  0.00000000000E+00 0. -1.
         -2   -1    0    0    0  501 -0.00000000000E+00 -0.00000000000E+00 -0.12742513481E+04  0.12742513481E+04  0.00000000000E+00 0.  1.
         23    2    1    2    0    0 -0.40254057425E+03 -0.98972660191E+03  0.10841093305E+04  0.15247692740E+04  0.89613826812E+02 0.  0.
        254    2    1    2    0    0  0.40254057425E+03  0.98972660191E+03 -0.58999700508E+03  0.15178457477E+04  0.90230903092E+03 0.  0.
        -24    2    4    4    0    0  0.33332895602E+03  0.55049412475E+03  0.13559965877E+03  0.66320203048E+03  0.85426526720E+02 0.  0.
         24    2    4    4    0    0  0.69211618237E+02  0.43923247716E+03 -0.72559666385E+03  0.85464371720E+03  0.78803221187E+02 0.  0.
         11    1    3    3    0    0 -0.16067455052E+03 -0.28672612524E+03  0.32343565642E+03  0.46112775445E+03  0.00000000000E+00 0.  1.
        -11    1    3    3    0    0 -0.24186602373E+03 -0.70300047667E+03  0.76067367410E+03  0.10636415195E+04  0.00000000000E+00 0. -1.
          4    1    6    6  502    0  0.31388549182E+02  0.30978999714E+03 -0.56329678023E+03  0.64362904376E+03  0.00000000000E+00 0. -1.
          3    1    5    5  503    0  0.26590192273E+03  0.49331812464E+03  0.10938436570E+03  0.57099171979E+03  0.00000000000E+00 0. -1.
         -4    1    5    5    0  503  0.67427033282E+02  0.57176000109E+02  0.26215293068E+02  0.92210310683E+02  0.00000000000E+00 0.  1.
         -3    1    6    6    0  502  0.37823069055E+02  0.12944248001E+03 -0.16229988362E+03  0.21101467344E+03  0.00000000000E+00 0.  1.
<mgrwt>
<rscale>  0 0.30022257E+04</rscale>
<asrwt>0</asrwt>
<pdfrwt beam="1">  1        2 0.27205595E+00 0.30022257E+04</pdfrwt>
<pdfrwt beam="2">  1       -2 0.19603867E+00 0.30022257E+04</pdfrwt>
<totfact> 0.10863784E+00</totfact>
</mgrwt>
</event>
<event>
12    1  0.1960998E-007  0.3886345E+04  0.7818608E-02  0.8027875E-01
          2   -1    0    0  501    0  0.00000000000E+00  0.00000000000E+00  0.33286200020E+04  0.33286200020E+04  0.00000000000E+00 0. -1.
         -2   -1    0    0    0  501 -0.00000000000E+00 -0.00000000000E+00 -0.11343797338E+04  0.11343797338E+04  0.00000000000E+00 0.  1.
         23    2    1    2    0    0  0.13008000286E+04 -0.10171444353E+04  0.19660703169E+04  0.25691143530E+04  0.90843553296E+02 0.  0.
        254    2    1    2    0    0 -0.13008000286E+04  0.10171444353E+04  0.22816995129E+03  0.18938853828E+04  0.89893092044E+03 0.  0.
        -24    2    4    4    0    0 -0.67663323860E+03  0.49499944295E+03 -0.32928596298E+03  0.90421165134E+03  0.79451097474E+02 0.  0.
         24    2    4    4    0    0 -0.62416679000E+03  0.52214499237E+03  0.55745591428E+03  0.98967373144E+03  0.80482442544E+02 0.  0.
         11    1    3    3    0    0  0.46779958703E+03 -0.33141921259E+03  0.63036632161E+03  0.85207795859E+03  0.00000000000E+00 0.  1.
        -11    1    3    3    0    0  0.83300044157E+03 -0.68572522273E+03  0.13357039953E+04  0.17170363944E+04  0.00000000000E+00 0. -1.
          2    1    6    6  502    0 -0.27227277379E+03  0.21216334409E+03  0.28263300627E+03  0.44612460609E+03  0.00000000000E+00 0. -1.
          1    1    5    5  503    0 -0.39435112420E+02  0.53333536703E+02 -0.17770596866E+02  0.68668685308E+02  0.00000000000E+00 0. -1.
         -2    1    5    5    0  503 -0.63719812618E+03  0.44166590625E+03 -0.31151536612E+03  0.83554296603E+03  0.00000000000E+00 0.  1.
         -1    1    6    6    0  502 -0.35189401621E+03  0.30998164827E+03  0.27482290801E+03  0.54354912536E+03  0.00000000000E+00 0.  1.
<mgrwt>
<rscale>  0 0.38863448E+04</rscale>
<asrwt>0</asrwt>
<pdfrwt beam="1">  1        2 0.51209538E+00 0.38863448E+04</pdfrwt>
<pdfrwt beam="2">  1       -2 0.17451996E+00 0.38863448E+04</pdfrwt>
<totfact> 0.16779072E-01</totfact>
</mgrwt>
</event>
<event>
12    1  0.1960998E-007  0.1458036E+04  0.7818608E-02  0.8912848E-01
          1   -1    0    0  501    0  0.00000000000E+00  0.00000000000E+00  0.11990059518E+04  0.11990059518E+04  0.00000000000E+00 0. -1.
         -1   -1    0    0    0  501 -0.00000000000E+00 -0.00000000000E+00 -0.44325679017E+03  0.44325679017E+03  0.00000000000E+00 0.  1.
         23    2    1    2    0    0  0.17153043211E+03 -0.40931134034E+03  0.20994210517E+03  0.49903209430E+03  0.89436464300E+02 0.  0.
        254    2    1    2    0    0 -0.17153043211E+03  0.40931134034E+03  0.54580705643E+03  0.11432306476E+04  0.90117285155E+03 0.  0.
        -24    2    4    4    0    0  0.27253833600E+03 -0.11179332929E+03  0.95415039762E+02  0.31989083008E+03  0.80319488848E+02 0.  0.
         24    2    4    4    0    0 -0.44406876811E+03  0.52110466964E+03  0.45039201667E+03  0.82333981756E+03  0.79299047750E+02 0.  0.
         13    1    3    3    0    0  0.18101588635E+03 -0.37869945349E+03  0.18639503037E+03  0.45926368736E+03  0.00000000000E+00 0.  1.
        -13    1    3    3    0    0 -0.94854542396E+01 -0.30611886856E+02  0.23547074793E+02  0.39768406937E+02  0.00000000000E+00 0. -1.
          4    1    6    6  502    0 -0.21153163161E+03  0.20309493766E+03  0.22356753317E+03  0.36874873120E+03  0.00000000000E+00 0. -1.
          1    1    5    5  503    0  0.26392811743E+03 -0.86250751248E+02  0.80563576647E+02  0.28911543222E+03  0.00000000000E+00 0. -1.
         -2    1    5    5    0  503  0.86102185707E+01 -0.25542578043E+02  0.14851463115E+02  0.30775397862E+02  0.00000000000E+00 0.  1.
         -3    1    6    6    0  502 -0.23253713651E+03  0.31800973197E+03  0.22682448350E+03  0.45459108636E+03  0.00000000000E+00 0.  1.
<mgrwt>
<rscale>  0 0.14580364E+04</rscale>
<asrwt>0</asrwt>
<pdfrwt beam="1">  1        1 0.18446245E+00 0.14580364E+04</pdfrwt>
<pdfrwt beam="2">  1       -1 0.68193353E-01 0.14580364E+04</pdfrwt>
<totfact> 0.22616596E+01</totfact>
</mgrwt>
</event>
<event>
12    1  0.1960998E-007  0.2087075E+04  0.7818608E-02  0.8566958E-01
         -2   -1    0    0    0  501 -0.00000000000E+00  0.00000000000E+00  0.51606272100E+03  0.51606272100E+03  0.00000000000E+00 0.  1.
          2   -1    0    0  501    0  0.00000000000E+00 -0.00000000000E+00 -0.21101513595E+04  0.21101513595E+04  0.00000000000E+00 0. -1.
         23    2    1    2    0    0  0.36985424882E+03  0.30362185207E+03  0.22855834439E+03  0.53818180095E+03  0.91773305810E+02 0.  0.
        254    2    1    2    0    0 -0.36985424882E+03 -0.30362185207E+03 -0.18226469829E+04  0.20880322795E+04  0.89936554404E+03 0.  0.
        -24    2    4    4    0    0 -0.56004031520E+03 -0.32522089481E+03 -0.17506731710E+04  0.18685849639E+04  0.85670476581E+02 0.  0.
         24    2    4    4    0    0  0.19018606638E+03  0.21599042735E+02 -0.71973811872E+02  0.21944731565E+03  0.79621832803E+02 0.  0.
         13    1    3    3    0    0  0.27932265928E+03  0.27486963895E+03  0.17561266894E+03  0.42943483312E+03  0.00000000000E+00 0. -1.
        -13    1    3    3    0    0  0.90531589539E+02  0.28752213123E+02  0.52945675448E+02  0.10874696783E+03  0.00000000000E+00 0.  1.
          2    1    6    6  502    0  0.45183827605E+02 -0.14014375610E+02  0.11084786753E+02  0.48588614902E+02  0.00000000000E+00 0. -1.
          1    1    5    5  503    0 -0.30932720763E+03 -0.15901864210E+03 -0.10489407718E+04  0.11051004446E+04  0.00000000000E+00 0. -1.
         -2    1    5    5    0  503 -0.25071310756E+03 -0.16620225270E+03 -0.70173239925E+03  0.76348451934E+03  0.00000000000E+00 0.  1.
         -1    1    6    6    0  502  0.14500223877E+03  0.35613418345E+02 -0.83058598625E+02  0.17085870075E+03  0.00000000000E+00 0.  1.
<mgrwt>
<rscale>  0 0.20870749E+04</rscale>
<asrwt>0</asrwt>
<pdfrwt beam="1">  1        2 0.32463866E+00 0.20870749E+04</pdfrwt>
<pdfrwt beam="2">  1       -2 0.79394267E-01 0.20870749E+04</pdfrwt>
<totfact> 0.75224381E+00</totfact>
</mgrwt>
</event>
<event>
12    1  0.1960998E-007  0.1882617E+04  0.7818608E-02  0.8663558E-01
         -1   -1    0    0    0  501 -0.00000000000E+00  0.00000000000E+00  0.74593267887E+03  0.74593267887E+03  0.00000000000E+00 0.  1.
          1   -1    0    0  501    0  0.00000000000E+00 -0.00000000000E+00 -0.11878569445E+04  0.11878569445E+04  0.00000000000E+00 0. -1.
         23    2    1    2    0    0 -0.18352328665E+03  0.69870046599E+03 -0.20703121664E+03  0.75694764206E+03  0.90800166513E+02 0.  0.
        254    2    1    2    0    0  0.18352328665E+03 -0.69870046599E+03 -0.23489304894E+03  0.11768419813E+04  0.89884323800E+03 0.  0.
        -24    2    4    4    0    0 -0.14950312687E+03  0.15359724473E+03  0.67627626041E+00  0.22863816268E+03  0.79571688128E+02 0.  0.
         24    2    4    4    0    0  0.33302641352E+03 -0.85229771073E+03 -0.23556932520E+03  0.94820381858E+03  0.79243894368E+02 0.  0.
         13    1    3    3    0    0 -0.18831550273E+03  0.69692812580E+03 -0.20884853767E+03  0.75152461888E+03  0.00000000000E+00 0. -1.
        -13    1    3    3    0    0  0.47922160835E+01  0.17723401980E+01  0.18173210235E+01  0.54230231856E+01  0.00000000000E+00 0.  1.
          2    1    6    6  502    0  0.29485914997E+03 -0.66921105447E+03 -0.18037751777E+03  0.75320741012E+03  0.00000000000E+00 0. -1.
          3    1    5    5  503    0 -0.55260398129E+02  0.34456005063E+02  0.33484680168E+02  0.73226714334E+02  0.00000000000E+00 0. -1.
         -4    1    5    5    0  503 -0.94242728738E+02  0.11914123967E+03 -0.32808403907E+02  0.15541144834E+03  0.00000000000E+00 0.  1.
         -1    1    6    6    0  502  0.38167263545E+02 -0.18308665626E+03 -0.55191807440E+02  0.19499640847E+03  0.00000000000E+00 0.  1.
<mgrwt>
<rscale>  0 0.18826166E+04</rscale>
<asrwt>0</asrwt>
<pdfrwt beam="1">  1        1 0.18274722E+00 0.18826166E+04</pdfrwt>
<pdfrwt beam="2">  1       -1 0.11475887E+00 0.18826166E+04</pdfrwt>
<totfact> 0.70512080E+00</totfact>
</mgrwt>
</event>
<event>
12    1  0.2541236E-007  0.2714160E+04  0.7818608E-02  0.8330425E-01
         -2   -1    0    0    0  501 -0.00000000000E+00  0.00000000000E+00  0.10871870293E+04  0.10871870293E+04  0.00000000000E+00 0.  1.
          2   -1    0    0  501    0  0.00000000000E+00 -0.00000000000E+00 -0.16939737561E+04  0.16939737561E+04  0.00000000000E+00 0. -1.
         23    2    1    2    0    0  0.71721488967E+03 -0.25618899317E+03  0.68716040125E+03  0.10298057558E+04  0.90997139878E+02 0.  0.
        254    2    1    2    0    0 -0.71721488967E+03  0.25618899317E+03 -0.12939471281E+04  0.17513550295E+04  0.90161814036E+03 0.  0.
        -24    2    4    4    0    0 -0.51727383237E+02  0.29145503322E+03 -0.94686640087E+03  0.99580329031E+03  0.86292834836E+02 0.  0.
         24    2    4    4    0    0 -0.66548750643E+03 -0.35266040050E+02 -0.34708072721E+03  0.75555173922E+03  0.79221743453E+02 0.  0.
         11    1    3    3    0    0  0.41493094644E+03 -0.17197488685E+03  0.45597479238E+03  0.64004379796E+03  0.00000000000E+00 0.  1.
        -11    1    3    3    0    0  0.30228394323E+03 -0.84214106323E+02  0.23118560887E+03  0.38976195785E+03  0.00000000000E+00 0. -1.
          4    1    6    6  502    0 -0.51329319252E+03 -0.53730835449E+02 -0.24447009798E+03  0.57107139044E+03  0.00000000000E+00 0. -1.
          1    1    5    5  503    0 -0.53947889826E+02  0.28340128416E+03 -0.83130199812E+03  0.87993731297E+03  0.00000000000E+00 0. -1.
         -2    1    5    5    0  503  0.22205065886E+01  0.80537490609E+01 -0.11556440275E+03  0.11586597735E+03  0.00000000000E+00 0.  1.
         -3    1    6    6    0  502 -0.15219431391E+03  0.18464795399E+02 -0.10261062923E+03  0.18448034878E+03  0.00000000000E+00 0.  1.
<mgrwt>
<rscale>  0 0.27141601E+04</rscale>
<asrwt>0</asrwt>
<pdfrwt beam="1">  1        2 0.26061135E+00 0.27141601E+04</pdfrwt>
<pdfrwt beam="2">  1       -2 0.16725954E+00 0.27141601E+04</pdfrwt>
<totfact> 0.19313699E+00</totfact>
</mgrwt>
</event>
<event>
12    1  0.1960998E-007  0.1338228E+04  0.7818608E-02  0.8999787E-01
          1   -1    0    0  501    0  0.00000000000E+00  0.00000000000E+00  0.10526304504E+04  0.10526304504E+04  0.00000000000E+00 0. -1.
         -1   -1    0    0    0  501 -0.00000000000E+00 -0.00000000000E+00 -0.42532857386E+03  0.42532857386E+03  0.00000000000E+00 0.  1.
         23    2    1    2    0    0  0.21493617022E+03  0.10363922349E+03 -0.12216238934E+03  0.28567840463E+03  0.98741357026E+02 0.  0.
        254    2    1    2    0    0 -0.21493617022E+03 -0.10363922349E+03  0.74946426587E+03  0.11922806196E+04  0.89604561501E+03 0.  0.
        -24    2    4    4    0    0  0.21409188270E+03 -0.10386963647E+03 -0.72791594363E+02  0.26121667584E+03  0.79443690181E+02 0.  0.
         24    2    4    4    0    0 -0.42902805292E+03  0.23041298130E+00  0.82225586023E+03  0.93106394377E+03  0.81916081593E+02 0.  0.
         13    1    3    3    0    0  0.12302188267E+03  0.11030350564E+03 -0.67171127838E+02  0.17836257283E+03  0.00000000000E+00 0. -1.
        -13    1    3    3    0    0  0.91914287552E+02 -0.66642821512E+01 -0.54991261506E+02  0.10731583180E+03  0.00000000000E+00 0.  1.
          2    1    6    6  502    0 -0.20610263235E+03 -0.21673294705E+02  0.32169337177E+03  0.38266780921E+03  0.00000000000E+00 0. -1.
          3    1    5    5  503    0  0.15274539449E+03 -0.42626181570E+02 -0.72893166516E+02  0.17453240564E+03  0.00000000000E+00 0. -1.
         -4    1    5    5    0  503  0.61346488206E+02 -0.61243454900E+02  0.10157215271E+00  0.86684270201E+02  0.00000000000E+00 0.  1.
         -1    1    6    6    0  502 -0.22292542057E+03  0.21903707686E+02  0.50056248847E+03  0.54839613457E+03  0.00000000000E+00 0.  1.
<mgrwt>
<rscale>  0 0.13382284E+04</rscale>
<asrwt>0</asrwt>
<pdfrwt beam="1">  1        1 0.16194315E+00 0.13382284E+04</pdfrwt>
<pdfrwt beam="2">  1       -1 0.65435166E-01 0.13382284E+04</pdfrwt>
<totfact> 0.31953704E+01</totfact>
</mgrwt>
</event>
<event>
12    1  0.1960998E-007  0.2852715E+04  0.7818608E-02  0.8287087E-01
         -1   -1    0    0    0  501 -0.00000000000E+00  0.00000000000E+00  0.22438765883E+04  0.22438765883E+04  0.00000000000E+00 0.  1.
          1   -1    0    0  501    0  0.00000000000E+00 -0.00000000000E+00 -0.90668768497E+03  0.90668768497E+03  0.00000000000E+00 0. -1.
         23    2    1    2    0    0  0.30558639370E+03 -0.11060699224E+04  0.12357549421E+04  0.16887232288E+04  0.89006456567E+02 0.  0.
        254    2    1    2    0    0 -0.30558639370E+03  0.11060699224E+04  0.10143396127E+03  0.14618410445E+04  0.89995370648E+03 0.  0.
        -24    2    4    4    0    0 -0.33343414709E+03  0.12074083264E+04 -0.57601906276E+02  0.12564889207E+04  0.80207426500E+02 0.  0.
         24    2    4    4    0    0  0.27847753386E+02 -0.10133840399E+03  0.15903586755E+03  0.20535212382E+03  0.76368305590E+02 0.  0.
         13    1    3    3    0    0  0.11712268253E+03 -0.56945072647E+03  0.59255403788E+03  0.83012778562E+03  0.00000000000E+00 0.  1.
        -13    1    3    3    0    0  0.18846371117E+03 -0.53661919589E+03  0.64320090420E+03  0.85859544315E+03  0.00000000000E+00 0. -1.
          2    1    6    6  502    0  0.18929259807E+02 -0.11263722095E+03  0.14928149325E+03  0.18796389187E+03  0.00000000000E+00 0. -1.
          1    1    5    5  503    0 -0.20276474522E+03  0.64382900214E+03 -0.62976764720E+02  0.67793465673E+03  0.00000000000E+00 0. -1.
         -2    1    5    5    0  503 -0.13066940187E+03  0.56357932421E+03  0.53748584444E+01  0.57855426398E+03  0.00000000000E+00 0.  1.
         -1    1    6    6    0  502  0.89184935791E+01  0.11298816959E+02  0.97543742997E+01  0.17388231951E+02  0.00000000000E+00 0.  1.
<mgrwt>
<rscale>  0 0.28527147E+04</rscale>
<asrwt>0</asrwt>
<pdfrwt beam="1">  1        1 0.13949041E+00 0.28527147E+04</pdfrwt>
<pdfrwt beam="2">  1       -1 0.34521178E+00 0.28527147E+04</pdfrwt>
<totfact> 0.25880110E-01</totfact>
</mgrwt>
</event>
<event>
12    1  0.1960998E-007  0.1319529E+04  0.7818608E-02  0.9014220E-01
         -2   -1    0    0    0  501 -0.00000000000E+00  0.00000000000E+00  0.79657385103E+03  0.79657385103E+03  0.00000000000E+00 0.  1.
          2   -1    0    0  501    0  0.00000000000E+00 -0.00000000000E+00 -0.54645171372E+03  0.54645171372E+03  0.00000000000E+00 0. -1.
         23    2    1    2    0    0  0.50342153864E+02 -0.21628123744E+03  0.33511937950E+03  0.41218724795E+03  0.91002322649E+02 0.  0.
        254    2    1    2    0    0 -0.50342153864E+02  0.21628123744E+03 -0.84997242187E+02  0.93083831680E+03  0.89995751829E+03 0.  0.
        -24    2    4    4    0    0 -0.20386976275E+03 -0.30052549616E+03 -0.10231837369E+03  0.38542139138E+03  0.78753700432E+02 0.  0.
         24    2    4    4    0    0  0.15352760889E+03  0.51680673360E+03  0.17321131503E+02  0.54541692543E+03  0.80744500468E+02 0.  0.
         11    1    3    3    0    0 -0.38989765369E+01  0.71067299941E+01  0.38583740053E+01  0.89774539380E+01  0.00000000000E+00 0. -1.
        -11    1    3    3    0    0  0.54241130401E+02 -0.22338796744E+03  0.33126100549E+03  0.40320979401E+03  0.00000000000E+00 0.  1.
          2    1    6    6  502    0  0.14671467631E+03  0.40750814191E+03  0.34841509487E+02  0.43451353576E+03  0.00000000000E+00 0. -1.
          1    1    5    5  503    0 -0.21053795939E+03 -0.29113653621E+03 -0.94513563495E+02  0.37150979630E+03  0.00000000000E+00 0. -1.
         -2    1    5    5    0  503  0.66681966448E+01 -0.93889599488E+01 -0.78048101955E+01  0.13911595078E+02  0.00000000000E+00 0.  1.
         -1    1    6    6    0  502  0.68129325742E+01  0.10929859169E+03 -0.17520377984E+02  0.11090338967E+03  0.00000000000E+00 0.  1.
<mgrwt>
<rscale>  0 0.13195289E+04</rscale>
<asrwt>0</asrwt>
<pdfrwt beam="1">  1        2 0.84069494E-01 0.13195289E+04</pdfrwt>
<pdfrwt beam="2">  1       -2 0.12254982E+00 0.13195289E+04</pdfrwt>
<totfact> 0.27353197E+01</totfact>
</mgrwt>
</event>
<event>
12    1  0.1960998E-007  0.1320183E+04  0.7818608E-02  0.9013711E-01
         -1   -1    0    0    0  501 -0.00000000000E+00  0.00000000000E+00  0.36175906621E+03  0.36175906621E+03  0.00000000000E+00 0.  1.
          1   -1    0    0  501    0  0.00000000000E+00 -0.00000000000E+00 -0.12044498071E+04  0.12044498071E+04  0.00000000000E+00 0. -1.
         23    2    1    2    0    0 -0.12394084393E+03  0.12422289023E+03  0.12033064066E+03  0.23295588596E+03  0.94848945555E+02 0.  0.
        254    2    1    2    0    0  0.12394084393E+03 -0.12422289023E+03 -0.96302138151E+03  0.13332529873E+04  0.90518544379E+03 0.  0.
        -24    2    4    4    0    0 -0.37061246609E+03 -0.23088917063E+02 -0.24407769497E+03  0.45142926737E+03  0.79547244759E+02 0.  0.
         24    2    4    4    0    0  0.49455331002E+03 -0.10113397316E+03 -0.71894368655E+03  0.88182371993E+03  0.76954477596E+02 0.  0.
         11    1    3    3    0    0 -0.63188811841E+02  0.56060503073E+02  0.11337552165E+03  0.14138463444E+03  0.00000000000E+00 0.  1.
        -11    1    3    3    0    0 -0.60752032090E+02  0.68162387152E+02  0.69551190137E+01  0.91571251525E+02  0.00000000000E+00 0. -1.
          2    1    6    6  502    0  0.15798362978E+02 -0.55566186668E+01 -0.56426998601E+02  0.58859752420E+02  0.00000000000E+00 0. -1.
          3    1    5    5  503    0 -0.20165327521E+03 -0.44114863027E+02 -0.16208258202E+03  0.26245176307E+03  0.00000000000E+00 0. -1.
         -4    1    5    5    0  503 -0.16895919088E+03  0.21025945964E+02 -0.81995112945E+02  0.18897750431E+03  0.00000000000E+00 0.  1.
         -1    1    6    6    0  502  0.47875494704E+03 -0.95577354496E+02 -0.66251668795E+03  0.82296396751E+03  0.00000000000E+00 0.  1.
<mgrwt>
<rscale>  0 0.13201828E+04</rscale>
<asrwt>0</asrwt>
<pdfrwt beam="1">  1        1 0.18529997E+00 0.13201828E+04</pdfrwt>
<pdfrwt beam="2">  1       -1 0.55655242E-01 0.13201828E+04</pdfrwt>
<totfact> 0.33967249E+01</totfact>
</mgrwt>
</event>
<event>
12    1  0.1960998E-007  0.2489756E+04  0.7818608E-02  0.8406644E-01
         -1   -1    0    0    0  501 -0.00000000000E+00  0.00000000000E+00  0.97085620969E+03  0.97085620969E+03  0.00000000000E+00 0.  1.
          1   -1    0    0  501    0  0.00000000000E+00 -0.00000000000E+00 -0.15962423501E+04  0.15962423501E+04  0.00000000000E+00 0. -1.
         23    2    1    2    0    0 -0.25185789110E+03  0.57009883558E+03 -0.11816763539E+04  0.13389480344E+04  0.89318272017E+02 0.  0.
        254    2    1    2    0    0  0.25185789110E+03 -0.57009883558E+03  0.55629021348E+03  0.12281505254E+04  0.90024987192E+03 0.  0.
        -24    2    4    4    0    0  0.24812300871E+03 -0.79655325075E+03  0.50773066187E+03  0.98000366016E+03  0.80960732439E+02 0.  0.
         24    2    4    4    0    0  0.37348823912E+01  0.22645441517E+03  0.48559551606E+02  0.24814686528E+03  0.89012837277E+02 0.  0.
         11    1    3    3    0    0 -0.23802668128E+02  0.38590085082E+02 -0.14405377172E+03  0.15102069667E+03  0.00000000000E+00 0. -1.
        -11    1    3    3    0    0 -0.22805522297E+03  0.53150875050E+03 -0.10376225822E+04  0.11879273377E+04  0.00000000000E+00 0.  1.
          4    1    6    6  502    0  0.38880794404E+02  0.17974686414E+03  0.46333423292E+02  0.18965083035E+03  0.00000000000E+00 0. -1.
          3    1    5    5  503    0  0.13012657407E+03 -0.53952610941E+03  0.32180814537E+03  0.64154643670E+03  0.00000000000E+00 0. -1.
         -4    1    5    5    0  503  0.11799643464E+03 -0.25702714133E+03  0.18592251650E+03  0.33845722346E+03  0.00000000000E+00 0.  1.
         -3    1    6    6    0  502 -0.35145912013E+02  0.46707551033E+02  0.22261283138E+01  0.58496034925E+02  0.00000000000E+00 0.  1.
<mgrwt>
<rscale>  0 0.24897565E+04</rscale>
<asrwt>0</asrwt>
<pdfrwt beam="1">  1        1 0.24557574E+00 0.24897565E+04</pdfrwt>
<pdfrwt beam="2">  1       -1 0.14936250E+00 0.24897565E+04</pdfrwt>
<totfact> 0.17616544E+00</totfact>
</mgrwt>
</event>
<event>
12    1  0.1960998E-007  0.1864134E+04  0.7818608E-02  0.8672918E-01
         -2   -1    0    0    0  501 -0.00000000000E+00  0.00000000000E+00  0.72672231177E+03  0.72672231177E+03  0.00000000000E+00 0.  1.
          2   -1    0    0  501    0  0.00000000000E+00 -0.00000000000E+00 -0.11954349338E+04  0.11954349338E+04  0.00000000000E+00 0. -1.
         23    2    1    2    0    0  0.63231550079E+03 -0.84301076703E+02 -0.54717815660E+03  0.84531650144E+03  0.90699991582E+02 0.  0.
        254    2    1    2    0    0 -0.63231550079E+03  0.84301076703E+02  0.78465534574E+02  0.10768407441E+04  0.86400207408E+03 0.  0.
        -24    2    4    4    0    0 -0.97300428398E+02  0.30594615609E+03  0.30375199728E+03  0.45018016504E+03  0.85594867547E+02 0.  0.
         24    2    4    4    0    0 -0.53501507240E+03 -0.22164507939E+03 -0.22528646271E+03  0.62666057908E+03  0.81128430189E+02 0.  0.
         13    1    3    3    0    0  0.60330652023E+03 -0.85859296036E+02 -0.54252664635E+03  0.81589566616E+03  0.00000000000E+00 0. -1.
        -13    1    3    3    0    0  0.29008980562E+02  0.15582193335E+01 -0.46515102513E+01  0.29420835276E+02  0.00000000000E+00 0.  1.
          4    1    6    6  502    0 -0.45868334038E+03 -0.21734863288E+03 -0.20622046259E+03  0.54786651124E+03  0.00000000000E+00 0. -1.
          1    1    5    5  503    0 -0.79929161961E+02  0.17090682072E+03  0.22210035924E+03  0.29142131335E+03  0.00000000000E+00 0. -1.
         -2    1    5    5    0  503 -0.17371266437E+02  0.13503933538E+03  0.81651638045E+02  0.15875885170E+03  0.00000000000E+00 0.  1.
         -3    1    6    6    0  502 -0.76331732021E+02 -0.42964465147E+01 -0.19066000124E+02  0.78794067840E+02  0.00000000000E+00 0.  1.
<mgrwt>
<rscale>  0 0.18641344E+04</rscale>
<asrwt>0</asrwt>
<pdfrwt beam="1">  1        2 0.18391307E+00 0.18641344E+04</pdfrwt>
<pdfrwt beam="2">  1       -2 0.11180343E+00 0.18641344E+04</pdfrwt>
<totfact> 0.11308985E+01</totfact>
</mgrwt>
</event>
<event>
12    1  0.1960998E-007  0.2931275E+04  0.7818608E-02  0.8263633E-01
         -2   -1    0    0    0  501 -0.00000000000E+00  0.00000000000E+00  0.11464147664E+04  0.11464147664E+04  0.00000000000E+00 0.  1.
          2   -1    0    0  501    0  0.00000000000E+00 -0.00000000000E+00 -0.18737485353E+04  0.18737485353E+04  0.00000000000E+00 0. -1.
         23    2    1    2    0    0 -0.87918380872E+03 -0.29193395642E+03  0.64698235490E+03  0.11336374765E+04  0.91422952597E+02 0.  0.
        254    2    1    2    0    0  0.87918380872E+03  0.29193395642E+03 -0.13743161239E+04  0.18865258251E+04  0.90113554815E+03 0.  0.
        -24    2    4    4    0    0  0.44355500013E+03 -0.26441267621E+03 -0.31356335099E+03  0.60939025807E+03  0.79871209244E+02 0.  0.
         24    2    4    4    0    0  0.43562880859E+03  0.55634663263E+03 -0.10607527729E+04  0.12771355671E+04  0.81146638608E+02 0.  0.
         11    1    3    3    0    0 -0.15327788209E+03 -0.83431058136E+02  0.10023941501E+03  0.20125305196E+03  0.00000000000E+00 0. -1.
        -11    1    3    3    0    0 -0.72590592663E+03 -0.20850289828E+03  0.54674293988E+03  0.93238442459E+03  0.00000000000E+00 0.  1.
          4    1    6    6  502    0  0.25803548791E+03  0.38316064988E+03 -0.72564297849E+03  0.86020470172E+03  0.00000000000E+00 0. -1.
          3    1    5    5  503    0  0.32581375298E+03 -0.17701691250E+03 -0.18502826974E+03  0.41439721228E+03  0.00000000000E+00 0. -1.
         -4    1    5    5    0  503  0.11774124715E+03 -0.87395763712E+02 -0.12853508125E+03  0.19499304579E+03  0.00000000000E+00 0.  1.
         -3    1    6    6    0  502  0.17759332068E+03  0.17318598276E+03 -0.33510979442E+03  0.41693086536E+03  0.00000000000E+00 0.  1.
<mgrwt>
<rscale>  0 0.29312748E+04</rscale>
<asrwt>0</asrwt>
<pdfrwt beam="1">  1        2 0.28826900E+00 0.29312748E+04</pdfrwt>
<pdfrwt beam="2">  1       -2 0.17637150E+00 0.29312748E+04</pdfrwt>
<totfact> 0.12992592E+00</totfact>
</mgrwt>
</event>
<event>
12    1  0.1960998E-007  0.3155627E+04  0.7818608E-02  0.8200635E-01
          3   -1    0    0  501    0  0.00000000000E+00  0.00000000000E+00  0.16600887953E+04  0.16600887953E+04  0.00000000000E+00 0. -1.
         -3   -1    0    0    0  501 -0.00000000000E+00 -0.00000000000E+00 -0.14996161214E+04  0.14996161214E+04  0.00000000000E+00 0.  1.
         23    2    1    2    0    0  0.12352979709E+04  0.60590610916E+03 -0.37761190096E+03  0.14298275745E+04  0.93449745681E+02 0.  0.
        254    2    1    2    0    0 -0.12352979709E+04 -0.60590610916E+03  0.53808457494E+03  0.17298773422E+04  0.89992072944E+03 0.  0.
        -24    2    4    4    0    0 -0.93982146556E+03  0.45597093553E+01  0.43637030161E+03  0.10392921060E+04  0.80149007355E+02 0.  0.
         24    2    4    4    0    0 -0.29547650534E+03 -0.61046581852E+03  0.10171427334E+03  0.69058523622E+03  0.81162148170E+02 0.  0.
         11    1    3    3    0    0  0.82102435473E+03  0.36069557048E+03 -0.22106028939E+03  0.92360702529E+03  0.00000000000E+00 0. -1.
        -11    1    3    3    0    0  0.41427361617E+03  0.24521053868E+03 -0.15655161157E+03  0.50622054919E+03  0.00000000000E+00 0.  1.
          4    1    6    6  502    0 -0.21767234418E+03 -0.36528285846E+03  0.49318016460E+02  0.42807135252E+03  0.00000000000E+00 0. -1.
          1    1    5    5  503    0 -0.69916447680E+03 -0.19569417426E+02  0.35295445571E+03  0.78344800435E+03  0.00000000000E+00 0. -1.
         -2    1    5    5    0  503 -0.24065698876E+03  0.24129126782E+02  0.83415845896E+02  0.25584410164E+03  0.00000000000E+00 0.  1.
         -3    1    6    6    0  502 -0.77804161161E+02 -0.24518296006E+03  0.52396256876E+02  0.26251388370E+03  0.00000000000E+00 0.  1.
<mgrwt>
<rscale>  0 0.31556273E+04</rscale>
<asrwt>0</asrwt>
<pdfrwt beam="1">  1        3 0.25539828E+00 0.31556273E+04</pdfrwt>
<pdfrwt beam="2">  1       -3 0.23071017E+00 0.31556273E+04</pdfrwt>
<totfact> 0.14295180E-02</totfact>
</mgrwt>
</event>
<event>
12    1  0.1960998E-007  0.2931012E+04  0.7818608E-02  0.8263710E-01
          2   -1    0    0  501    0  0.00000000000E+00  0.00000000000E+00  0.23504767609E+04  0.23504767609E+04  0.00000000000E+00 0. -1.
         -2   -1    0    0    0  501 -0.00000000000E+00 -0.00000000000E+00 -0.91373281731E+03  0.91373281731E+03  0.00000000000E+00 0.  1.
         23    2    1    2    0    0  0.11642423536E+04  0.33652168974E+03  0.55746253760E+02  0.12165763109E+04  0.90791903594E+02 0.  0.
        254    2    1    2    0    0 -0.11642423536E+04 -0.33652168974E+03  0.13809976898E+04  0.20476332673E+04  0.90384748304E+03 0.  0.
        -24    2    4    4    0    0 -0.77288098520E+03 -0.40003779248E+03  0.35212986978E+03  0.94221021240E+03  0.79933637954E+02 0.  0.
         24    2    4    4    0    0 -0.39136136841E+03  0.63516102733E+02  0.10288678200E+04  0.11054230549E+04  0.78696399365E+02 0.  0.
         13    1    3    3    0    0  0.51291361258E+03  0.16447606487E+03 -0.17599162032E+02  0.53892715685E+03  0.00000000000E+00 0. -1.
        -13    1    3    3    0    0  0.65132874103E+03  0.17204562487E+03  0.73345415792E+02  0.67764915402E+03  0.00000000000E+00 0.  1.
          4    1    6    6  502    0 -0.16116577522E+03  0.38584884976E+01  0.50502253860E+03  0.53012928568E+03  0.00000000000E+00 0. -1.
          3    1    5    5  503    0 -0.27713535211E+03 -0.10177146241E+03  0.12724064794E+03  0.32148346215E+03  0.00000000000E+00 0. -1.
         -4    1    5    5    0  503 -0.49574563309E+03 -0.29826633006E+03  0.22488922184E+03  0.62072675025E+03  0.00000000000E+00 0.  1.
         -3    1    6    6    0  502 -0.23019559319E+03  0.59657614236E+02  0.52384528142E+03  0.57529376924E+03  0.00000000000E+00 0.  1.
<mgrwt>
<rscale>  0 0.29310119E+04</rscale>
<asrwt>0</asrwt>
<pdfrwt beam="1">  1        2 0.36161181E+00 0.29310119E+04</pdfrwt>
<pdfrwt beam="2">  1       -2 0.14057428E+00 0.29310119E+04</pdfrwt>
<totfact> 0.12979743E+00</totfact>
</mgrwt>
</event>
<event>
12    1  0.1960998E-007  0.2272081E+04  0.7818608E-02  0.8489011E-01
          2   -1    0    0  501    0  0.00000000000E+00  0.00000000000E+00  0.77265510813E+03  0.77265510813E+03  0.00000000000E+00 0. -1.
         -2   -1    0    0    0  501 -0.00000000000E+00 -0.00000000000E+00 -0.16703287582E+04  0.16703287582E+04  0.00000000000E+00 0.  1.
         23    2    1    2    0    0 -0.38154698669E+02 -0.92616893872E+03 -0.12827680494E+03  0.94041515545E+03  0.93172108601E+02 0.  0.
        254    2    1    2    0    0  0.38154698669E+02  0.92616893872E+03 -0.76939684516E+03  0.15025687109E+04  0.89805152502E+03 0.  0.
        -24    2    4    4    0    0  0.28493318980E+03 -0.25477961788E+02 -0.11201992882E+03  0.31714136253E+03  0.78702796575E+02 0.  0.
         24    2    4    4    0    0 -0.24677849113E+03  0.95164690051E+03 -0.65737691634E+03  0.11854273484E+04  0.81007044254E+02 0.  0.
         11    1    3    3    0    0  0.25981934267E+02 -0.20042719000E+03 -0.10408127905E+02  0.20237205471E+03  0.00000000000E+00 0. -1.
        -11    1    3    3    0    0 -0.64136632936E+02 -0.72574174872E+03 -0.11786867703E+03  0.73804310074E+03  0.00000000000E+00 0.  1.
          2    1    6    6  502    0 -0.15713497818E+03  0.71735762057E+03 -0.51544494071E+03  0.89720501785E+03  0.00000000000E+00 0. -1.
          3    1    5    5  503    0  0.17967966191E+03 -0.53635034375E+02 -0.64807477588E+02  0.19839734617E+03  0.00000000000E+00 0. -1.
         -4    1    5    5    0  503  0.10525352789E+03  0.28157072587E+02 -0.47212451228E+02  0.11874401636E+03  0.00000000000E+00 0.  1.
         -1    1    6    6    0  502 -0.89643512954E+02  0.23428927994E+03 -0.14193197564E+03  0.28822233054E+03  0.00000000000E+00 0.  1.
<mgrwt>
<rscale>  0 0.22720810E+04</rscale>
<asrwt>0</asrwt>
<pdfrwt beam="1">  1        2 0.11887002E+00 0.22720810E+04</pdfrwt>
<pdfrwt beam="2">  1       -2 0.25697365E+00 0.22720810E+04</pdfrwt>
<totfact> 0.19081401E+00</totfact>
</mgrwt>
</event>
<event>
12    1  0.1960998E-007  0.1368233E+04  0.7818608E-02  0.8977140E-01
          2   -1    0    0  501    0  0.00000000000E+00  0.00000000000E+00  0.11710734137E+04  0.11710734137E+04  0.00000000000E+00 0. -1.
         -2   -1    0    0    0  501 -0.00000000000E+00 -0.00000000000E+00 -0.39964621361E+03  0.39964621361E+03  0.00000000000E+00 0.  1.
         23    2    1    2    0    0 -0.15238646679E+03 -0.36923579401E+02  0.61551423148E+03  0.64325487133E+03  0.10165664939E+03 0.  0.
        254    2    1    2    0    0  0.15238646679E+03  0.36923579401E+02  0.15591296857E+03  0.92746475594E+03  0.90072028608E+03 0.  0.
        -24    2    4    4    0    0  0.94047773789E+02 -0.34627630796E+03  0.33117888321E+03  0.49483556111E+03  0.80190489708E+02 0.  0.
         24    2    4    4    0    0  0.58338693003E+02  0.38319988736E+03 -0.17526591464E+03  0.43262919483E+03  0.78767522563E+02 0.  0.
         11    1    3    3    0    0 -0.32974891790E+02 -0.38229692751E+02  0.80086596503E+02  0.94671621069E+02  0.00000000000E+00 0.  1.
        -11    1    3    3    0    0 -0.11941157500E+03  0.13061133505E+01  0.53542763498E+03  0.54858325027E+03  0.00000000000E+00 0. -1.
          2    1    6    6  502    0  0.48062224641E+02  0.96112238653E+02 -0.60173276321E+02  0.12315990841E+03  0.00000000000E+00 0. -1.
          1    1    5    5  503    0  0.33551882186E+02 -0.43233277122E+02  0.78322824588E+02  0.95547422259E+02  0.00000000000E+00 0. -1.
         -2    1    5    5    0  503  0.60495891603E+02 -0.30304303084E+03  0.25285605862E+03  0.39928813885E+03  0.00000000000E+00 0.  1.
         -1    1    6    6    0  502  0.10276468362E+02  0.28708764871E+03 -0.11509263832E+03  0.30946928642E+03  0.00000000000E+00 0.  1.
<mgrwt>
<rscale>  0 0.13682325E+04</rscale>
<asrwt>0</asrwt>
<pdfrwt beam="1">  1        2 0.18016514E+00 0.13682325E+04</pdfrwt>
<pdfrwt beam="2">  1       -2 0.61484033E-01 0.13682325E+04</pdfrwt>
<totfact> 0.47293414E+01</totfact>
</mgrwt>
</event>
<event>
12    1  0.1960998E-007  0.1292606E+04  0.7818608E-02  0.9035449E-01
         -1   -1    0    0    0  501 -0.00000000000E+00  0.00000000000E+00  0.30165173899E+03  0.30165173899E+03  0.00000000000E+00 0.  1.
          1   -1    0    0  501    0  0.00000000000E+00 -0.00000000000E+00 -0.13847354673E+04  0.13847354673E+04  0.00000000000E+00 0. -1.
         23    2    1    2    0    0 -0.30839657055E+03 -0.53896533352E+02 -0.16997763495E+03  0.36757848907E+03  0.90599493420E+02 0.  0.
        254    2    1    2    0    0  0.30839657055E+03  0.53896533352E+02 -0.91310609338E+03  0.13188087172E+04  0.89859913968E+03 0.  0.
        -24    2    4    4    0    0  0.35560672435E+02  0.44378773273E+03 -0.32005747523E+03  0.55430504372E+03  0.81272264027E+02 0.  0.
         24    2    4    4    0    0  0.27283589812E+03 -0.38989119937E+03 -0.59304861814E+03  0.76450367351E+03  0.79401691870E+02 0.  0.
         13    1    3    3    0    0 -0.18312579863E+03 -0.45963274714E+02 -0.14855432530E+03  0.24024168729E+03  0.00000000000E+00 0. -1.
        -13    1    3    3    0    0 -0.12527077192E+03 -0.79332586381E+01 -0.21423309642E+02  0.12733680178E+03  0.00000000000E+00 0.  1.
          2    1    6    6  502    0 -0.24337529570E+01 -0.14713646131E+02 -0.34046118782E+02  0.37169244545E+02  0.00000000000E+00 0. -1.
          3    1    5    5  503    0 -0.79998931117E+01  0.34994849944E+02 -0.53207130624E+02  0.64184395001E+02  0.00000000000E+00 0. -1.
         -4    1    5    5    0  503  0.43560565547E+02  0.40879288278E+03 -0.26685034461E+03  0.49012064872E+03  0.00000000000E+00 0.  1.
         -1    1    6    6    0  502  0.27526965108E+03 -0.37517755324E+03 -0.55900249936E+03  0.72733442896E+03  0.00000000000E+00 0.  1.
<mgrwt>
<rscale>  0 0.12926065E+04</rscale>
<asrwt>0</asrwt>
<pdfrwt beam="1">  1        1 0.21303622E+00 0.12926065E+04</pdfrwt>
<pdfrwt beam="2">  1       -1 0.46407960E-01 0.12926065E+04</pdfrwt>
<totfact> 0.35779047E+01</totfact>
</mgrwt>
</event>
<event>
12    1  0.1960998E-007  0.1644615E+04  0.7818608E-02  0.8793598E-01
          1   -1    0    0  501    0  0.00000000000E+00  0.00000000000E+00  0.11912687733E+04  0.11912687733E+04  0.00000000000E+00 0. -1.
         -1   -1    0    0    0  501 -0.00000000000E+00 -0.00000000000E+00 -0.56762144550E+03  0.56762144550E+03  0.00000000000E+00 0.  1.
         23    2    1    2    0    0  0.32194747898E+02 -0.49687680414E+03  0.52123691856E+03  0.72632137394E+03  0.89060387831E+02 0.  0.
        254    2    1    2    0    0 -0.32194747898E+02  0.49687680414E+03  0.10241040920E+03  0.10325688448E+04  0.89876997452E+03 0.  0.
        -24    2    4    4    0    0  0.29289339498E+02  0.52385890331E+03  0.43324307589E+03  0.68530889430E+03  0.81625374826E+02 0.  0.
         24    2    4    4    0    0 -0.61484087396E+02 -0.26982099174E+02 -0.33083266669E+03  0.34725995052E+03  0.81430296596E+02 0.  0.
         11    1    3    3    0    0 -0.21975089006E+02 -0.32193660865E+03  0.33279122104E+03  0.46354728057E+03  0.00000000000E+00 0.  1.
        -11    1    3    3    0    0  0.54169836904E+02 -0.17494019549E+03  0.18844569752E+03  0.26277409337E+03  0.00000000000E+00 0. -1.
          4    1    6    6  502    0 -0.65891137676E+02 -0.88472066514E+01 -0.31734363695E+03  0.32423278520E+03  0.00000000000E+00 0. -1.
          3    1    5    5  503    0  0.10878516705E+02  0.50084050973E+03  0.40156682717E+03  0.64204008831E+03  0.00000000000E+00 0. -1.
         -4    1    5    5    0  503  0.18410822793E+02  0.23018393579E+02  0.31676248722E+02  0.43268805992E+02  0.00000000000E+00 0.  1.
         -3    1    6    6    0  502  0.44070502802E+01 -0.18134892523E+02 -0.13489029748E+02  0.23027165317E+02  0.00000000000E+00 0.  1.
<mgrwt>
<rscale>  0 0.16446151E+04</rscale>
<asrwt>0</asrwt>
<pdfrwt beam="1">  1        1 0.18327212E+00 0.16446151E+04</pdfrwt>
<pdfrwt beam="2">  1       -1 0.87326376E-01 0.16446151E+04</pdfrwt>
<totfact> 0.13383609E+01</totfact>
</mgrwt>
</event>
<event>
12    1  0.1960998E-007  0.1505393E+04  0.7818608E-02  0.8880875E-01
         -1   -1    0    0    0  501 -0.00000000000E+00  0.00000000000E+00  0.88826007636E+03  0.88826007636E+03  0.00000000000E+00 0.  1.
          1   -1    0    0  501    0  0.00000000000E+00 -0.00000000000E+00 -0.63782195233E+03  0.63782195233E+03  0.00000000000E+00 0. -1.
         23    2    1    2    0    0 -0.17328340630E+03  0.41061284606E+03  0.25140620579E+03  0.52402007808E+03  0.11296864026E+03 0.  0.
        254    2    1    2    0    0  0.17328340630E+03 -0.41061284606E+03 -0.96808176019E+00  0.10020619506E+04  0.89749494006E+03 0.  0.
        -24    2    4    4    0    0 -0.63405226028E+02  0.24766729399E+03 -0.10988635780E+03  0.28953183801E+03  0.79964757205E+02 0.  0.
         24    2    4    4    0    0  0.23668863233E+03 -0.65828014004E+03  0.10891827604E+03  0.71253011260E+03  0.80509124063E+02 0.  0.
         11    1    3    3    0    0  0.27651634296E+01  0.11416055048E+03  0.49449859275E+02  0.12444101413E+03  0.00000000000E+00 0. -1.
        -11    1    3    3    0    0 -0.17604856973E+03  0.29645229557E+03  0.20195634651E+03  0.39957906395E+03  0.00000000000E+00 0.  1.
          2    1    6    6  502    0  0.67385988503E+02 -0.25673581485E+03  0.72936467507E+02  0.27527055484E+03  0.00000000000E+00 0. -1.
          3    1    5    5  503    0  0.21276864265E+01  0.16134665492E+01 -0.18969186148E+02  0.19156209096E+02  0.00000000000E+00 0. -1.
         -4    1    5    5    0  503 -0.65532912455E+02  0.24605382744E+03 -0.90917171650E+02  0.27037562892E+03  0.00000000000E+00 0.  1.
         -1    1    6    6    0  502  0.16930264382E+03 -0.40154432520E+03  0.35981808530E+02  0.43725955776E+03  0.00000000000E+00 0.  1.
<mgrwt>
<rscale>  0 0.15053927E+04</rscale>
<asrwt>0</asrwt>
<pdfrwt beam="1">  1        1 0.98126454E-01 0.15053927E+04</pdfrwt>
<pdfrwt beam="2">  1       -1 0.13665540E+00 0.15053927E+04</pdfrwt>
<totfact> 0.13522358E+01</totfact>
</mgrwt>
</event>
<event>
12    1  0.1960998E-007  0.1791597E+04  0.7818608E-02  0.8710781E-01
          1   -1    0    0  501    0  0.00000000000E+00  0.00000000000E+00  0.17698981170E+04  0.17698981170E+04  0.00000000000E+00 0. -1.
         -1   -1    0    0    0  501 -0.00000000000E+00 -0.00000000000E+00 -0.45339068336E+03  0.45339068336E+03  0.00000000000E+00 0.  1.
         23    2    1    2    0    0 -0.12129466474E+03  0.57581005538E+03  0.87937259072E+03  0.10619658453E+04  0.90585250793E+02 0.  0.
        254    2    1    2    0    0  0.12129466474E+03 -0.57581005538E+03  0.43713484287E+03  0.11613229550E+04  0.90072999255E+03 0.  0.
        -24    2    4    4    0    0  0.43889288525E+03 -0.46003948443E+02  0.13283599409E+03  0.46789149973E+03  0.80831467903E+02 0.  0.
         24    2    4    4    0    0 -0.31759822051E+03 -0.52980610693E+03  0.30429884878E+03  0.69343145531E+03  0.81769512774E+02 0.  0.
         11    1    3    3    0    0 -0.73028840334E+02  0.28110985117E+03  0.51080384604E+03  0.58760235626E+03  0.00000000000E+00 0. -1.
        -11    1    3    3    0    0 -0.48265824403E+02  0.29470020421E+03  0.36856874468E+03  0.47436348902E+03  0.00000000000E+00 0.  1.
          4    1    6    6  502    0 -0.26971378990E+03 -0.45114849541E+03  0.28976958103E+03  0.60020571762E+03  0.00000000000E+00 0. -1.
          3    1    5    5  503    0  0.26961949579E+03  0.10713004180E+02  0.88080730910E+02  0.28384442240E+03  0.00000000000E+00 0. -1.
         -4    1    5    5    0  503  0.16927338946E+03 -0.56716952624E+02  0.44755263176E+02  0.18404707733E+03  0.00000000000E+00 0.  1.
         -3    1    6    6    0  502 -0.47884430613E+02 -0.78657611527E+02  0.14529267755E+02  0.93225737689E+02  0.00000000000E+00 0.  1.
<mgrwt>
<rscale>  0 0.17915974E+04</rscale>
<asrwt>0</asrwt>
<pdfrwt beam="1">  1        1 0.27229201E+00 0.17915974E+04</pdfrwt>
<pdfrwt beam="2">  1       -1 0.69752414E-01 0.17915974E+04</pdfrwt>
<totfact> 0.83810803E+00</totfact>
</mgrwt>
</event>
<event>
12    1  0.1960998E-007  0.1179984E+04  0.7818608E-02  0.9130560E-01
          2   -1    0    0  501    0  0.00000000000E+00  0.00000000000E+00  0.13726023801E+04  0.13726023801E+04  0.00000000000E+00 0. -1.
         -2   -1    0    0    0  501 -0.00000000000E+00 -0.00000000000E+00 -0.25359876450E+03  0.25359876450E+03  0.00000000000E+00 0.  1.
         23    2    1    2    0    0 -0.56046542592E+02 -0.19135375601E+03  0.73897524815E+02  0.23226587658E+03  0.93429751018E+02 0.  0.
        254    2    1    2    0    0  0.56046542592E+02  0.19135375601E+03  0.10451060908E+04  0.13939352680E+04  0.90058387478E+03 0.  0.
        -24    2    4    4    0    0  0.44886365480E+03  0.21957756490E+03  0.45383345922E+03  0.67930386842E+03  0.76131789251E+02 0.  0.
         24    2    4    4    0    0 -0.39281711221E+03 -0.28223808884E+02  0.59127263154E+03  0.71463139957E+03  0.77413470456E+02 0.  0.
         13    1    3    3    0    0 -0.39915736615E+02 -0.10560793668E+03  0.88945843326E+02  0.14372774737E+03  0.00000000000E+00 0. -1.
        -13    1    3    3    0    0 -0.16130805977E+02 -0.85745819337E+02 -0.15048318511E+02  0.88538129217E+02  0.00000000000E+00 0.  1.
          2    1    6    6  502    0 -0.27443806899E+03  0.15534502958E+02  0.39264960203E+03  0.47930291515E+03  0.00000000000E+00 0. -1.
          1    1    5    5  503    0  0.40145955468E+03  0.16744041878E+03  0.38873526402E+03  0.58337052838E+03  0.00000000000E+00 0. -1.
         -2    1    5    5    0  503  0.47404100115E+02  0.52137146114E+02  0.65098195198E+02  0.95933340037E+02  0.00000000000E+00 0.  1.
         -1    1    6    6    0  502 -0.11837904322E+03 -0.43758311842E+02  0.19862302951E+03  0.23532848442E+03  0.00000000000E+00 0.  1.
<mgrwt>
<rscale>  0 0.11799835E+04</rscale>
<asrwt>0</asrwt>
<pdfrwt beam="1">  1        2 0.21116959E+00 0.11799835E+04</pdfrwt>
<pdfrwt beam="2">  1       -2 0.39015195E-01 0.11799835E+04</pdfrwt>
<totfact> 0.91997004E+01</totfact>
</mgrwt>
</event>
<event>
12    1  0.1960998E-007  0.1120595E+04  0.7818608E-02  0.9185348E-01
         -1   -1    0    0    0  501 -0.00000000000E+00  0.00000000000E+00  0.73156839870E+03  0.73156839870E+03  0.00000000000E+00 0.  1.
          1   -1    0    0  501    0  0.00000000000E+00 -0.00000000000E+00 -0.42912349844E+03  0.42912349844E+03  0.00000000000E+00 0. -1.
         23    2    1    2    0    0  0.12467016023E+03 -0.88038964178E+02 -0.45656429369E+02  0.18366984148E+03  0.91414402924E+02 0.  0.
        254    2    1    2    0    0 -0.12467016023E+03  0.88038964178E+02  0.34810132962E+03  0.97702205567E+03  0.90005780565E+03 0.  0.
        -24    2    4    4    0    0 -0.45002545554E+03  0.26245266120E+03  0.26667287944E+03  0.59063464305E+03  0.79564734256E+02 0.  0.
         24    2    4    4    0    0  0.32535529532E+03 -0.17441369703E+03  0.81428450183E+02  0.38638741261E+03  0.79927681228E+02 0.  0.
         11    1    3    3    0    0  0.62109428850E+02 -0.71724031579E+02  0.13748168520E+02  0.95869338142E+02  0.00000000000E+00 0.  1.
        -11    1    3    3    0    0  0.62560731375E+02 -0.16314932598E+02 -0.59404597889E+02  0.87800503337E+02  0.00000000000E+00 0. -1.
          2    1    6    6  502    0  0.31405457176E+03 -0.14621365339E+03  0.67372422852E+02  0.35291323274E+03  0.00000000000E+00 0. -1.
          1    1    5    5  503    0 -0.39536286028E+03  0.21276512565E+03  0.25349723765E+03  0.51559833154E+03  0.00000000000E+00 0. -1.
         -2    1    5    5    0  503 -0.54662595259E+02  0.49687535551E+02  0.13175641787E+02  0.75036311517E+02  0.00000000000E+00 0.  1.
         -1    1    6    6    0  502  0.11300723555E+02 -0.28200043635E+02  0.14056027331E+02  0.33474179873E+02  0.00000000000E+00 0.  1.
<mgrwt>
<rscale>  0 0.11205948E+04</rscale>
<asrwt>0</asrwt>
<pdfrwt beam="1">  1        1 0.66019000E-01 0.11205948E+04</pdfrwt>
<pdfrwt beam="2">  1       -1 0.11254898E+00 0.11205948E+04</pdfrwt>
<totfact> 0.39288613E+01</totfact>
</mgrwt>
</event>
<event>
12    1  0.1960998E-007  0.1221471E+04  0.7818608E-02  0.9094268E-01
          2   -1    0    0  501    0  0.00000000000E+00  0.00000000000E+00  0.43387043432E+03  0.43387043432E+03  0.00000000000E+00 0. -1.
         -2   -1    0    0    0  501 -0.00000000000E+00 -0.00000000000E+00 -0.85969866163E+03  0.85969866163E+03  0.00000000000E+00 0.  1.
         23    2    1    2    0    0 -0.12475391095E+03  0.12674068991E+03  0.11163572116E+03  0.22993086009E+03  0.93695919913E+02 0.  0.
        254    2    1    2    0    0  0.12475391095E+03 -0.12674068991E+03 -0.53746394847E+03  0.10636382359E+04  0.90046213696E+03 0.  0.
        -24    2    4    4    0    0 -0.27391016244E+03  0.16525696682E+03  0.28567466823E-01  0.32965863472E+03  0.79612640064E+02 0.  0.
         24    2    4    4    0    0  0.39866407338E+03 -0.29199765673E+03 -0.53749251594E+03  0.73397960115E+03  0.75047819864E+02 0.  0.
         13    1    3    3    0    0 -0.13714066312E+03  0.12830891913E+03  0.10908550168E+03  0.21718744643E+03  0.00000000000E+00 0. -1.
        -13    1    3    3    0    0  0.12386752177E+02 -0.15682292217E+01  0.25502194876E+01  0.12743413664E+02  0.00000000000E+00 0.  1.
          4    1    6    6  502    0  0.42387430996E+02 -0.61025714598E+01 -0.40427330637E+02  0.58892314841E+02  0.00000000000E+00 0. -1.
          1    1    5    5  503    0 -0.79319535079E+02  0.86530326872E+02  0.18912359061E+02  0.11889812210E+03  0.00000000000E+00 0. -1.
         -2    1    5    5    0  503 -0.19459062736E+03  0.78726639949E+02 -0.18883791595E+02  0.21076051262E+03  0.00000000000E+00 0.  1.
         -3    1    6    6    0  502  0.35627664239E+03 -0.28589508527E+03 -0.49706518530E+03  0.67508728631E+03  0.00000000000E+00 0.  1.
<mgrwt>
<rscale>  0 0.12214710E+04</rscale>
<asrwt>0</asrwt>
<pdfrwt beam="1">  1        2 0.66749298E-01 0.12214710E+04</pdfrwt>
<pdfrwt beam="2">  1       -2 0.13226133E+00 0.12214710E+04</pdfrwt>
<totfact> 0.29681158E+01</totfact>
</mgrwt>
</event>
<event>
12    1  0.1960998E-007  0.1181381E+04  0.7818608E-02  0.9129312E-01
         -2   -1    0    0    0  501 -0.00000000000E+00  0.00000000000E+00  0.12914302545E+03  0.12914302545E+03  0.00000000000E+00 0.  1.
          2   -1    0    0  501    0  0.00000000000E+00 -0.00000000000E+00 -0.27017741061E+04  0.27017741061E+04  0.00000000000E+00 0. -1.
         23    2    1    2    0    0  0.80261144521E+02 -0.13489454876E+03 -0.13107109254E+03  0.22406179405E+03  0.91573280212E+02 0.  0.
        254    2    1    2    0    0 -0.80261144521E+02  0.13489454876E+03 -0.24415599881E+04  0.26068553375E+04  0.89991176482E+03 0.  0.
        -24    2    4    4    0    0 -0.22690000468E+03  0.47590574405E+03 -0.14673427101E+04  0.15612155905E+04  0.79558794626E+02 0.  0.
         24    2    4    4    0    0  0.14663886016E+03 -0.34101119529E+03 -0.97421727799E+03  0.10456397470E+04  0.80446162699E+02 0.  0.
         13    1    3    3    0    0  0.99118221826E+02 -0.11603088290E+03 -0.12355550707E+03  0.19635058190E+03  0.00000000000E+00 0.  1.
        -13    1    3    3    0    0 -0.18857077305E+02 -0.18863665859E+02 -0.75155854772E+01  0.27711212157E+02  0.00000000000E+00 0. -1.
          2    1    6    6  502    0  0.12256011700E+03 -0.20175985422E+03 -0.66507305827E+03  0.70572671332E+03  0.00000000000E+00 0. -1.
          1    1    5    5  503    0 -0.18398616241E+03  0.30639031293E+03 -0.94068843732E+03  0.10062905485E+04  0.00000000000E+00 0. -1.
         -2    1    5    5    0  503 -0.42913842262E+02  0.16951543112E+03 -0.52665427280E+03  0.55492504206E+03  0.00000000000E+00 0.  1.
         -1    1    6    6    0  502  0.24078743159E+02 -0.13925134107E+03 -0.30914421972E+03  0.33991303366E+03  0.00000000000E+00 0.  1.
<mgrwt>
<rscale>  0 0.11813810E+04</rscale>
<asrwt>0</asrwt>
<pdfrwt beam="1">  1        2 0.41565753E+00 0.11813810E+04</pdfrwt>
<pdfrwt beam="2">  1       -2 0.19868159E-01 0.11813810E+04</pdfrwt>
<totfact> 0.57153206E+01</totfact>
</mgrwt>
</event>
<event>
12    1  0.2036020E-007  0.3119183E+04  0.7818608E-02  0.8210493E-01
          1   -1    0    0  501    0  0.00000000000E+00  0.00000000000E+00  0.29745294073E+04  0.29745294073E+04  0.00000000000E+00 0. -1.
         -1   -1    0    0    0  501 -0.00000000000E+00 -0.00000000000E+00 -0.81771785012E+03  0.81771785012E+03  0.00000000000E+00 0.  1.
         23    2    1    2    0    0 -0.55272713707E+02  0.14235058855E+04  0.11131087115E+04  0.18100622879E+04  0.88827943650E+02 0.  0.
        254    2    1    2    0    0  0.55272713707E+02 -0.14235058855E+04  0.10437028456E+04  0.19821849695E+04  0.90017639636E+03 0.  0.
        -24    2    4    4    0    0 -0.22814930174E+03 -0.66178587527E+03  0.91548722541E+03  0.11553146208E+04  0.81377911563E+02 0.  0.
         24    2    4    4    0    0  0.28342201545E+03 -0.76172001019E+03  0.12821562023E+03  0.82687034874E+03  0.82036062755E+02 0.  0.
         11    1    3    3    0    0 -0.33904616103E+02  0.56141838508E+03  0.49270651971E+03  0.74772979122E+03  0.00000000000E+00 0. -1.
        -11    1    3    3    0    0 -0.21368097604E+02  0.86208750038E+03  0.62040219181E+03  0.10623324967E+04  0.00000000000E+00 0.  1.
          2    1    6    6  502    0 -0.53645513106E+01 -0.73448353181E+01  0.96274346697E+00  0.91461408035E+01  0.00000000000E+00 0. -1.
          3    1    5    5  503    0  0.19544941892E+01 -0.66222186740E+02  0.85188454662E+02  0.10791788949E+03  0.00000000000E+00 0. -1.
         -4    1    5    5    0  503 -0.23010379593E+03 -0.59556368853E+03  0.83029877075E+03  0.10473967313E+04  0.00000000000E+00 0.  1.
         -1    1    6    6    0  502  0.28878656676E+03 -0.75437517487E+03  0.12725287676E+03  0.81772420794E+03  0.00000000000E+00 0.  1.
<mgrwt>
<rscale>  0 0.31191831E+04</rscale>
<asrwt>0</asrwt>
<pdfrwt beam="1">  1        1 0.45761990E+00 0.31191831E+04</pdfrwt>
<pdfrwt beam="2">  1       -1 0.12580275E+00 0.31191831E+04</pdfrwt>
<totfact> 0.28923169E-01</totfact>
</mgrwt>
</event>
<event>
12    1  0.1960998E-007  0.1360746E+04  0.7818608E-02  0.8982733E-01
          2   -1    0    0  501    0  0.00000000000E+00  0.00000000000E+00  0.21484202914E+04  0.21484202914E+04  0.00000000000E+00 0. -1.
         -2   -1    0    0    0  501 -0.00000000000E+00 -0.00000000000E+00 -0.21546400291E+03  0.21546400291E+03  0.00000000000E+00 0.  1.
         23    2    1    2    0    0 -0.37391567296E+03 -0.27977752986E+02  0.57075139373E+03  0.68899068482E+03  0.91407467837E+02 0.  0.
        254    2    1    2    0    0  0.37391567296E+03  0.27977752986E+02  0.13622048947E+04  0.16748936095E+04  0.89948359777E+03 0.  0.
        -24    2    4    4    0    0  0.43738997259E+03 -0.35824669815E+03  0.87937659839E+03  0.10482224665E+04  0.76265671721E+02 0.  0.
         24    2    4    4    0    0 -0.63474299626E+02  0.38622445114E+03  0.48282829634E+03  0.62667114294E+03  0.79970271190E+02 0.  0.
         13    1    3    3    0    0 -0.12257784570E+03 -0.46525877760E+02  0.15721679933E+03  0.20471225549E+03  0.00000000000E+00 0.  1.
        -13    1    3    3    0    0 -0.25133782726E+03  0.18548124773E+02  0.41353459441E+03  0.48427842933E+03  0.00000000000E+00 0. -1.
          4    1    6    6  502    0 -0.93440648414E+01  0.16561633637E+03  0.26044234530E+03  0.30878195809E+03  0.00000000000E+00 0. -1.
          1    1    5    5  503    0  0.18177936530E+03 -0.14540192693E+03  0.29461676722E+03  0.37547902409E+03  0.00000000000E+00 0. -1.
         -2    1    5    5    0  503  0.25561060729E+03 -0.21284477122E+03  0.58475983118E+03  0.67274344244E+03  0.00000000000E+00 0.  1.
         -3    1    6    6    0  502 -0.54130234785E+02  0.22060811477E+03  0.22238595105E+03  0.31788918485E+03  0.00000000000E+00 0.  1.
<mgrwt>
<rscale>  0 0.13607457E+04</rscale>
<asrwt>0</asrwt>
<pdfrwt beam="1">  1        2 0.33052618E+00 0.13607457E+04</pdfrwt>
<pdfrwt beam="2">  1       -2 0.33148310E-01 0.13607457E+04</pdfrwt>
<totfact> 0.45850237E+01</totfact>
</mgrwt>
</event>
<event>
12    1  0.1960998E-007  0.3503627E+04  0.7818608E-02  0.8112931E-01
          2   -1    0    0  501    0  0.00000000000E+00  0.00000000000E+00  0.35569062003E+04  0.35569062003E+04  0.00000000000E+00 0. -1.
         -2   -1    0    0    0  501 -0.00000000000E+00 -0.00000000000E+00 -0.86278661945E+03  0.86278661945E+03  0.00000000000E+00 0.  1.
         23    2    1    2    0    0  0.25232393294E+03 -0.15450563561E+04  0.18536042832E+04  0.24279844896E+04  0.91615132242E+02 0.  0.
        254    2    1    2    0    0 -0.25232393294E+03  0.15450563561E+04  0.84051529765E+03  0.19917083301E+04  0.89976085480E+03 0.  0.
        -24    2    4    4    0    0 -0.45521565816E+02 -0.10425504747E+03  0.88463346620E+02  0.16557673002E+03  0.81538714420E+02 0.  0.
         24    2    4    4    0    0 -0.20680236713E+03  0.16493114036E+04  0.75205195103E+03  0.18261316001E+04  0.78607624586E+02 0.  0.
         13    1    3    3    0    0  0.12267692820E+03 -0.69404557439E+03  0.90385707778E+03  0.11461703648E+04  0.00000000000E+00 0.  1.
        -13    1    3    3    0    0  0.12964700474E+03 -0.85101078175E+03  0.94974720540E+03  0.12818141249E+04  0.00000000000E+00 0. -1.
          4    1    6    6  502    0  0.40814347324E+01  0.21891846412E+02  0.39003543740E+01  0.22608047528E+02  0.00000000000E+00 0. -1.
          1    1    5    5  503    0  0.23907664045E+02 -0.26293076328E+02  0.20965299900E+02  0.41260708462E+02  0.00000000000E+00 0. -1.
         -2    1    5    5    0  503 -0.69429229860E+02 -0.77961971146E+02  0.67498046720E+02  0.12431602155E+03  0.00000000000E+00 0.  1.
         -3    1    6    6    0  502 -0.21088380186E+03  0.16274195572E+04  0.74815159666E+03  0.18035235526E+04  0.00000000000E+00 0.  1.
<mgrwt>
<rscale>  0 0.35036273E+04</rscale>
<asrwt>0</asrwt>
<pdfrwt beam="1">  1        2 0.54721633E+00 0.35036273E+04</pdfrwt>
<pdfrwt beam="2">  1       -2 0.13273640E+00 0.35036273E+04</pdfrwt>
<totfact> 0.25035817E-01</totfact>
</mgrwt>
</event>
<event>
12    1  0.1960998E-007  0.2052393E+04  0.7818608E-02  0.8582510E-01
          2   -1    0    0  501    0  0.00000000000E+00  0.00000000000E+00  0.12477410724E+04  0.12477410724E+04  0.00000000000E+00 0. -1.
         -2   -1    0    0    0  501 -0.00000000000E+00 -0.00000000000E+00 -0.84398849561E+03  0.84398849561E+03  0.00000000000E+00 0.  1.
         23    2    1    2    0    0  0.68485226379E+03  0.43642350990E+03  0.27720454404E+02  0.81783645035E+03  0.92735822230E+02 0.  0.
        254    2    1    2    0    0 -0.68485226379E+03 -0.43642350990E+03  0.37603212239E+03  0.12738931177E+04  0.90659550790E+03 0.  0.
        -24    2    4    4    0    0  0.72886101292E+02  0.19756889133E+03  0.50579259218E+02  0.23078771038E+03  0.79742430468E+02 0.  0.
         24    2    4    4    0    0 -0.75773836508E+03 -0.63399240123E+03  0.32545286318E+03  0.10431054073E+04  0.77688672335E+02 0.  0.
         13    1    3    3    0    0  0.32981337460E+03  0.26506314514E+03  0.16493542169E+02  0.42344700957E+03  0.00000000000E+00 0. -1.
        -13    1    3    3    0    0  0.35503888919E+03  0.17136036476E+03  0.11226912235E+02  0.39438944079E+03  0.00000000000E+00 0.  1.
          4    1    6    6  502    0 -0.23194189900E+03 -0.23634965825E+03  0.90939355207E+02  0.34340671483E+03  0.00000000000E+00 0. -1.
          3    1    5    5  503    0 -0.94532152299E+01  0.76047560454E+02  0.31133242105E+02  0.82715618194E+02  0.00000000000E+00 0. -1.
         -4    1    5    5    0  503  0.82339316522E+02  0.12152133088E+03  0.19446017113E+02  0.14807209219E+03  0.00000000000E+00 0.  1.
         -3    1    6    6    0  502 -0.52579646609E+03 -0.39764274297E+03  0.23451350797E+03  0.69969869245E+03  0.00000000000E+00 0.  1.
<mgrwt>
<rscale>  0 0.20523929E+04</rscale>
<asrwt>0</asrwt>
<pdfrwt beam="1">  1        2 0.19196017E+00 0.20523929E+04</pdfrwt>
<pdfrwt beam="2">  1       -2 0.12984438E+00 0.20523929E+04</pdfrwt>
<totfact> 0.71512854E+00</totfact>
</mgrwt>
</event>
<event>
12    1  0.1960998E-007  0.1335661E+04  0.7818608E-02  0.9001754E-01
         -1   -1    0    0    0  501 -0.00000000000E+00  0.00000000000E+00  0.57565293787E+03  0.57565293787E+03  0.00000000000E+00 0.  1.
          1   -1    0    0  501    0  0.00000000000E+00 -0.00000000000E+00 -0.77476863426E+03  0.77476863426E+03  0.00000000000E+00 0. -1.
         23    2    1    2    0    0  0.10370328295E+03  0.22149414637E+03 -0.31035299882E+03  0.40641148622E+03  0.95064633186E+02 0.  0.
        254    2    1    2    0    0 -0.10370328295E+03 -0.22149414637E+03  0.11123730244E+03  0.94401008591E+03  0.90496810832E+03 0.  0.
        -24    2    4    4    0    0  0.13877980867E+02 -0.17493431169E+03  0.49549457400E+03  0.53166777888E+03  0.79756770744E+02 0.  0.
         24    2    4    4    0    0 -0.11758126382E+03 -0.46559834675E+02 -0.38425727156E+03  0.41234230703E+03  0.79870868381E+02 0.  0.
         11    1    3    3    0    0  0.83833869305E+02  0.80986418200E+02 -0.10555382159E+03  0.15725306619E+03  0.00000000000E+00 0.  1.
        -11    1    3    3    0    0  0.19869413645E+02  0.14050772817E+03 -0.20479917723E+03  0.24915842002E+03  0.00000000000E+00 0. -1.
          4    1    6    6  502    0 -0.12553197501E+02  0.60085052843E+01 -0.41789129645E+01  0.14530939984E+02  0.00000000000E+00 0. -1.
          1    1    5    5  503    0 -0.57264668009E+01 -0.76918888307E+02  0.11654644736E+03  0.13975829919E+03  0.00000000000E+00 0. -1.
         -2    1    5    5    0  503  0.19604447668E+02 -0.98015423386E+02  0.37894812663E+03  0.39190947969E+03  0.00000000000E+00 0.  1.
         -3    1    6    6    0  502 -0.10502806632E+03 -0.52568339959E+02 -0.38007835860E+03  0.39781136705E+03  0.00000000000E+00 0.  1.
<mgrwt>
<rscale>  0 0.13356614E+04</rscale>
<asrwt>0</asrwt>
<pdfrwt beam="1">  1        1 0.11919517E+00 0.13356614E+04</pdfrwt>
<pdfrwt beam="2">  1       -1 0.88561991E-01 0.13356614E+04</pdfrwt>
<totfact> 0.28553401E+01</totfact>
</mgrwt>
</event>
<event>
12    1  0.1960998E-007  0.1785910E+04  0.7818608E-02  0.8713829E-01
          1   -1    0    0  501    0  0.00000000000E+00  0.00000000000E+00  0.28381842160E+04  0.28381842160E+04  0.00000000000E+00 0. -1.
         -1   -1    0    0    0  501 -0.00000000000E+00 -0.00000000000E+00 -0.28094317433E+03  0.28094317433E+03  0.00000000000E+00 0.  1.
         23    2    1    2    0    0  0.87907292084E+02 -0.65517844023E+03  0.99818039086E+03  0.12007554937E+04  0.91995557007E+02 0.  0.
        254    2    1    2    0    0 -0.87907292084E+02  0.65517844023E+03  0.15590606508E+04  0.19183718966E+04  0.90138456838E+03 0.  0.
        -24    2    4    4    0    0 -0.11427576141E+03 -0.14607526106E+03  0.74955878653E+03  0.77630904405E+03  0.80127560008E+02 0.  0.
         24    2    4    4    0    0  0.26368469324E+02  0.80125370129E+03  0.80950186425E+03  0.11420628525E+04  0.79444954776E+02 0.  0.
         11    1    3    3    0    0  0.44139588297E+02 -0.22926374154E+03  0.27930182983E+03  0.36403252408E+03  0.00000000000E+00 0.  1.
        -11    1    3    3    0    0  0.43767703787E+02 -0.42591469869E+03  0.71887856103E+03  0.83672296966E+03  0.00000000000E+00 0. -1.
          2    1    6    6  502    0  0.24281758023E+02  0.49076063368E+03  0.54884509742E+03  0.73665904209E+03  0.00000000000E+00 0. -1.
          3    1    5    5  503    0 -0.11380123943E+03 -0.15442455894E+03  0.69010205251E+03  0.71626706568E+03  0.00000000000E+00 0. -1.
         -2    1    5    5    0  503 -0.47452198155E+00  0.83492978873E+01  0.59456734016E+02  0.60041978367E+02  0.00000000000E+00 0.  1.
         -1    1    6    6    0  502  0.20867113018E+01  0.31049306761E+03  0.26065676684E+03  0.40540381041E+03  0.00000000000E+00 0.  1.
<mgrwt>
<rscale>  0 0.17859098E+04</rscale>
<asrwt>0</asrwt>
<pdfrwt beam="1">  1        1 0.43664371E+00 0.17859098E+04</pdfrwt>
<pdfrwt beam="2">  1       -1 0.43222029E-01 0.17859098E+04</pdfrwt>
<totfact> 0.39131007E+00</totfact>
</mgrwt>
</event>
<event>
12    1  0.1960998E-007  0.1784728E+04  0.7818608E-02  0.8714464E-01
         -2   -1    0    0    0  501 -0.00000000000E+00  0.00000000000E+00  0.26407967830E+03  0.26407967830E+03  0.00000000000E+00 0.  1.
          2   -1    0    0  501    0  0.00000000000E+00 -0.00000000000E+00 -0.30154278115E+04  0.30154278115E+04  0.00000000000E+00 0. -1.
         23    2    1    2    0    0 -0.37717230183E+03 -0.54292187807E+03 -0.97197916141E+03  0.11790181786E+04  0.91199036419E+02 0.  0.
        254    2    1    2    0    0  0.37717230183E+03  0.54292187807E+03 -0.17793689718E+04  0.21004893112E+04  0.89937661622E+03 0.  0.
        -24    2    4    4    0    0 -0.61628626843E+02  0.24352713052E+03 -0.14429591140E+04  0.14667894380E+04  0.78972779423E+02 0.  0.
         24    2    4    4    0    0  0.43880092868E+03  0.29939474755E+03 -0.33640985780E+03  0.63369987320E+03  0.78869937235E+02 0.  0.
         13    1    3    3    0    0 -0.19014042914E+03 -0.34329471061E+03 -0.60926468097E+03  0.72471242063E+03  0.00000000000E+00 0.  1.
        -13    1    3    3    0    0 -0.18703187269E+03 -0.19962716746E+03 -0.36271448044E+03  0.45430575795E+03  0.00000000000E+00 0. -1.
          2    1    6    6  502    0  0.32183592352E+03  0.23066481967E+03 -0.28814590751E+03  0.48970673338E+03  0.00000000000E+00 0. -1.
          1    1    5    5  503    0 -0.29237493585E+02  0.87516509456E+02 -0.75509901629E+03  0.76071577797E+03  0.00000000000E+00 0. -1.
         -2    1    5    5    0  503 -0.32391133258E+02  0.15601062107E+03 -0.68786009771E+03  0.70607366005E+03  0.00000000000E+00 0.  1.
         -1    1    6    6    0  502  0.11696500516E+03  0.68729927879E+02 -0.48263950289E+02  0.14399313982E+03  0.00000000000E+00 0.  1.
<mgrwt>
<rscale>  0 0.17847277E+04</rscale>
<asrwt>0</asrwt>
<pdfrwt beam="1">  1        2 0.46391199E+00 0.17847277E+04</pdfrwt>
<pdfrwt beam="2">  1       -2 0.40627641E-01 0.17847277E+04</pdfrwt>
<totfact> 0.92701906E+00</totfact>
</mgrwt>
</event>
<event>
12    1  0.1960998E-007  0.1713761E+04  0.7818608E-02  0.8753555E-01
          1   -1    0    0  501    0  0.00000000000E+00  0.00000000000E+00  0.27886324083E+04  0.27886324083E+04  0.00000000000E+00 0. -1.
         -1   -1    0    0    0  501 -0.00000000000E+00 -0.00000000000E+00 -0.26329889026E+03  0.26329889026E+03  0.00000000000E+00 0.  1.
         23    2    1    2    0    0 -0.12100806197E+03  0.36799055978E+02  0.19959893525E+04  0.20019901501E+04  0.89408858595E+02 0.  0.
        254    2    1    2    0    0  0.12100806197E+03 -0.36799055978E+02  0.52934416549E+03  0.10499411485E+04  0.89787195530E+03 0.  0.
        -24    2    4    4    0    0  0.31268346498E+03 -0.24844257598E+03  0.61820299747E+03  0.74031987611E+03  0.80024434065E+02 0.  0.
         24    2    4    4    0    0 -0.19167540301E+03  0.21164352000E+03 -0.88858831976E+02  0.30962127235E+03  0.80230920435E+02 0.  0.
         13    1    3    3    0    0 -0.29133024961E+02 -0.47360121393E+01  0.13128927846E+03  0.13456610863E+03  0.00000000000E+00 0.  1.
        -13    1    3    3    0    0 -0.91875037012E+02  0.41535068117E+02  0.18647000741E+04  0.18674240414E+04  0.00000000000E+00 0. -1.
          4    1    6    6  502    0 -0.18655411857E+03  0.18396692594E+03 -0.58956156368E+02  0.26855557594E+03  0.00000000000E+00 0. -1.
          3    1    5    5  503    0  0.30317744241E+03 -0.23117816098E+03  0.54926092531E+03  0.66861608399E+03  0.00000000000E+00 0. -1.
         -4    1    5    5    0  503  0.95060225791E+01 -0.17264415000E+02  0.68942072162E+02  0.71703792121E+02  0.00000000000E+00 0.  1.
         -3    1    6    6    0  502 -0.51212844419E+01  0.27676594066E+02 -0.29902675607E+02  0.41065696413E+02  0.00000000000E+00 0.  1.
<mgrwt>
<rscale>  0 0.17137606E+04</rscale>
<asrwt>0</asrwt>
<pdfrwt beam="1">  1        1 0.42902035E+00 0.17137606E+04</pdfrwt>
<pdfrwt beam="2">  1       -1 0.40507524E-01 0.17137606E+04</pdfrwt>
<totfact> 0.48163941E+00</totfact>
</mgrwt>
</event>
<event>
12    1  0.1960998E-007  0.3253904E+04  0.7818608E-02  0.8174725E-01
         -2   -1    0    0    0  501 -0.00000000000E+00  0.00000000000E+00  0.11422649882E+04  0.11422649882E+04  0.00000000000E+00 0. -1.
          2   -1    0    0  501    0  0.00000000000E+00 -0.00000000000E+00 -0.23173019434E+04  0.23173019434E+04  0.00000000000E+00 0.  1.
         23    2    1    2    0    0 -0.90001170114E+03 -0.20194670890E+02  0.74353253235E+03  0.11708707153E+04  0.87571218200E+02 0.  0.
        254    2    1    2    0    0  0.90001170114E+03  0.20194670890E+02 -0.19185694876E+04  0.22886962163E+04  0.86417162931E+03 0.  0.
        -24    2    4    4    0    0 -0.96213657450E+02  0.18095469439E+03 -0.49732677725E+03  0.54371068349E+03  0.79282499166E+02 0.  0.
         24    2    4    4    0    0  0.99622535859E+03 -0.16076002350E+03 -0.14212427103E+04  0.17449855328E+04  0.82066544811E+02 0.  0.
         11    1    3    3    0    0 -0.20257657390E+03  0.26891859112E+02  0.19297973738E+03  0.28107226725E+03  0.00000000000E+00 0. -1.
        -11    1    3    3    0    0 -0.69743512725E+03 -0.47086530002E+02  0.55055279497E+03  0.88979844801E+03  0.00000000000E+00 0.  1.
          2    1    6    6  502    0  0.64223458400E+03 -0.66155731479E+02 -0.93001392777E+03  0.11321518218E+04  0.00000000000E+00 0. -1.
          1    1    5    5  503    0 -0.10183696241E+03  0.13417453104E+03 -0.33933329237E+03  0.37884120025E+03  0.00000000000E+00 0. -1.
         -2    1    5    5    0  503  0.56233049631E+01  0.46780163344E+02 -0.15799348488E+03  0.16486948324E+03  0.00000000000E+00 0.  1.
         -1    1    6    6    0  502  0.35399077459E+03 -0.94604292019E+02 -0.49122878255E+03  0.61283371103E+03  0.00000000000E+00 0.  1.
<mgrwt>
<rscale>  0 0.32539040E+04</rscale>
<asrwt>0</asrwt>
<pdfrwt beam="1">  1        2 0.35650799E+00 0.32539040E+04</pdfrwt>
<pdfrwt beam="2">  1       -2 0.17573308E+00 0.32539040E+04</pdfrwt>
<totfact> 0.72141232E-01</totfact>
</mgrwt>
</event>
<event>
12    1  0.1960998E-007  0.1643729E+04  0.7818608E-02  0.8794125E-01
         -2   -1    0    0    0  501 -0.00000000000E+00  0.00000000000E+00  0.73897813712E+03  0.73897813712E+03  0.00000000000E+00 0.  1.
          2   -1    0    0  501    0  0.00000000000E+00 -0.00000000000E+00 -0.91404729686E+03  0.91404729686E+03  0.00000000000E+00 0. -1.
         23    2    1    2    0    0 -0.42055585698E+03  0.24410046730E+02 -0.44831477724E+03  0.62191417462E+03  0.91257996290E+02 0.  0.
        254    2    1    2    0    0  0.42055585698E+03 -0.24410046730E+02  0.27324561750E+03  0.10311112594E+04  0.90059101842E+03 0.  0.
        -24    2    4    4    0    0 -0.85494162143E+01 -0.39369529851E+03  0.21945384417E+03  0.45700784422E+03  0.75013994563E+02 0.  0.
         24    2    4    4    0    0  0.42910527319E+03  0.36928525178E+03  0.53791773334E+02  0.57410341513E+03  0.78728925597E+02 0.  0.
         11    1    3    3    0    0 -0.69304094116E+02 -0.25638148211E+02 -0.54318968040E+02  0.91711081086E+02  0.00000000000E+00 0.  1.
        -11    1    3    3    0    0 -0.35125176286E+03  0.50048194942E+02 -0.39399580920E+03  0.53020309354E+03  0.00000000000E+00 0. -1.
          4    1    6    6  502    0  0.26820878357E+03  0.22358553094E+03 -0.50163508504E+01  0.34921569983E+03  0.00000000000E+00 0. -1.
          1    1    5    5  503    0  0.11152816146E+01 -0.20703663897E+03  0.15736602641E+03  0.26005668612E+03  0.00000000000E+00 0. -1.
         -2    1    5    5    0  503 -0.96646978289E+01 -0.18665865954E+03  0.62087817755E+02  0.19695115810E+03  0.00000000000E+00 0.  1.
         -3    1    6    6    0  502  0.16089648962E+03  0.14569972083E+03  0.58808124184E+02  0.22488771530E+03  0.00000000000E+00 0.  1.
<mgrwt>
<rscale>  0 0.16437286E+04</rscale>
<asrwt>0</asrwt>
<pdfrwt beam="1">  1        2 0.14062266E+00 0.16437286E+04</pdfrwt>
<pdfrwt beam="2">  1       -2 0.11368894E+00 0.16437286E+04</pdfrwt>
<totfact> 0.16627151E+01</totfact>
</mgrwt>
</event>
<event>
12    1  0.1960998E-007  0.1740967E+04  0.7818608E-02  0.8738338E-01
         -2   -1    0    0    0  501 -0.00000000000E+00  0.00000000000E+00  0.41802511331E+03  0.41802511331E+03  0.00000000000E+00 0.  1.
          2   -1    0    0  501    0  0.00000000000E+00 -0.00000000000E+00 -0.18126703762E+04  0.18126703762E+04  0.00000000000E+00 0. -1.
         23    2    1    2    0    0 -0.67156704648E+02  0.61373795770E+03 -0.33507835663E+03  0.70840543116E+03  0.91522926689E+02 0.  0.
        254    2    1    2    0    0  0.67156704648E+02 -0.61373795770E+03 -0.10595669063E+04  0.15222900583E+04  0.90194273056E+03 0.  0.
        -24    2    4    4    0    0  0.17017231038E+03 -0.53526594106E+03 -0.13259210904E+03  0.58251137194E+03  0.79187045519E+02 0.  0.
         24    2    4    4    0    0 -0.10301560574E+03 -0.78472016644E+02 -0.92697479722E+03  0.93977868641E+03  0.84448992476E+02 0.  0.
         13    1    3    3    0    0 -0.19384539097E+02  0.20843361833E+03 -0.65672386765E+02  0.21939278928E+03  0.00000000000E+00 0.  1.
        -13    1    3    3    0    0 -0.47772165551E+02  0.40530433937E+03 -0.26940596986E+03  0.48901264188E+03  0.00000000000E+00 0. -1.
          2    1    6    6  502    0 -0.11004595125E+02 -0.18462682947E+02 -0.35054957585E+02  0.41119603922E+02  0.00000000000E+00 0. -1.
          1    1    5    5  503    0 -0.57172706459E+01 -0.23680047120E+02  0.36723162062E+01  0.24635700144E+02  0.00000000000E+00 0. -1.
         -2    1    5    5    0  503  0.17588958103E+03 -0.51158589394E+03 -0.13626442524E+03  0.55787567179E+03  0.00000000000E+00 0.  1.
         -1    1    6    6    0  502 -0.92011010612E+02 -0.60009333696E+02 -0.89191983964E+03  0.89865908249E+03  0.00000000000E+00 0.  1.
<mgrwt>
<rscale>  0 0.17409672E+04</rscale>
<asrwt>0</asrwt>
<pdfrwt beam="1">  1        2 0.27887237E+00 0.17409672E+04</pdfrwt>
<pdfrwt beam="2">  1       -2 0.64311555E-01 0.17409672E+04</pdfrwt>
<totfact> 0.17986110E+01</totfact>
</mgrwt>
</event>
<event>
12    1  0.1960998E-007  0.1667428E+04  0.7818608E-02  0.8780163E-01
         -1   -1    0    0    0  501 -0.00000000000E+00  0.00000000000E+00  0.30131957772E+03  0.30131957772E+03  0.00000000000E+00 0.  1.
          1   -1    0    0  501    0  0.00000000000E+00 -0.00000000000E+00 -0.23067823686E+04  0.23067823686E+04  0.00000000000E+00 0. -1.
         23    2    1    2    0    0  0.11620889172E+03  0.31207537925E+03 -0.14676783170E+04  0.15078187818E+04  0.92424497273E+02 0.  0.
        254    2    1    2    0    0 -0.11620889172E+03 -0.31207537925E+03 -0.53778447385E+03  0.11002831645E+04  0.90028626165E+03 0.  0.
        -24    2    4    4    0    0  0.31423943000E+03  0.11211383959E+03 -0.13377094479E+03  0.36887781258E+03  0.82826581193E+02 0.  0.
         24    2    4    4    0    0 -0.43044832172E+03 -0.42418921883E+03 -0.40401352906E+03  0.73140535191E+03  0.80651138222E+02 0.  0.
         13    1    3    3    0    0  0.88889483421E+02  0.17476591944E+03 -0.10230646304E+04  0.10416840715E+04  0.00000000000E+00 0. -1.
        -13    1    3    3    0    0  0.27319408295E+02  0.13730945980E+03 -0.44461368662E+03  0.46613471031E+03  0.00000000000E+00 0.  1.
          4    1    6    6  502    0 -0.10199082893E+03 -0.88858726404E+02 -0.53004935954E+02  0.14528429261E+03  0.00000000000E+00 0. -1.
          3    1    5    5  503    0  0.28432257704E+02  0.99622826759E+01 -0.42201087307E+02  0.51851442836E+02  0.00000000000E+00 0. -1.
         -4    1    5    5    0  503  0.28580717230E+03  0.10215155691E+03 -0.91569857480E+02  0.31702636975E+03  0.00000000000E+00 0.  1.
         -3    1    6    6    0  502 -0.32845749279E+03 -0.33533049243E+03 -0.35100859311E+03  0.58612105930E+03  0.00000000000E+00 0.  1.
<mgrwt>
<rscale>  0 0.16674276E+04</rscale>
<asrwt>0</asrwt>
<pdfrwt beam="1">  1        1 0.35488961E+00 0.16674276E+04</pdfrwt>
<pdfrwt beam="2">  1       -1 0.46356857E-01 0.16674276E+04</pdfrwt>
<totfact> 0.81469100E+00</totfact>
</mgrwt>
</event>
<event>
12    1  0.1960998E-007  0.2159661E+04  0.7818608E-02  0.8535408E-01
          2   -1    0    0  501    0  0.00000000000E+00  0.00000000000E+00  0.31808407570E+04  0.31808407570E+04  0.00000000000E+00 0. -1.
         -2   -1    0    0    0  501 -0.00000000000E+00 -0.00000000000E+00 -0.36658055339E+03  0.36658055339E+03  0.00000000000E+00 0.  1.
         23    2    1    2    0    0  0.73776466994E+03  0.56339493338E+02  0.19730461842E+04  0.21091940163E+04  0.91199270209E+02 0.  0.
        254    2    1    2    0    0 -0.73776466994E+03 -0.56339493338E+02  0.84121401941E+03  0.14382272940E+04  0.90187908068E+03 0.  0.
        -24    2    4    4    0    0  0.43982444504E+02 -0.22697692982E+03  0.51561957809E+03  0.57060530773E+03  0.79207864519E+02 0.  0.
         24    2    4    4    0    0 -0.78174711444E+03  0.17063743648E+03  0.32559444132E+03  0.86762198631E+03  0.80687578059E+02 0.  0.
         11    1    3    3    0    0  0.53817570658E+03  0.33695363739E+02  0.13179812026E+04  0.14240234966E+04  0.00000000000E+00 0.  1.
        -11    1    3    3    0    0  0.19958896336E+03  0.22644129599E+02  0.65506498164E+03  0.68517051971E+03  0.00000000000E+00 0. -1.
          4    1    6    6  502    0 -0.36615274056E+03  0.12074721256E+03  0.14982046955E+03  0.41363497417E+03  0.00000000000E+00 0. -1.
          3    1    5    5  503    0 -0.74420290710E+01 -0.12071702091E+03  0.32041174843E+03  0.34247871680E+03  0.00000000000E+00 0. -1.
         -4    1    5    5    0  503  0.51424473575E+02 -0.10625990891E+03  0.19520782966E+03  0.22812659092E+03  0.00000000000E+00 0.  1.
         -3    1    6    6    0  502 -0.41559437388E+03  0.49890223923E+02  0.17577397176E+03  0.45398701214E+03  0.00000000000E+00 0.  1.
<mgrwt>
<rscale>  0 0.21596614E+04</rscale>
<asrwt>0</asrwt>
<pdfrwt beam="1">  1        2 0.48936010E+00 0.21596614E+04</pdfrwt>
<pdfrwt beam="2">  1       -2 0.56397010E-01 0.21596614E+04</pdfrwt>
<totfact> 0.36190007E+00</totfact>
</mgrwt>
</event>
<event>
12    1  0.1960998E-007  0.3505672E+04  0.7818608E-02  0.8112447E-01
         -2   -1    0    0    0  501 -0.00000000000E+00  0.00000000000E+00  0.10125273617E+04  0.10125273617E+04  0.00000000000E+00 0.  1.
          2   -1    0    0  501    0  0.00000000000E+00 -0.00000000000E+00 -0.30344215057E+04  0.30344215057E+04  0.00000000000E+00 0. -1.
         23    2    1    2    0    0 -0.12510701835E+04  0.34917088199E+03  0.20332984411E+03  0.13178574490E+04  0.91149995701E+02 0.  0.
        254    2    1    2    0    0  0.12510701835E+04 -0.34917088199E+03 -0.22252239881E+04  0.27290914183E+04  0.89956726471E+03 0.  0.
        -24    2    4    4    0    0  0.13518899303E+04 -0.34648219472E+03 -0.17740609059E+04  0.22586479176E+04  0.80882770850E+02 0.  0.
         24    2    4    4    0    0 -0.10081974689E+03 -0.26886872719E+01 -0.45116308214E+03  0.47044350074E+03  0.87161403750E+02 0.  0.
         13    1    3    3    0    0 -0.31809287758E+03  0.80363880964E+02  0.12325913266E+02  0.32831899164E+03  0.00000000000E+00 0. -1.
        -13    1    3    3    0    0 -0.93297730588E+03  0.26880700103E+03  0.19100393084E+03  0.98953845740E+03  0.00000000000E+00 0.  1.
          2    1    6    6  502    0 -0.39336093871E+01  0.29177298909E+02 -0.13743600911E+03  0.14055406310E+03  0.00000000000E+00 0. -1.
          3    1    5    5  503    0  0.14760997045E+03 -0.42049078314E+02 -0.23780413507E+03  0.28303292215E+03  0.00000000000E+00 0. -1.
         -4    1    5    5    0  503  0.12042799599E+04 -0.30443311641E+03 -0.15362567709E+04  0.19756149954E+04  0.00000000000E+00 0.  1.
         -3    1    6    6    0  502 -0.96886137504E+02 -0.31865986181E+02 -0.31372707303E+03  0.32988943764E+03  0.00000000000E+00 0.  1.
<mgrwt>
<rscale>  0 0.35056724E+04</rscale>
<asrwt>0</asrwt>
<pdfrwt beam="1">  1        2 0.46683407E+00 0.35056724E+04</pdfrwt>
<pdfrwt beam="2">  1       -2 0.15577344E+00 0.35056724E+04</pdfrwt>
<totfact> 0.36822460E-01</totfact>
</mgrwt>
</event>
<event>
12    1  0.1960998E-007  0.1620932E+04  0.7818608E-02  0.8807791E-01
         -2   -1    0    0    0  501 -0.00000000000E+00  0.00000000000E+00  0.14252743041E+04  0.14252743041E+04  0.00000000000E+00 0.  1.
          2   -1    0    0  501    0  0.00000000000E+00 -0.00000000000E+00 -0.46086211129E+03  0.46086211129E+03  0.00000000000E+00 0. -1.
         23    2    1    2    0    0  0.11649339362E+03 -0.53430866983E+03  0.21833903505E+03  0.59469359879E+03  0.83259094473E+02 0.  0.
        254    2    1    2    0    0 -0.11649339362E+03  0.53430866983E+03  0.74607315781E+03  0.12914428166E+04  0.90118972832E+03 0.  0.
        -24    2    4    4    0    0  0.10643155972E+03  0.56381799676E+03  0.82422034328E+02  0.58518499820E+03  0.80185285438E+02 0.  0.
         24    2    4    4    0    0 -0.22292495333E+03 -0.29509326936E+02  0.66365112348E+03  0.70625781844E+03  0.88323027637E+02 0.  0.
         13    1    3    3    0    0  0.85984419679E+02 -0.21516055013E+03  0.10795261957E+03  0.25561915193E+03  0.00000000000E+00 0.  1.
        -13    1    3    3    0    0  0.30508973940E+02 -0.31914811969E+03  0.11038641548E+03  0.33907444686E+03  0.00000000000E+00 0. -1.
          2    1    6    6  502    0 -0.40587225674E+01 -0.18455626186E+02  0.94578668952E+02  0.96447954813E+02  0.00000000000E+00 0. -1.
          3    1    5    5  503    0  0.66420124801E+02  0.42041686485E+03  0.27569923212E+02  0.42652323957E+03  0.00000000000E+00 0. -1.
         -4    1    5    5    0  503  0.40011434915E+02  0.14340113191E+03  0.54852111116E+02  0.15866175863E+03  0.00000000000E+00 0.  1.
         -1    1    6    6    0  502 -0.21886623077E+03 -0.11053700750E+02  0.56907245453E+03  0.60980986363E+03  0.00000000000E+00 0.  1.
<mgrwt>
<rscale>  0 0.16209317E+04</rscale>
<asrwt>0</asrwt>
<pdfrwt beam="1">  1        2 0.70901864E-01 0.16209317E+04</pdfrwt>
<pdfrwt beam="2">  1       -2 0.21927297E+00 0.16209317E+04</pdfrwt>
<totfact> 0.64670610E+00</totfact>
</mgrwt>
</event>
<event>
12    1  0.1960998E-007  0.2181788E+04  0.7818608E-02  0.8526047E-01
         -2   -1    0    0    0  501 -0.00000000000E+00  0.00000000000E+00  0.73907060208E+03  0.73907060208E+03  0.00000000000E+00 0.  1.
          2   -1    0    0  501    0  0.00000000000E+00 -0.00000000000E+00 -0.16101972370E+04  0.16101972370E+04  0.00000000000E+00 0. -1.
         23    2    1    2    0    0  0.21571922760E+03 -0.85301108060E+03 -0.57536261597E+03  0.10555887217E+04  0.95198323029E+02 0.  0.
        254    2    1    2    0    0 -0.21571922760E+03  0.85301108060E+03 -0.29576401895E+03  0.12936791174E+04  0.90109190158E+03 0.  0.
        -24    2    4    4    0    0  0.10429378910E+03  0.59607294609E+02 -0.40255233175E+03  0.42767919897E+03  0.80192851444E+02 0.  0.
         24    2    4    4    0    0 -0.32001301669E+03  0.79340378599E+03  0.10678831280E+03  0.86599991842E+03  0.81573380895E+02 0.  0.
         11    1    3    3    0    0  0.15535043456E+03 -0.73570206380E+03 -0.50810345854E+03  0.90750229133E+03  0.00000000000E+00 0. -1.
        -11    1    3    3    0    0  0.60368793035E+02 -0.11730901680E+03 -0.67259157431E+02  0.14808643035E+03  0.00000000000E+00 0.  1.
          4    1    6    6  502    0 -0.25647270355E+03  0.68782660609E+03  0.70075395986E+02  0.73742406310E+03  0.00000000000E+00 0. -1.
          1    1    5    5  503    0  0.10827718063E+03  0.38789967200E+02 -0.37865178510E+03  0.39573448644E+03  0.00000000000E+00 0. -1.
         -2    1    5    5    0  503 -0.39833915314E+01  0.20817327409E+02 -0.23900546650E+02  0.31944712532E+02  0.00000000000E+00 0.  1.
         -3    1    6    6    0  502 -0.63540313145E+02  0.10557717990E+03  0.36712916817E+02  0.12857585532E+03  0.00000000000E+00 0.  1.
<mgrwt>
<rscale>  0 0.21817877E+04</rscale>
<asrwt>0</asrwt>
<pdfrwt beam="1">  1        2 0.24772265E+00 0.21817877E+04</pdfrwt>
<pdfrwt beam="2">  1       -2 0.11370317E+00 0.21817877E+04</pdfrwt>
<totfact> 0.61083869E+00</totfact>
</mgrwt>
</event>
<event>
12    1  0.1960998E-007  0.1396011E+04  0.7818608E-02  0.8956711E-01
         -3   -1    0    0    0  501 -0.00000000000E+00  0.00000000000E+00  0.23414354996E+03  0.23414354996E+03  0.00000000000E+00 0.  1.
          3   -1    0    0  501    0  0.00000000000E+00 -0.00000000000E+00 -0.20808239501E+04  0.20808239501E+04  0.00000000000E+00 0. -1.
         23    2    1    2    0    0  0.12399621129E+03  0.87488675568E+02 -0.11570865508E+04  0.11705304984E+04  0.90901225605E+02 0.  0.
        254    2    1    2    0    0 -0.12399621129E+03 -0.87488675568E+02 -0.68959384929E+03  0.11444370016E+04  0.90064812495E+03 0.  0.
        -24    2    4    4    0    0  0.25558968657E+03 -0.26737460404E+03 -0.58948102428E+02  0.38252787459E+03  0.77700896365E+02 0.  0.
         24    2    4    4    0    0 -0.37958589785E+03  0.17988592847E+03 -0.63064574687E+03  0.76190912705E+03  0.79668429903E+02 0.  0.
         13    1    3    3    0    0  0.14941755131E+02  0.29610216063E+02 -0.83151238828E+02  0.89521782043E+02  0.00000000000E+00 0.  1.
        -13    1    3    3    0    0  0.10905445616E+03  0.57878459505E+02 -0.10739353120E+04  0.10810087163E+04  0.00000000000E+00 0. -1.
          4    1    6    6  502    0 -0.31987492015E+03  0.18030789805E+03 -0.55618698327E+03  0.66646444992E+03  0.00000000000E+00 0. -1.
          1    1    5    5  503    0  0.22926572079E+03 -0.19758256906E+03 -0.56566958673E+02  0.30789846238E+03  0.00000000000E+00 0. -1.
         -2    1    5    5    0  503  0.26323965781E+02 -0.69792034986E+02 -0.23811437547E+01  0.74629412215E+02  0.00000000000E+00 0.  1.
         -3    1    6    6    0  502 -0.59710977701E+02 -0.42196957508E+00 -0.74458763594E+02  0.95444677129E+02  0.00000000000E+00 0.  1.
<mgrwt>
<rscale>  0 0.13960108E+04</rscale>
<asrwt>0</asrwt>
<pdfrwt beam="1">  1        3 0.32012674E+00 0.13960108E+04</pdfrwt>
<pdfrwt beam="2">  1       -3 0.36022087E-01 0.13960108E+04</pdfrwt>
<totfact> 0.58842088E-01</totfact>
</mgrwt>
</event>
<event>
12    1  0.1960998E-007  0.2431769E+04  0.7818608E-02  0.8427705E-01
         -2   -1    0    0    0  501 -0.00000000000E+00  0.00000000000E+00  0.47105959419E+03  0.47105959419E+03  0.00000000000E+00 0.  1.
          2   -1    0    0  501    0  0.00000000000E+00 -0.00000000000E+00 -0.31384036629E+04  0.31384036629E+04  0.00000000000E+00 0. -1.
         23    2    1    2    0    0 -0.99343332117E+03 -0.10159019764E+02 -0.66200090866E+03  0.11973184964E+04  0.91177899863E+02 0.  0.
        254    2    1    2    0    0  0.99343332117E+03  0.10159019764E+02 -0.20053431600E+04  0.24121447607E+04  0.90001565973E+03 0.  0.
        -24    2    4    4    0    0  0.21321585646E+03 -0.28109009776E+03 -0.11914497152E+04  0.12450299791E+04  0.77939594595E+02 0.  0.
         24    2    4    4    0    0  0.78021746471E+03  0.29124911752E+03 -0.81389344483E+03  0.11671147816E+04  0.78543193669E+02 0.  0.
         11    1    3    3    0    0 -0.24282003847E+03 -0.23360615026E+02 -0.12347073527E+03  0.27340869022E+03  0.00000000000E+00 0.  1.
        -11    1    3    3    0    0 -0.75061328270E+03  0.13201595261E+02 -0.53853017339E+03  0.92390980617E+03  0.00000000000E+00 0. -1.
          4    1    6    6  502    0  0.33934456918E+03  0.16284706664E+03 -0.39386152005E+03  0.54479427376E+03  0.00000000000E+00 0. -1.
          1    1    5    5  503    0  0.58233901108E+02 -0.34928393529E+02 -0.17288239605E+03  0.18574041773E+03  0.00000000000E+00 0. -1.
         -2    1    5    5    0  503  0.15498195535E+03 -0.24616170423E+03 -0.10185673191E+04  0.10592895613E+04  0.00000000000E+00 0.  1.
         -3    1    6    6    0  502  0.44087289553E+03  0.12840205088E+03 -0.42003192477E+03  0.62232050787E+03  0.00000000000E+00 0.  1.
<mgrwt>
<rscale>  0 0.24317690E+04</rscale>
<asrwt>0</asrwt>
<pdfrwt beam="1">  1        2 0.48283132E+00 0.24317690E+04</pdfrwt>
<pdfrwt beam="2">  1       -2 0.72470709E-01 0.24317690E+04</pdfrwt>
<totfact> 0.21981117E+00</totfact>
</mgrwt>
</event>
<event>
12    1  0.1960998E-007  0.2475727E+04  0.7818608E-02  0.8411684E-01
          1   -1    0    0  501    0  0.00000000000E+00  0.00000000000E+00  0.20026168579E+04  0.20026168579E+04  0.00000000000E+00 0. -1.
         -1   -1    0    0    0  501 -0.00000000000E+00 -0.00000000000E+00 -0.76515205415E+03  0.76515205415E+03  0.00000000000E+00 0.  1.
         23    2    1    2    0    0  0.85389495913E+03  0.38538253575E+03  0.11215435405E+04  0.14641463262E+04  0.90599399717E+02 0.  0.
        254    2    1    2    0    0 -0.85389495913E+03 -0.38538253575E+03  0.11592126316E+03  0.13036225858E+04  0.89907608506E+03 0.  0.
        -24    2    4    4    0    0 -0.66597033763E+03  0.17446657996E+03  0.13890665305E+03  0.70677679093E+03  0.79267243030E+02 0.  0.
         24    2    4    4    0    0 -0.18792462151E+03 -0.55984911571E+03 -0.22985389894E+02  0.59684579482E+03  0.83365933777E+02 0.  0.
         11    1    3    3    0    0  0.13124836670E+03  0.91896115963E+02  0.21747091452E+03  0.27011965599E+03  0.00000000000E+00 0. -1.
        -11    1    3    3    0    0  0.72264659243E+03  0.29348641979E+03  0.90407262602E+03  0.11940266703E+04  0.00000000000E+00 0.  1.
          2    1    6    6  502    0  0.42132176192E+01 -0.69430103056E+02 -0.67034168919E+01  0.69880084509E+02  0.00000000000E+00 0. -1.
          3    1    5    5  503    0 -0.12232152736E+02  0.11916890857E+01 -0.80382241004E+01  0.14685323630E+02  0.00000000000E+00 0. -1.
         -4    1    5    5    0  503 -0.65373818489E+03  0.17327489087E+03  0.14694487716E+03  0.69209146730E+03  0.00000000000E+00 0.  1.
         -1    1    6    6    0  502 -0.19213783913E+03 -0.49041901265E+03 -0.16281973002E+02  0.52696571031E+03  0.00000000000E+00 0.  1.
<mgrwt>
<rscale>  0 0.24757273E+04</rscale>
<asrwt>0</asrwt>
<pdfrwt beam="1">  1        1 0.30809490E+00 0.24757273E+04</pdfrwt>
<pdfrwt beam="2">  1       -1 0.11771570E+00 0.24757273E+04</pdfrwt>
<totfact> 0.17139982E+00</totfact>
</mgrwt>
</event>
<event>
12    1  0.1960998E-007  0.2954737E+04  0.7818608E-02  0.8256776E-01
         -1   -1    0    0    0  501 -0.00000000000E+00  0.00000000000E+00  0.10039420503E+04  0.10039420503E+04  0.00000000000E+00 0.  1.
          1   -1    0    0  501    0  0.00000000000E+00 -0.00000000000E+00 -0.21740467905E+04  0.21740467905E+04  0.00000000000E+00 0. -1.
         23    2    1    2    0    0 -0.12985837041E+04 -0.19212307829E+03 -0.24981250605E+03  0.13392994196E+04  0.89920705830E+02 0.  0.
        254    2    1    2    0    0  0.12985837041E+04  0.19212307829E+03 -0.92029223415E+03  0.18386894211E+04  0.90033886812E+03 0.  0.
        -24    2    4    4    0    0  0.33114641817E+03 -0.58513593368E+02  0.14572797033E+03  0.37531186696E+03  0.80873761338E+02 0.  0.
         24    2    4    4    0    0  0.96743728593E+03  0.25063667166E+03 -0.10660202045E+04  0.14633775542E+04  0.79505637212E+02 0.  0.
         11    1    3    3    0    0 -0.11539189789E+04 -0.18246486973E+03 -0.24806257362E+03  0.11943020887E+04  0.00000000000E+00 0. -1.
        -11    1    3    3    0    0 -0.14466472518E+03 -0.96582085570E+01 -0.17499324369E+01  0.14499733089E+03  0.00000000000E+00 0.  1.
          4    1    6    6  502    0  0.12900780426E+03  0.62045225055E+02 -0.15359854021E+03  0.20996460432E+03  0.00000000000E+00 0. -1.
          1    1    5    5  503    0  0.10905541756E+02 -0.18124337217E+02  0.19374054126E+02  0.28684079448E+02  0.00000000000E+00 0. -1.
         -2    1    5    5    0  503  0.32024087641E+03 -0.40389256152E+02  0.12635391620E+03  0.34662778751E+03  0.00000000000E+00 0.  1.
         -3    1    6    6    0  502  0.83842948167E+03  0.18859144660E+03 -0.91242166427E+03  0.12534129499E+04  0.00000000000E+00 0.  1.
<mgrwt>
<rscale>  0 0.29547365E+04</rscale>
<asrwt>0</asrwt>
<pdfrwt beam="1">  1        1 0.33446873E+00 0.29547365E+04</pdfrwt>
<pdfrwt beam="2">  1       -1 0.15445263E+00 0.29547365E+04</pdfrwt>
<totfact> 0.62461083E-01</totfact>
</mgrwt>
</event>
<event>
12    1  0.1960998E-007  0.1737107E+04  0.7818608E-02  0.8740480E-01
         -4   -1    0    0    0  501 -0.00000000000E+00  0.00000000000E+00  0.81996835249E+03  0.81996835249E+03  0.00000000000E+00 0. -1.
          4   -1    0    0  501    0  0.00000000000E+00 -0.00000000000E+00 -0.92001691818E+03  0.92001691818E+03  0.00000000000E+00 0.  1.
         23    2    1    2    0    0 -0.25740140317E+03  0.46986596473E+03  0.30099594112E+03  0.62133987224E+03  0.91843198412E+02 0.  0.
        254    2    1    2    0    0  0.25740140317E+03 -0.46986596473E+03 -0.40104450682E+03  0.11186453984E+04  0.89638235359E+03 0.  0.
        -24    2    4    4    0    0  0.13181516525E+03 -0.68443254934E+03 -0.47465090280E+03  0.84695980351E+03  0.78894086281E+02 0.  0.
         24    2    4    4    0    0  0.12558623792E+03  0.21456658461E+03  0.73606395978E+02  0.27168559493E+03  0.81144553584E+02 0.  0.
         11    1    3    3    0    0 -0.87579781484E+02  0.16133019065E+03  0.15438056274E+03  0.23985622088E+03  0.00000000000E+00 0. -1.
        -11    1    3    3    0    0 -0.16982162169E+03  0.30853577408E+03  0.14661537838E+03  0.38148365136E+03  0.00000000000E+00 0.  1.
          2    1    6    6  502    0  0.28771247371E+02  0.10642564815E+03  0.30251814828E+01  0.11028760122E+03  0.00000000000E+00 0. -1.
          3    1    5    5  503    0  0.13670397842E+02 -0.30879135747E+02 -0.43778947701E+02  0.55290117231E+02  0.00000000000E+00 0. -1.
         -4    1    5    5    0  503  0.11814476741E+03 -0.65355341359E+03 -0.43087195510E+03  0.79166968628E+03  0.00000000000E+00 0.  1.
         -1    1    6    6    0  502  0.96814990552E+02  0.10814093646E+03  0.70581214495E+02  0.16139799371E+03  0.00000000000E+00 0.  1.
<mgrwt>
<rscale>  0 0.17371065E+04</rscale>
<asrwt>0</asrwt>
<pdfrwt beam="1">  1        4 0.14154106E+00 0.17371065E+04</pdfrwt>
<pdfrwt beam="2">  1       -4 0.12614898E+00 0.17371065E+04</pdfrwt>
<totfact> 0.30781335E-01</totfact>
</mgrwt>
</event>
<event>
12    1  0.1960998E-007  0.1813554E+04  0.7818608E-02  0.8699125E-01
         -2   -1    0    0    0  501 -0.00000000000E+00  0.00000000000E+00  0.29395163434E+03  0.29395163434E+03  0.00000000000E+00 0.  1.
          2   -1    0    0  501    0  0.00000000000E+00 -0.00000000000E+00 -0.27972098521E+04  0.27972098521E+04  0.00000000000E+00 0. -1.
         23    2    1    2    0    0 -0.46187053937E+03  0.29497461499E+03 -0.26091821520E+03  0.61389319556E+03  0.91935422518E+02 0.  0.
        254    2    1    2    0    0  0.46187053937E+03 -0.29497461499E+03 -0.22423400025E+04  0.24772682908E+04  0.89913017926E+03 0.  0.
        -24    2    4    4    0    0  0.53436700257E+02 -0.49213614044E+03 -0.65725007782E+03  0.82667772348E+03  0.79780524224E+02 0.  0.
         24    2    4    4    0    0  0.40843383911E+03  0.19716152545E+03 -0.15850899247E+04  0.16505905673E+04  0.79046085332E+02 0.  0.
         13    1    3    3    0    0 -0.10513657879E+03  0.30569193964E+02 -0.73798372549E+02  0.13203929570E+03  0.00000000000E+00 0. -1.
        -13    1    3    3    0    0 -0.35673396058E+03  0.26440542102E+03 -0.18711984265E+03  0.48185389986E+03  0.00000000000E+00 0.  1.
          4    1    6    6  502    0  0.35648474644E+03  0.19703970707E+03 -0.14391645732E+04  0.14956940494E+04  0.00000000000E+00 0. -1.
          1    1    5    5  503    0  0.13506462496E+02 -0.40843261028E+03 -0.53276115351E+03  0.67144178329E+03  0.00000000000E+00 0. -1.
         -2    1    5    5    0  503  0.39930237762E+02 -0.83703530162E+02 -0.12448892431E+03  0.15523594019E+03  0.00000000000E+00 0.  1.
         -3    1    6    6    0  502  0.51949092671E+02  0.12181837984E+00 -0.14592535146E+03  0.15489651793E+03  0.00000000000E+00 0.  1.
<mgrwt>
<rscale>  0 0.18135539E+04</rscale>
<asrwt>0</asrwt>
<pdfrwt beam="1">  1        2 0.43033999E+00 0.18135539E+04</pdfrwt>
<pdfrwt beam="2">  1       -2 0.45223327E-01 0.18135539E+04</pdfrwt>
<totfact> 0.10176601E+01</totfact>
</mgrwt>
</event>
<event>
12    1  0.2257119E-007  0.1840467E+04  0.7818608E-02  0.8685071E-01
          1   -1    0    0  501    0  0.00000000000E+00  0.00000000000E+00  0.15502390772E+04  0.15502390772E+04  0.00000000000E+00 0. -1.
         -1   -1    0    0    0  501 -0.00000000000E+00 -0.00000000000E+00 -0.54625724697E+03  0.54625724697E+03  0.00000000000E+00 0.  1.
         23    2    1    2    0    0 -0.23253077935E+03 -0.47605629490E+03 -0.12863902634E+03  0.55371147510E+03  0.96686293258E+02 0.  0.
        254    2    1    2    0    0  0.23253077935E+03  0.47605629490E+03  0.11326208565E+04  0.15427848491E+04  0.90368961848E+03 0.  0.
        -24    2    4    4    0    0  0.46642644064E+03  0.14738234790E+03  0.22156746099E+03  0.54312474524E+03  0.81345977929E+02 0.  0.
         24    2    4    4    0    0 -0.23389566130E+03  0.32867394700E+03  0.91105339556E+03  0.99966010382E+03  0.81044986265E+02 0.  0.
         11    1    3    3    0    0 -0.10043927840E+03 -0.10983671221E+03 -0.25933806202E+02  0.15107850376E+03  0.00000000000E+00 0.  1.
        -11    1    3    3    0    0 -0.13209150095E+03 -0.36621958268E+03 -0.10270522013E+03  0.40263297134E+03  0.00000000000E+00 0. -1.
          4    1    6    6  502    0 -0.29679929867E+02  0.34469840966E+02  0.52856828801E+02  0.69734586283E+02  0.00000000000E+00 0. -1.
          3    1    5    5  503    0  0.34730969723E+02  0.24971455962E+01  0.39654834175E+02  0.52772927411E+02  0.00000000000E+00 0. -1.
         -4    1    5    5    0  503  0.43169547092E+03  0.14488520230E+03  0.18191262681E+03  0.49035181783E+03  0.00000000000E+00 0.  1.
         -3    1    6    6    0  502 -0.20421573143E+03  0.29420410603E+03  0.85819656676E+03  0.92992551754E+03  0.00000000000E+00 0.  1.
<mgrwt>
<rscale>  0 0.18404666E+04</rscale>
<asrwt>0</asrwt>
<pdfrwt beam="1">  1        1 0.23849832E+00 0.18404666E+04</pdfrwt>
<pdfrwt beam="2">  1       -1 0.84039577E-01 0.18404666E+04</pdfrwt>
<totfact> 0.79673431E+00</totfact>
</mgrwt>
</event>
<event>
12    1  0.1960998E-007  0.1251643E+04  0.7818608E-02  0.9068817E-01
         -1   -1    0    0    0  501 -0.00000000000E+00  0.00000000000E+00  0.73833773257E+03  0.73833773257E+03  0.00000000000E+00 0.  1.
          1   -1    0    0  501    0  0.00000000000E+00 -0.00000000000E+00 -0.53045184392E+03  0.53045184392E+03  0.00000000000E+00 0. -1.
         23    2    1    2    0    0  0.58585161784E+02  0.26470488435E+03  0.16376615101E+03  0.32755318770E+03  0.83491565904E+02 0.  0.
        254    2    1    2    0    0 -0.58585161784E+02 -0.26470488435E+03  0.44119737638E+02  0.94123638879E+03  0.90026578928E+03 0.  0.
        -24    2    4    4    0    0 -0.11119614065E+03 -0.93309938131E+01  0.43996051570E+03  0.46032447341E+03  0.76692348388E+02 0.  0.
         24    2    4    4    0    0  0.52610978865E+02 -0.25537389053E+03 -0.39584077806E+03  0.48091191538E+03  0.81256444142E+02 0.  0.
         11    1    3    3    0    0  0.20998400763E+02  0.23381853268E+03  0.14091304848E+03  0.27380380986E+03  0.00000000000E+00 0.  1.
        -11    1    3    3    0    0  0.37586761021E+02  0.30886351666E+02  0.22853102523E+02  0.53749377840E+02  0.00000000000E+00 0. -1.
          4    1    6    6  502    0  0.20194166015E+02 -0.44970759937E+02 -0.13801685444E+03  0.14655656143E+03  0.00000000000E+00 0. -1.
          1    1    5    5  503    0  0.35311263010E+01  0.17270033439E+02  0.56319092225E+02  0.59013244759E+02  0.00000000000E+00 0. -1.
         -2    1    5    5    0  503 -0.11472726695E+03 -0.26601027252E+02  0.38364142348E+03  0.40131122865E+03  0.00000000000E+00 0.  1.
         -3    1    6    6    0  502  0.32416812850E+02 -0.21040313060E+03 -0.25782392363E+03  0.33435535395E+03  0.00000000000E+00 0.  1.
<mgrwt>
<rscale>  0 0.12516431E+04</rscale>
<asrwt>0</asrwt>
<pdfrwt beam="1">  1        1 0.81607976E-01 0.12516431E+04</pdfrwt>
<pdfrwt beam="2">  1       -1 0.11359042E+00 0.12516431E+04</pdfrwt>
<totfact> 0.28469719E+01</totfact>
</mgrwt>
</event>
<event>
12    1  0.1960998E-007  0.1778142E+04  0.7818608E-02  0.8718010E-01
         -1   -1    0    0    0  501 -0.00000000000E+00  0.00000000000E+00  0.58173092047E+03  0.58173092047E+03  0.00000000000E+00 0.  1.
          1   -1    0    0  501    0  0.00000000000E+00 -0.00000000000E+00 -0.13587849162E+04  0.13587849162E+04  0.00000000000E+00 0. -1.
         23    2    1    2    0    0  0.14483527053E+03 -0.63147367191E+03 -0.17158495015E+03  0.67754095042E+03  0.99418763166E+02 0.  0.
        254    2    1    2    0    0 -0.14483527053E+03  0.63147367191E+03 -0.60546904557E+03  0.12629748862E+04  0.89932004548E+03 0.  0.
        -24    2    4    4    0    0 -0.16531956081E+03  0.59610726129E+03  0.27228136886E+02  0.62431676364E+03  0.79722178654E+02 0.  0.
         24    2    4    4    0    0  0.20484290288E+02  0.35366410622E+02 -0.63269718246E+03  0.63865812260E+03  0.76864060017E+02 0.  0.
         13    1    3    3    0    0  0.11849374000E+03 -0.35344546772E+03 -0.63851397841E+02  0.37820823110E+03  0.00000000000E+00 0. -1.
        -13    1    3    3    0    0  0.26341530522E+02 -0.27802820420E+03 -0.10773355231E+03  0.29933271931E+03  0.00000000000E+00 0.  1.
          2    1    6    6  502    0  0.76625275983E-01  0.21728311638E+02 -0.58124639881E+03  0.58165238891E+03  0.00000000000E+00 0. -1.
          3    1    5    5  503    0 -0.15039072332E+03  0.58011578828E+03  0.36834703977E+02  0.60042359455E+03  0.00000000000E+00 0. -1.
         -4    1    5    5    0  503 -0.14928837488E+02  0.15991473011E+02 -0.96065670916E+01  0.23893169089E+02  0.00000000000E+00 0.  1.
         -1    1    6    6    0  502  0.20407665012E+02  0.13638098984E+02 -0.51450783649E+02  0.57005733687E+02  0.00000000000E+00 0.  1.
<mgrwt>
<rscale>  0 0.17781420E+04</rscale>
<asrwt>0</asrwt>
<pdfrwt beam="1">  1        1 0.20904383E+00 0.17781420E+04</pdfrwt>
<pdfrwt beam="2">  1       -1 0.89497065E-01 0.17781420E+04</pdfrwt>
<totfact> 0.94979310E+00</totfact>
</mgrwt>
</event>
<event>
12    1  0.1960998E-007  0.1925873E+04  0.7818608E-02  0.8642084E-01
         -1   -1    0    0    0  501 -0.00000000000E+00  0.00000000000E+00  0.57493479874E+03  0.57493479874E+03  0.00000000000E+00 0.  1.
          1   -1    0    0  501    0  0.00000000000E+00 -0.00000000000E+00 -0.16127857267E+04  0.16127857267E+04  0.00000000000E+00 0. -1.
         23    2    1    2    0    0 -0.31391209684E+03 -0.67818070793E+03 -0.50130771517E+03  0.90436523720E+03  0.89984330874E+02 0.  0.
        254    2    1    2    0    0  0.31391209684E+03  0.67818070793E+03 -0.53654321280E+03  0.12833552883E+04  0.89479176324E+03 0.  0.
        -24    2    4    4    0    0 -0.26775354685E+03  0.44964506416E+02 -0.35746010879E+02  0.28499626697E+03  0.78938749706E+02 0.  0.
         24    2    4    4    0    0  0.58166564369E+03  0.63321620151E+03 -0.50079720192E+03  0.99835902130E+03  0.81395448595E+02 0.  0.
         11    1    3    3    0    0 -0.17952082508E+03 -0.43705059731E+03 -0.26981607952E+03  0.54409711267E+03  0.00000000000E+00 0.  1.
        -11    1    3    3    0    0 -0.13439127176E+03 -0.24113011062E+03 -0.23149163565E+03  0.36026812453E+03  0.00000000000E+00 0. -1.
          2    1    6    6  502    0  0.13378804966E+03  0.13667093037E+03 -0.15114039192E+03  0.24376546825E+03  0.00000000000E+00 0. -1.
          3    1    5    5  503    0 -0.69132824837E+02  0.40059516978E+02  0.11635333839E+02  0.80743379692E+02  0.00000000000E+00 0. -1.
         -4    1    5    5    0  503 -0.19862072201E+03  0.49049894377E+01 -0.47381344718E+02  0.20425288727E+03  0.00000000000E+00 0.  1.
         -3    1    6    6    0  502  0.44787759402E+03  0.49654527115E+03 -0.34965681000E+03  0.75459355305E+03  0.00000000000E+00 0.  1.
<mgrwt>
<rscale>  0 0.19258729E+04</rscale>
<asrwt>0</asrwt>
<pdfrwt beam="1">  1        1 0.24812088E+00 0.19258729E+04</pdfrwt>
<pdfrwt beam="2">  1       -1 0.88451508E-01 0.19258729E+04</pdfrwt>
<totfact> 0.64065999E+00</totfact>
</mgrwt>
</event>
<event>
12    1  0.1960998E-007  0.3760767E+04  0.7818608E-02  0.8054627E-01
          2   -1    0    0  501    0  0.00000000000E+00  0.00000000000E+00  0.24939928039E+04  0.24939928039E+04  0.00000000000E+00 0.  1.
         -2   -1    0    0    0  501 -0.00000000000E+00 -0.00000000000E+00 -0.14177438488E+04  0.14177438488E+04  0.00000000000E+00 0. -1.
         23    2    1    2    0    0 -0.28835298556E+03 -0.17216120642E+04  0.19738953554E+03  0.17591129314E+04  0.91761280596E+02 0.  0.
        254    2    1    2    0    0  0.28835298556E+03  0.17216120642E+04  0.87885941959E+03  0.21526237213E+04  0.90238542885E+03 0.  0.
        -24    2    4    4    0    0 -0.11606264846E+03 -0.31830636864E+02  0.16225104203E+03  0.21407797436E+03  0.70853727159E+02 0.  0.
         24    2    4    4    0    0  0.40441563402E+03  0.17534427011E+04  0.71660837755E+03  0.19385457470E+04  0.79490472520E+02 0.  0.
         11    1    3    3    0    0 -0.14341186388E+03 -0.10608703430E+04  0.91500450925E+02  0.10744231848E+04  0.00000000000E+00 0. -1.
        -11    1    3    3    0    0 -0.14494112169E+03 -0.66074172121E+03  0.10588908461E+03  0.68468974663E+03  0.00000000000E+00 0.  1.
          2    1    6    6  502    0  0.14558676381E+03  0.78946598015E+03  0.33798116622E+03  0.87102428687E+03  0.00000000000E+00 0. -1.
          1    1    5    5  503    0 -0.71996991308E+02 -0.52032746752E+02  0.12289124523E+03  0.15163519264E+03  0.00000000000E+00 0. -1.
         -2    1    5    5    0  503 -0.44065657155E+02  0.20202109888E+02  0.39359796803E+02  0.62442781719E+02  0.00000000000E+00 0.  1.
         -1    1    6    6    0  502  0.25882887022E+03  0.96397672097E+03  0.37862721133E+03  0.10675214601E+04  0.00000000000E+00 0.  1.
<mgrwt>
<rscale>  0 0.37607675E+04</rscale>
<asrwt>0</asrwt>
<pdfrwt beam="1">  1        2 0.38369120E+00 0.37607675E+04</pdfrwt>
<pdfrwt beam="2">  1       -2 0.21811444E+00 0.37607675E+04</pdfrwt>
<totfact> 0.28677137E-01</totfact>
</mgrwt>
</event>
<event>
12    1  0.1960998E-007  0.1637161E+04  0.7818608E-02  0.8798038E-01
         -2   -1    0    0    0  501 -0.00000000000E+00  0.00000000000E+00  0.51295800893E+03  0.51295800893E+03  0.00000000000E+00 0.  1.
          2   -1    0    0  501    0  0.00000000000E+00 -0.00000000000E+00 -0.13062936495E+04  0.13062936495E+04  0.00000000000E+00 0. -1.
         23    2    1    2    0    0  0.13514569392E+03 -0.52315637087E+03 -0.89472975962E+02  0.55495730678E+03  0.89527939520E+02 0.  0.
        254    2    1    2    0    0 -0.13514569392E+03  0.52315637087E+03 -0.70386266459E+03  0.12642943516E+04  0.90058903503E+03 0.  0.
        -24    2    4    4    0    0  0.25323383585E+03  0.55570921134E+03 -0.58214314346E+03  0.84778910560E+03  0.83160236337E+02 0.  0.
         24    2    4    4    0    0 -0.38837952977E+03 -0.32552840467E+02 -0.12171952113E+03  0.41650524604E+03  0.82235221113E+02 0.  0.
         11    1    3    3    0    0  0.28805564818E+02 -0.28546245002E+03 -0.36470291550E+02  0.28922076879E+03  0.00000000000E+00 0.  1.
        -11    1    3    3    0    0  0.10634012910E+03 -0.23769392085E+03 -0.53002684412E+02  0.26573653799E+03  0.00000000000E+00 0. -1.
          2    1    6    6  502    0 -0.51267684825E+01 -0.20713080536E+01 -0.17230847916E+02  0.18096303270E+02  0.00000000000E+00 0. -1.
          1    1    5    5  503    0  0.22864433789E+02  0.86672567942E+02 -0.12285693019E+03  0.15208136527E+03  0.00000000000E+00 0. -1.
         -2    1    5    5    0  503  0.23036940206E+03  0.46903664339E+03 -0.45928621327E+03  0.69570774033E+03  0.00000000000E+00 0.  1.
         -1    1    6    6    0  502 -0.38325276129E+03 -0.30481532414E+02 -0.10448867322E+03  0.39840894277E+03  0.00000000000E+00 0.  1.
<mgrwt>
<rscale>  0 0.16371607E+04</rscale>
<asrwt>0</asrwt>
<pdfrwt beam="1">  1        2 0.20096825E+00 0.16371607E+04</pdfrwt>
<pdfrwt beam="2">  1       -2 0.78916617E-01 0.16371607E+04</pdfrwt>
<totfact> 0.22342388E+01</totfact>
</mgrwt>
</event>
<event>
12    1  0.1960998E-007  0.2327119E+04  0.7818608E-02  0.8467305E-01
         -1   -1    0    0    0  501 -0.00000000000E+00  0.00000000000E+00  0.10618480924E+04  0.10618480924E+04  0.00000000000E+00 0.  1.
          1   -1    0    0  501    0  0.00000000000E+00 -0.00000000000E+00 -0.12750133864E+04  0.12750133864E+04  0.00000000000E+00 0. -1.
         23    2    1    2    0    0 -0.23927212627E+03 -0.39915346984E+03 -0.96382016147E+03  0.10743707759E+04  0.93534044538E+02 0.  0.
        254    2    1    2    0    0  0.23927212627E+03  0.39915346984E+03  0.75065486751E+03  0.12624907029E+04  0.90212272004E+03 0.  0.
        -24    2    4    4    0    0  0.45471536134E+03 -0.55628516162E+02  0.18703736199E+03  0.50268014720E+03  0.88565026738E+02 0.  0.
         24    2    4    4    0    0 -0.21544323507E+03  0.45478198601E+03  0.56361750552E+03  0.75981055574E+03  0.80030905017E+02 0.  0.
         13    1    3    3    0    0 -0.33370153281E+02 -0.35784680937E+02 -0.51726462824E+02  0.71202088986E+02  0.00000000000E+00 0.  1.
        -13    1    3    3    0    0 -0.20590197299E+03 -0.36336878891E+03 -0.91209369865E+03  0.10031686869E+04  0.00000000000E+00 0. -1.
          2    1    6    6  502    0 -0.11885340886E+03  0.33541273204E+03  0.38506120176E+03  0.52430903359E+03  0.00000000000E+00 0. -1.
          1    1    5    5  503    0  0.27178363774E+03 -0.55794279764E+02  0.72205757625E+02  0.28669324867E+03  0.00000000000E+00 0. -1.
         -2    1    5    5    0  503  0.18293172360E+03  0.16576360237E+00  0.11483160437E+03  0.21598689853E+03  0.00000000000E+00 0.  1.
         -1    1    6    6    0  502 -0.96589826217E+02  0.11936925397E+03  0.17855630376E+03  0.23550152215E+03  0.00000000000E+00 0.  1.
<mgrwt>
<rscale>  0 0.23271188E+04</rscale>
<asrwt>0</asrwt>
<pdfrwt beam="1">  1        1 0.19615591E+00 0.23271188E+04</pdfrwt>
<pdfrwt beam="2">  1       -1 0.16336124E+00 0.23271188E+04</pdfrwt>
<totfact> 0.23435719E+00</totfact>
</mgrwt>
</event>
<event>
12    1  0.1960998E-007  0.1409068E+04  0.7818608E-02  0.8947281E-01
          2   -1    0    0  501    0  0.00000000000E+00  0.00000000000E+00  0.20637063947E+04  0.20637063947E+04  0.00000000000E+00 0. -1.
         -2   -1    0    0    0  501 -0.00000000000E+00 -0.00000000000E+00 -0.24052253114E+03  0.24052253114E+03  0.00000000000E+00 0.  1.
         23    2    1    2    0    0  0.15340939803E+03 -0.37583242359E+03  0.61760738129E+03  0.74400513831E+03  0.85558835802E+02 0.  0.
        254    2    1    2    0    0 -0.15340939803E+03  0.37583242359E+03  0.12055764823E+04  0.15602237876E+04  0.90338206678E+03 0.  0.
        -24    2    4    4    0    0 -0.81551026235E+02  0.51745370435E+03  0.24705210341E+03  0.58527694398E+03  0.84293851092E+02 0.  0.
         24    2    4    4    0    0 -0.71858371792E+02 -0.14162128076E+03  0.95852437888E+03  0.97494684358E+03  0.80821718179E+02 0.  0.
         13    1    3    3    0    0  0.21727507788E+02 -0.10706232544E+03  0.22696855239E+03  0.25189114692E+03  0.00000000000E+00 0. -1.
        -13    1    3    3    0    0  0.13168189024E+03 -0.26877009815E+03  0.39063882890E+03  0.49211399139E+03  0.00000000000E+00 0.  1.
          2    1    6    6  502    0 -0.85846199138E+02 -0.13933974311E+03  0.86371852557E+03  0.87908749583E+03  0.00000000000E+00 0. -1.
          3    1    5    5  503    0 -0.96898646097E+02  0.48587735181E+03  0.22927429929E+03  0.54592385269E+03  0.00000000000E+00 0. -1.
         -4    1    5    5    0  503  0.15347619862E+02  0.31576352540E+02  0.17777804120E+02  0.39353091295E+02  0.00000000000E+00 0.  1.
         -1    1    6    6    0  502  0.13987827346E+02 -0.22815376533E+01  0.94805853309E+02  0.95859347743E+02  0.00000000000E+00 0.  1.
<mgrwt>
<rscale>  0 0.14090676E+04</rscale>
<asrwt>0</asrwt>
<pdfrwt beam="1">  1        2 0.31749328E+00 0.14090676E+04</pdfrwt>
<pdfrwt beam="2">  1       -2 0.37003468E-01 0.14090676E+04</pdfrwt>
<totfact> 0.41249966E+01</totfact>
</mgrwt>
</event>
<event>
12    1  0.1960998E-007  0.1675241E+04  0.7818608E-02  0.8775612E-01
          1   -1    0    0  501    0  0.00000000000E+00  0.00000000000E+00  0.31697177734E+03  0.31697177734E+03  0.00000000000E+00 0. -1.
         -1   -1    0    0    0  501 -0.00000000000E+00 -0.00000000000E+00 -0.22134729368E+04  0.22134729368E+04  0.00000000000E+00 0.  1.
         23    2    1    2    0    0  0.47732850790E+03 -0.18113208439E+03 -0.22808984974E+03  0.56667660865E+03  0.91902463428E+02 0.  0.
        254    2    1    2    0    0 -0.47732850790E+03  0.18113208439E+03 -0.16684113097E+04  0.19637681055E+04  0.90118673833E+03 0.  0.
        -24    2    4    4    0    0 -0.59825398205E+02  0.15468304649E+03 -0.14916278152E+04  0.15029434349E+04  0.79871811054E+02 0.  0.
         24    2    4    4    0    0 -0.41750310969E+03  0.26449037905E+02 -0.17678349449E+03  0.46082467060E+03  0.78093373000E+02 0.  0.
         11    1    3    3    0    0  0.94795244615E+02 -0.71746701702E+02 -0.32016819869E+02  0.12312109633E+03  0.00000000000E+00 0. -1.
        -11    1    3    3    0    0  0.38253326328E+03 -0.10938538269E+03 -0.19607302987E+03  0.44355551232E+03  0.00000000000E+00 0.  1.
          4    1    6    6  502    0 -0.15398521509E+02  0.61301194412E+01 -0.26131907943E+02  0.30944618947E+02  0.00000000000E+00 0. -1.
          1    1    5    5  503    0  0.97928978258E+01 -0.23386587844E+01 -0.15466509324E+03  0.15499245543E+03  0.00000000000E+00 0. -1.
         -2    1    5    5    0  503 -0.69618296031E+02  0.15702170527E+03 -0.13369627220E+04  0.13479509795E+04  0.00000000000E+00 0.  1.
         -3    1    6    6    0  502 -0.40210458818E+03  0.20318918464E+02 -0.15065158655E+03  0.42988005166E+03  0.00000000000E+00 0.  1.
<mgrwt>
<rscale>  0 0.16752414E+04</rscale>
<asrwt>0</asrwt>
<pdfrwt beam="1">  1        1 0.48764888E-01 0.16752414E+04</pdfrwt>
<pdfrwt beam="2">  1       -1 0.34053430E+00 0.16752414E+04</pdfrwt>
<totfact> 0.14005160E+00</totfact>
</mgrwt>
</event>
<event>
12    1  0.1960998E-007  0.3968785E+04  0.7818608E-02  0.8010873E-01
          2   -1    0    0  501    0  0.00000000000E+00  0.00000000000E+00  0.21676533664E+04  0.21676533664E+04  0.00000000000E+00 0. -1.
         -2   -1    0    0    0  501 -0.00000000000E+00 -0.00000000000E+00 -0.18166255846E+04  0.18166255846E+04  0.00000000000E+00 0.  1.
         23    2    1    2    0    0 -0.19276231370E+03 -0.13903854827E+04  0.14234593554E+04  0.20012560448E+04  0.91978913333E+02 0.  0.
        254    2    1    2    0    0  0.19276231370E+03  0.13903854827E+04 -0.10724315735E+04  0.19830229062E+04  0.90107783602E+03 0.  0.
        -24    2    4    4    0    0 -0.21135710310E+03  0.56357391584E+03 -0.82961261110E+03  0.10280324008E+04  0.79411264042E+02 0.  0.
         24    2    4    4    0    0  0.40411941681E+03  0.82681156686E+03 -0.24281896240E+03  0.95499050544E+03  0.78204519335E+02 0.  0.
         11    1    3    3    0    0 -0.15979052428E+03 -0.95420825971E+03  0.93300132789E+03  0.13440751067E+04  0.00000000000E+00 0.  1.
        -11    1    3    3    0    0 -0.32971789424E+02 -0.43617722300E+03  0.49045802747E+03  0.65718093815E+03  0.00000000000E+00 0. -1.
          4    1    6    6  502    0  0.22705445424E+03  0.52060240769E+03 -0.17948998782E+03  0.59564859423E+03  0.00000000000E+00 0. -1.
          3    1    5    5  503    0 -0.83975551909E+02  0.13079497341E+03 -0.19383716871E+03  0.24845938574E+03  0.00000000000E+00 0. -1.
         -4    1    5    5    0  503 -0.12738155120E+03  0.43277894243E+03 -0.63577544239E+03  0.77957301501E+03  0.00000000000E+00 0.  1.
         -1    1    6    6    0  502  0.17706496257E+03  0.30620915917E+03 -0.63328974578E+02  0.35934191121E+03  0.00000000000E+00 0.  1.
<mgrwt>
<rscale>  0 0.39687855E+04</rscale>
<asrwt>0</asrwt>
<pdfrwt beam="1">  1        2 0.33348514E+00 0.39687855E+04</pdfrwt>
<pdfrwt beam="2">  1       -2 0.27948086E+00 0.39687855E+04</pdfrwt>
<totfact> 0.18066372E-01</totfact>
</mgrwt>
</event>
<event>
12    1  0.1960998E-007  0.3082312E+04  0.7818608E-02  0.8220609E-01
          1   -1    0    0  501    0  0.00000000000E+00  0.00000000000E+00  0.11509631215E+04  0.11509631215E+04  0.00000000000E+00 0. -1.
         -1   -1    0    0    0  501 -0.00000000000E+00 -0.00000000000E+00 -0.20636300047E+04  0.20636300047E+04  0.00000000000E+00 0.  1.
         23    2    1    2    0    0 -0.13159678488E+04 -0.42846735694E+03 -0.68566024124E+03  0.15471980359E+04  0.91302469112E+02 0.  0.
        254    2    1    2    0    0  0.13159678488E+04  0.42846735694E+03 -0.22700664198E+03  0.16673950902E+04  0.90184184655E+03 0.  0.
        -24    2    4    4    0    0  0.96317641766E+03 -0.12980995310E+03 -0.40679872568E+02  0.97609326164E+03  0.80893559222E+02 0.  0.
         24    2    4    4    0    0  0.35279143117E+03  0.55827731003E+03 -0.18632676941E+03  0.69130182856E+03  0.83935715666E+02 0.  0.
         11    1    3    3    0    0 -0.90222687043E+03 -0.26130813611E+03 -0.49744745696E+03  0.10628966272E+04  0.00000000000E+00 0. -1.
        -11    1    3    3    0    0 -0.41374097840E+03 -0.16715922082E+03 -0.18821278428E+03  0.48430140871E+03  0.00000000000E+00 0.  1.
          4    1    6    6  502    0  0.18471758987E+03  0.24224579647E+03 -0.52334918284E+02  0.30909959170E+03  0.00000000000E+00 0. -1.
          3    1    5    5  503    0  0.74055699186E+03 -0.13305209823E+03 -0.39425967656E+02  0.75344669749E+03  0.00000000000E+00 0. -1.
         -4    1    5    5    0  503  0.22261942580E+03  0.32421451315E+01 -0.12539049116E+01  0.22264656414E+03  0.00000000000E+00 0.  1.
         -3    1    6    6    0  502  0.16807384130E+03  0.31603151356E+03 -0.13399185112E+03  0.38220223686E+03  0.00000000000E+00 0.  1.
<mgrwt>
<rscale>  0 0.30823121E+04</rscale>
<asrwt>0</asrwt>
<pdfrwt beam="1">  1        1 0.17707125E+00 0.30823121E+04</pdfrwt>
<pdfrwt beam="2">  1       -1 0.31748154E+00 0.30823121E+04</pdfrwt>
<totfact> 0.24942073E-01</totfact>
</mgrwt>
</event>
<event>
12    1  0.1960998E-007  0.3655093E+04  0.7818608E-02  0.8077987E-01
          1   -1    0    0  501    0  0.00000000000E+00  0.00000000000E+00  0.13581967702E+04  0.13581967702E+04  0.00000000000E+00 0. -1.
         -1   -1    0    0    0  501 -0.00000000000E+00 -0.00000000000E+00 -0.24590892781E+04  0.24590892781E+04  0.00000000000E+00 0.  1.
         23    2    1    2    0    0  0.14542658524E+04  0.77231915561E+03 -0.10210651113E+04  0.19396429917E+04  0.90966623139E+02 0.  0.
        254    2    1    2    0    0 -0.14542658524E+04 -0.77231915561E+03 -0.79827396561E+02  0.18776430566E+04  0.89877972114E+03 0.  0.
        -24    2    4    4    0    0  0.60109833419E+02  0.49251734752E+02 -0.10474077467E+03  0.15270033922E+03  0.79421900433E+02 0.  0.
         24    2    4    4    0    0 -0.15143756858E+04 -0.82157089036E+03  0.24913378110E+02  0.17249427173E+04  0.80586947606E+02 0.  0.
         11    1    3    3    0    0  0.97884430275E+01 -0.97585141381E+00 -0.17122189262E+01  0.99848683785E+01  0.00000000000E+00 0.  1.
        -11    1    3    3    0    0  0.14444774093E+04  0.77329500702E+03 -0.10193528923E+04  0.19296581234E+04  0.00000000000E+00 0. -1.
          4    1    6    6  502    0 -0.13172837919E+04 -0.70885767661E+03  0.48426638236E+02  0.14966833110E+04  0.00000000000E+00 0. -1.
          1    1    5    5  503    0  0.70181436078E+02  0.59639696730E+02 -0.71993486418E+02  0.11689905681E+03  0.00000000000E+00 0. -1.
         -2    1    5    5    0  503 -0.10071602659E+02 -0.10387961978E+02 -0.32747288253E+02  0.35801282409E+02  0.00000000000E+00 0.  1.
         -3    1    6    6    0  502 -0.19709189386E+03 -0.11271321376E+03 -0.23513260126E+02  0.22825940634E+03  0.00000000000E+00 0.  1.
<mgrwt>
<rscale>  0 0.36550935E+04</rscale>
<asrwt>0</asrwt>
<pdfrwt beam="1">  1        1 0.20895335E+00 0.36550935E+04</pdfrwt>
<pdfrwt beam="2">  1       -1 0.37832142E+00 0.36550935E+04</pdfrwt>
<totfact> 0.66460021E-02</totfact>
</mgrwt>
</event>
<event>
12    1  0.1960998E-007  0.1590806E+04  0.7818608E-02  0.8826216E-01
         -1   -1    0    0    0  501 -0.00000000000E+00  0.00000000000E+00  0.44786136436E+03  0.44786136436E+03  0.00000000000E+00 0.  1.
          1   -1    0    0  501    0  0.00000000000E+00 -0.00000000000E+00 -0.14126381618E+04  0.14126381618E+04  0.00000000000E+00 0. -1.
         23    2    1    2    0    0 -0.13509138445E+02  0.54422267918E+03 -0.29933557449E+03  0.62809266477E+03  0.92400151640E+02 0.  0.
        254    2    1    2    0    0  0.13509138445E+02 -0.54422267918E+03 -0.66544122295E+03  0.12324068614E+04  0.88298008440E+03 0.  0.
        -24    2    4    4    0    0 -0.21156047142E+03 -0.68873855369E+03 -0.61048090859E+03  0.94770767108E+03  0.79650873562E+02 0.  0.
         24    2    4    4    0    0  0.22506960987E+03  0.14451587451E+03 -0.54960314354E+02  0.28469919031E+03  0.80571865660E+02 0.  0.
         11    1    3    3    0    0 -0.19314523564E+02  0.25018087168E+03 -0.18834386471E+03  0.31374660277E+03  0.00000000000E+00 0. -1.
        -11    1    3    3    0    0  0.58053851191E+01  0.29404180750E+03 -0.11099170978E+03  0.31434606200E+03  0.00000000000E+00 0.  1.
          4    1    6    6  502    0  0.18854365387E+02  0.56872712839E+00 -0.25170790831E+02  0.31454399625E+02  0.00000000000E+00 0. -1.
          1    1    5    5  503    0 -0.15595617955E+03 -0.38031301208E+03 -0.32992888566E+03  0.52708005719E+03  0.00000000000E+00 0. -1.
         -2    1    5    5    0  503 -0.55604291868E+02 -0.30842554162E+03 -0.28055202293E+03  0.42062761389E+03  0.00000000000E+00 0.  1.
         -3    1    6    6    0  502  0.20621524448E+03  0.14394714739E+03 -0.29789523523E+02  0.25324479068E+03  0.00000000000E+00 0.  1.
<mgrwt>
<rscale>  0 0.15908062E+04</rscale>
<asrwt>0</asrwt>
<pdfrwt beam="1">  1        1 0.21732895E+00 0.15908062E+04</pdfrwt>
<pdfrwt beam="2">  1       -1 0.68901747E-01 0.15908062E+04</pdfrwt>
<totfact> 0.15405159E+01</totfact>
</mgrwt>
</event>
<event>
12    1  0.2010730E-007  0.3994364E+04  0.7818608E-02  0.8005684E-01
          2   -1    0    0  501    0  0.00000000000E+00  0.00000000000E+00  0.38065259136E+04  0.38065259136E+04  0.00000000000E+00 0. -1.
         -2   -1    0    0    0  501 -0.00000000000E+00 -0.00000000000E+00 -0.10478677795E+04  0.10478677795E+04  0.00000000000E+00 0.  1.
         23    2    1    2    0    0  0.18781266669E+04 -0.14349257141E+03  0.15590890461E+04  0.24467906581E+04  0.89866433466E+02 0.  0.
        254    2    1    2    0    0 -0.18781266669E+04  0.14349257141E+03  0.11995690879E+04  0.24076030350E+04  0.89979802303E+03 0.  0.
        -24    2    4    4    0    0 -0.61782876553E+03  0.47236562362E+03  0.41904520792E+03  0.88701838059E+03  0.79756224380E+02 0.  0.
         24    2    4    4    0    0 -0.12602979014E+04 -0.32887305220E+03  0.78052388002E+03  0.15205846544E+04  0.80323590377E+02 0.  0.
         13    1    3    3    0    0  0.76090263254E+03 -0.10240292386E+03  0.63355616067E+03  0.99541578435E+03  0.00000000000E+00 0. -1.
        -13    1    3    3    0    0  0.11172240344E+04 -0.41089647553E+02  0.92553288543E+03  0.14513748738E+04  0.00000000000E+00 0.  1.
          2    1    6    6  502    0 -0.12474669814E+04 -0.32622265375E+03  0.78095342262E+03  0.15074758167E+04  0.00000000000E+00 0. -1.
          1    1    5    5  503    0 -0.52037783242E+03  0.43106304592E+03  0.36948006331E+03  0.77014541174E+03  0.00000000000E+00 0. -1.
         -2    1    5    5    0  503 -0.97450933106E+02  0.41302577699E+02  0.49565144608E+02  0.11687296885E+03  0.00000000000E+00 0.  1.
         -1    1    6    6    0  502 -0.12830920029E+02 -0.26503984520E+01 -0.42954259755E+00  0.13108837766E+02  0.00000000000E+00 0.  1.
<mgrwt>
<rscale>  0 0.39943640E+04</rscale>
<asrwt>0</asrwt>
<pdfrwt beam="1">  1        2 0.58561936E+00 0.39943640E+04</pdfrwt>
<pdfrwt beam="2">  1       -2 0.16121043E+00 0.39943640E+04</pdfrwt>
<totfact> 0.94289338E-02</totfact>
</mgrwt>
</event>
<event>
12    1  0.1960998E-007  0.2772252E+04  0.7818608E-02  0.8311935E-01
         -2   -1    0    0    0  501 -0.00000000000E+00  0.00000000000E+00  0.19607159913E+04  0.19607159913E+04  0.00000000000E+00 0. -1.
          2   -1    0    0  501    0  0.00000000000E+00 -0.00000000000E+00 -0.97992050975E+03  0.97992050975E+03  0.00000000000E+00 0.  1.
         23    2    1    2    0    0 -0.63494083134E+03  0.63130299976E+03 -0.46781720004E+03  0.10150661751E+04  0.99060942681E+02 0.  0.
        254    2    1    2    0    0  0.63494083134E+03 -0.63130299976E+03  0.14486126816E+04  0.19255703260E+04  0.89869296321E+03 0.  0.
        -24    2    4    4    0    0 -0.17778399409E+03 -0.11652036524E+03  0.60945187876E+02  0.23511383098E+03  0.79875237254E+02 0.  0.
         24    2    4    4    0    0  0.81272482543E+03 -0.51478263452E+03  0.13876674937E+04  0.16904564950E+04  0.80618146854E+02 0.  0.
         11    1    3    3    0    0 -0.46431794067E+03  0.50523444432E+03 -0.38881339567E+03  0.78868805646E+03  0.00000000000E+00 0.  1.
        -11    1    3    3    0    0 -0.17062289067E+03  0.12606855544E+03 -0.79003804370E+02  0.22637811863E+03  0.00000000000E+00 0. -1.
          2    1    6    6  502    0  0.62152599495E+03 -0.38767078722E+03  0.11136325490E+04  0.13329518581E+04  0.00000000000E+00 0. -1.
          1    1    5    5  503    0 -0.12628074211E+03 -0.64582300739E+02  0.31173937779E+01  0.14187113004E+03  0.00000000000E+00 0. -1.
         -2    1    5    5    0  503 -0.51503251977E+02 -0.51938064501E+02  0.57827794098E+02  0.93242700940E+02  0.00000000000E+00 0.  1.
         -1    1    6    6    0  502  0.19119883048E+03 -0.12711184730E+03  0.27403494471E+03  0.35750463693E+03  0.00000000000E+00 0.  1.
<mgrwt>
<rscale>  0 0.27722524E+04</rscale>
<asrwt>0</asrwt>
<pdfrwt beam="1">  1        2 0.15075700E+00 0.27722524E+04</pdfrwt>
<pdfrwt beam="2">  1       -2 0.30164861E+00 0.27722524E+04</pdfrwt>
<totfact> 0.70287120E-01</totfact>
</mgrwt>
</event>
<event>
12    1  0.1960998E-007  0.4196577E+04  0.7818608E-02  0.7966024E-01
         -2   -1    0    0    0  501 -0.00000000000E+00  0.00000000000E+00  0.27254522422E+04  0.27254522422E+04  0.00000000000E+00 0.  1.
          2   -1    0    0  501    0  0.00000000000E+00 -0.00000000000E+00 -0.16154435039E+04  0.16154435039E+04  0.00000000000E+00 0. -1.
         23    2    1    2    0    0 -0.13083819449E+04  0.14969705890E+04  0.30489112233E+03  0.20135246320E+04  0.92404487586E+02 0.  0.
        254    2    1    2    0    0  0.13083819449E+04 -0.14969705890E+04  0.80511761603E+03  0.23273711141E+04  0.90313767997E+03 0.  0.
        -24    2    4    4    0    0  0.11462327407E+04 -0.70816698922E+03  0.33248433529E+03  0.13902074768E+04  0.82346917251E+02 0.  0.
         24    2    4    4    0    0  0.16214920414E+03 -0.78880359981E+03  0.47263328074E+03  0.93716363730E+03  0.79937360093E+02 0.  0.
         11    1    3    3    0    0 -0.59477326461E+03  0.73625176252E+03  0.17337288745E+03  0.96222661167E+03  0.00000000000E+00 0. -1.
        -11    1    3    3    0    0 -0.71360868025E+03  0.76071882651E+03  0.13151823487E+03  0.10512980204E+04  0.00000000000E+00 0.  1.
          4    1    6    6  502    0  0.16658707466E+03 -0.68044827768E+03  0.40098473980E+03  0.80718639334E+03  0.00000000000E+00 0. -1.
          1    1    5    5  503    0  0.10698240616E+04 -0.67908511673E+03  0.32461905734E+03  0.13080740235E+04  0.00000000000E+00 0. -1.
         -2    1    5    5    0  503  0.76408679153E+02 -0.29081872488E+02  0.78652779470E+01  0.82133453321E+02  0.00000000000E+00 0.  1.
         -3    1    6    6    0  502 -0.44378705193E+01 -0.10835532213E+03  0.71648540939E+02  0.12997724396E+03  0.00000000000E+00 0.  1.
<mgrwt>
<rscale>  0 0.41965768E+04</rscale>
<asrwt>0</asrwt>
<pdfrwt beam="1">  1        2 0.24852977E+00 0.41965768E+04</pdfrwt>
<pdfrwt beam="2">  1       -2 0.41930034E+00 0.41965768E+04</pdfrwt>
<totfact> 0.47035729E-02</totfact>
</mgrwt>
</event>
<event>
12    1  0.1960998E-007  0.2840234E+04  0.7818608E-02  0.8290885E-01
          1   -1    0    0  501    0  0.00000000000E+00  0.00000000000E+00  0.33387510163E+04  0.33387510163E+04  0.00000000000E+00 0. -1.
         -1   -1    0    0    0  501 -0.00000000000E+00 -0.00000000000E+00 -0.60403779011E+03  0.60403779011E+03  0.00000000000E+00 0.  1.
         23    2    1    2    0    0  0.82849058936E+03  0.17407030669E+03  0.25562107318E+04  0.26942794986E+04  0.90728073515E+02 0.  0.
        254    2    1    2    0    0 -0.82849058936E+03 -0.17407030669E+03  0.17850249445E+03  0.12485093078E+04  0.90011956025E+03 0.  0.
        -24    2    4    4    0    0 -0.63824995599E+03  0.30131924893E+03  0.36611622294E+02  0.71118040457E+03  0.79251882427E+02 0.  0.
         24    2    4    4    0    0 -0.19024063337E+03 -0.47538955562E+03  0.14189087215E+03  0.53732890320E+03  0.80016263572E+02 0.  0.
         13    1    3    3    0    0  0.46944843518E+03  0.60157307877E+02  0.15012474185E+04  0.15740853047E+04  0.00000000000E+00 0.  1.
        -13    1    3    3    0    0  0.35904215418E+03  0.11391299881E+03  0.10549633132E+04  0.11201941939E+04  0.00000000000E+00 0. -1.
          4    1    6    6  502    0 -0.19658108046E+03 -0.43506027857E+03  0.12943425780E+03  0.49464613036E+03  0.00000000000E+00 0. -1.
          3    1    5    5  503    0 -0.31918734577E+03  0.17495404772E+03 -0.14179280427E+02  0.36426711697E+03  0.00000000000E+00 0. -1.
         -4    1    5    5    0  503 -0.31906261021E+03  0.12636520121E+03  0.50790902721E+02  0.34691328760E+03  0.00000000000E+00 0.  1.
         -3    1    6    6    0  502  0.63404470863E+01 -0.40329277046E+02  0.12456614349E+02  0.42682772841E+02  0.00000000000E+00 0.  1.
<mgrwt>
<rscale>  0 0.28402336E+04</rscale>
<asrwt>0</asrwt>
<pdfrwt beam="1">  1        1 0.51365399E+00 0.28402336E+04</pdfrwt>
<pdfrwt beam="2">  1       -1 0.92928892E-01 0.28402336E+04</pdfrwt>
<totfact> 0.32357834E-01</totfact>
</mgrwt>
</event>
<event>
12    1  0.1960998E-007  0.2220488E+04  0.7818608E-02  0.8509949E-01
         -2   -1    0    0    0  501 -0.00000000000E+00  0.00000000000E+00  0.70977104581E+03  0.70977104581E+03  0.00000000000E+00 0.  1.
          2   -1    0    0  501    0  0.00000000000E+00 -0.00000000000E+00 -0.17366750009E+04  0.17366750009E+04  0.00000000000E+00 0. -1.
         23    2    1    2    0    0  0.69242723128E+03  0.19505326339E+03 -0.10634662700E+04  0.12873623718E+04  0.94021927703E+02 0.  0.
        254    2    1    2    0    0 -0.69242723128E+03 -0.19505326339E+03  0.36562314874E+02  0.11590836749E+04  0.90809521326E+03 0.  0.
        -24    2    4    4    0    0  0.17418992059E+03 -0.10040980631E+03 -0.15097192323E+03  0.26369683072E+03  0.79493643075E+02 0.  0.
         24    2    4    4    0    0 -0.86661715187E+03 -0.94643457084E+02  0.18753423811E+03  0.89538684416E+03  0.81029860886E+02 0.  0.
         13    1    3    3    0    0  0.53851864230E+03  0.18944386517E+03 -0.85867362034E+03  0.10311215701E+04  0.00000000000E+00 0. -1.
        -13    1    3    3    0    0  0.15390858898E+03  0.56093982253E+01 -0.20479264963E+03  0.25624080169E+03  0.00000000000E+00 0.  1.
          4    1    6    6  502    0 -0.60282872893E+03 -0.97861683396E+02  0.15051010667E+03  0.62899338447E+03  0.00000000000E+00 0. -1.
          1    1    5    5  503    0  0.17871507343E+03 -0.91341014125E+02 -0.12658806137E+03  0.23729052997E+03  0.00000000000E+00 0. -1.
         -2    1    5    5    0  503 -0.45251528405E+01 -0.90687921852E+01 -0.24383861863E+02  0.26406300750E+02  0.00000000000E+00 0.  1.
         -3    1    6    6    0  502 -0.26378842294E+03  0.32182263114E+01  0.37024131441E+02  0.26639345970E+03  0.00000000000E+00 0.  1.
<mgrwt>
<rscale>  0 0.22204879E+04</rscale>
<asrwt>0</asrwt>
<pdfrwt beam="1">  1        2 0.26718077E+00 0.22204879E+04</pdfrwt>
<pdfrwt beam="2">  1       -2 0.10919555E+00 0.22204879E+04</pdfrwt>
<totfact> 0.57107091E+00</totfact>
</mgrwt>
</event>
<event>
12    1  0.1960998E-007  0.2662171E+04  0.7818608E-02  0.8347384E-01
          1   -1    0    0  501    0  0.00000000000E+00  0.00000000000E+00  0.17759937897E+04  0.17759937897E+04  0.00000000000E+00 0. -1.
         -1   -1    0    0    0  501 -0.00000000000E+00 -0.00000000000E+00 -0.99763229888E+03  0.99763229888E+03  0.00000000000E+00 0.  1.
         23    2    1    2    0    0 -0.10722171351E+04  0.53741592312E+02 -0.15720454371E+03  0.10888021181E+04  0.90769158432E+02 0.  0.
        254    2    1    2    0    0  0.10722171351E+04 -0.53741592312E+02  0.93556603450E+03  0.16848239705E+04  0.90045003357E+03 0.  0.
        -24    2    4    4    0    0  0.19483399559E+02 -0.27911022769E+03  0.35584105627E+03  0.45946708893E+03  0.78771990063E+02 0.  0.
         24    2    4    4    0    0  0.10527337356E+04  0.22536863538E+03  0.57972497822E+03  0.12253568815E+04  0.79869249000E+02 0.  0.
         11    1    3    3    0    0 -0.46636928887E+03  0.23798005681E+02 -0.11392945971E+03  0.48067304945E+03  0.00000000000E+00 0.  1.
        -11    1    3    3    0    0 -0.60584784627E+03  0.29943586631E+02 -0.43275084000E+02  0.60812906863E+03  0.00000000000E+00 0. -1.
          4    1    6    6  502    0  0.10198268489E+03  0.17702687320E+02  0.30518079334E+02  0.10791295715E+03  0.00000000000E+00 0. -1.
          1    1    5    5  503    0 -0.22124936167E+02 -0.34831922829E+02  0.35231499311E+02  0.54258954948E+02  0.00000000000E+00 0. -1.
         -2    1    5    5    0  503  0.41608335726E+02 -0.24427830486E+03  0.32060955696E+03  0.40520813398E+03  0.00000000000E+00 0.  1.
         -3    1    6    6    0  502  0.95075105070E+03  0.20766594806E+03  0.54920689889E+03  0.11174439244E+04  0.00000000000E+00 0.  1.
<mgrwt>
<rscale>  0 0.26621711E+04</rscale>
<asrwt>0</asrwt>
<pdfrwt beam="1">  1        1 0.27322981E+00 0.26621711E+04</pdfrwt>
<pdfrwt beam="2">  1       -1 0.15348189E+00 0.26621711E+04</pdfrwt>
<totfact> 0.12148065E+00</totfact>
</mgrwt>
</event>
<event>
12    1  0.1960998E-007  0.1216123E+04  0.7818608E-02  0.9098860E-01
         -2   -1    0    0    0  501 -0.00000000000E+00  0.00000000000E+00  0.14225554476E+03  0.14225554476E+03  0.00000000000E+00 0.  1.
          2   -1    0    0  501    0  0.00000000000E+00 -0.00000000000E+00 -0.25991157210E+04  0.25991157210E+04  0.00000000000E+00 0. -1.
         23    2    1    2    0    0 -0.11572890021E+02 -0.24901678659E+03 -0.37229572698E+03  0.45727629743E+03  0.91401378993E+02 0.  0.
        254    2    1    2    0    0  0.11572890021E+02  0.24901678659E+03 -0.20845644493E+04  0.22840949683E+04  0.89974306854E+03 0.  0.
        -24    2    4    4    0    0 -0.34268625094E+03 -0.12683406902E+03 -0.11921326259E+04  0.12498945391E+04  0.86806758911E+02 0.  0.
         24    2    4    4    0    0  0.35425914097E+03  0.37585085561E+03 -0.89243182338E+03  0.10342004293E+04  0.79828340241E+02 0.  0.
         13    1    3    3    0    0  0.17339129926E+02 -0.66412915628E+02 -0.47245331151E+02  0.83327319076E+02  0.00000000000E+00 0.  1.
        -13    1    3    3    0    0 -0.28912019947E+02 -0.18260387096E+03 -0.32505039583E+03  0.37394897836E+03  0.00000000000E+00 0. -1.
          4    1    6    6  502    0  0.19686225105E+03  0.20556405774E+03 -0.41226331348E+03  0.50097142370E+03  0.00000000000E+00 0. -1.
          1    1    5    5  503    0 -0.94189372106E+02 -0.12096704457E+02 -0.42250932917E+03  0.43304976771E+03  0.00000000000E+00 0. -1.
         -2    1    5    5    0  503 -0.24849687884E+03 -0.11473736456E+03 -0.76962329673E+03  0.81684477135E+03  0.00000000000E+00 0.  1.
         -3    1    6    6    0  502  0.15739688991E+03  0.17028679788E+03 -0.48016850990E+03  0.53322900558E+03  0.00000000000E+00 0.  1.
<mgrwt>
<rscale>  0 0.12161227E+04</rscale>
<asrwt>0</asrwt>
<pdfrwt beam="1">  1        2 0.39986392E+00 0.12161227E+04</pdfrwt>
<pdfrwt beam="2">  1       -2 0.21885471E-01 0.12161227E+04</pdfrwt>
<totfact> 0.55141173E+01</totfact>
</mgrwt>
</event>
<event>
12    1  0.1960998E-007  0.1118114E+04  0.7818608E-02  0.9187714E-01
          1   -1    0    0  501    0  0.00000000000E+00  0.00000000000E+00  0.24941931193E+03  0.24941931193E+03  0.00000000000E+00 0. -1.
         -1   -1    0    0    0  501 -0.00000000000E+00 -0.00000000000E+00 -0.12530897272E+04  0.12530897272E+04  0.00000000000E+00 0.  1.
         23    2    1    2    0    0 -0.10516643400E+03 -0.13205354688E+03 -0.94645712317E+02  0.21335687470E+03  0.89806609102E+02 0.  0.
        254    2    1    2    0    0  0.10516643400E+03  0.13205354688E+03 -0.90902470296E+03  0.12891521644E+04  0.89838147487E+03 0.  0.
        -24    2    4    4    0    0  0.30627748566E+03  0.41540227090E+03 -0.35953003858E+03  0.63396413904E+03  0.79270019876E+02 0.  0.
         24    2    4    4    0    0 -0.20111105166E+03 -0.28334872402E+03 -0.54949466438E+03  0.65518802540E+03  0.81208422822E+02 0.  0.
         13    1    3    3    0    0 -0.16132154662E+02 -0.89430481135E+02 -0.31508933910E+02  0.96181444605E+02  0.00000000000E+00 0. -1.
        -13    1    3    3    0    0 -0.89034279340E+02 -0.42623065747E+02 -0.63136778408E+02  0.11717543010E+03  0.00000000000E+00 0.  1.
          4    1    6    6  502    0 -0.15222563225E+01 -0.44041248359E+02 -0.52042359141E+02  0.68193518506E+02  0.00000000000E+00 0. -1.
          3    1    5    5  503    0  0.12124988058E+01 -0.36300156067E+01 -0.30316389133E+01  0.48824175527E+01  0.00000000000E+00 0. -1.
         -4    1    5    5    0  503  0.30506498685E+03  0.41903228651E+03 -0.35649839967E+03  0.62908172148E+03  0.00000000000E+00 0.  1.
         -3    1    6    6    0  502 -0.19958879533E+03 -0.23930747566E+03 -0.49745230524E+03  0.58699450689E+03  0.00000000000E+00 0.  1.
<mgrwt>
<rscale>  0 0.11181141E+04</rscale>
<asrwt>0</asrwt>
<pdfrwt beam="1">  1        1 0.38372201E-01 0.11181141E+04</pdfrwt>
<pdfrwt beam="2">  1       -1 0.19278304E+00 0.11181141E+04</pdfrwt>
<totfact> 0.18765302E+01</totfact>
</mgrwt>
</event>
<event>
12    1  0.1960998E-007  0.2365735E+04  0.7818608E-02  0.8452444E-01
          1   -1    0    0  501    0  0.00000000000E+00  0.00000000000E+00  0.19038525970E+04  0.19038525970E+04  0.00000000000E+00 0. -1.
         -1   -1    0    0    0  501 -0.00000000000E+00 -0.00000000000E+00 -0.73491784949E+03  0.73491784949E+03  0.00000000000E+00 0.  1.
         23    2    1    2    0    0 -0.16704596104E+03 -0.54893153659E+03 -0.42521519333E+03  0.71994652623E+03  0.91021179006E+02 0.  0.
        254    2    1    2    0    0  0.16704596104E+03  0.54893153659E+03  0.15941499408E+04  0.19188239203E+04  0.90074470197E+03 0.  0.
        -24    2    4    4    0    0 -0.25595250533E+03 -0.33308966073E+02  0.16500404297E+03  0.31669497673E+03  0.80300696628E+02 0.  0.
         24    2    4    4    0    0  0.42299846637E+03  0.58224050266E+03  0.14291458979E+04  0.16021289435E+04  0.80171371697E+02 0.  0.
         13    1    3    3    0    0  0.47921675649E+00 -0.66428995275E+02 -0.24673425100E+02  0.70864793573E+02  0.00000000000E+00 0. -1.
        -13    1    3    3    0    0 -0.16752517779E+03 -0.48250254131E+03 -0.40054176823E+03  0.64908173266E+03  0.00000000000E+00 0.  1.
          4    1    6    6  502    0  0.10733425957E+01  0.25052253305E+02  0.44023389018E+02  0.50663855367E+02  0.00000000000E+00 0. -1.
          1    1    5    5  503    0 -0.81227632063E+01 -0.17642727842E+01  0.33208745659E+02  0.34233210904E+02  0.00000000000E+00 0. -1.
         -2    1    5    5    0  503 -0.24782974212E+03 -0.31544693288E+02  0.13179529732E+03  0.28246176582E+03  0.00000000000E+00 0.  1.
         -3    1    6    6    0  502  0.42192512377E+03  0.55718824936E+03  0.13851225089E+04  0.15514650882E+04  0.00000000000E+00 0.  1.
<mgrwt>
<rscale>  0 0.23657348E+04</rscale>
<asrwt>0</asrwt>
<pdfrwt beam="1">  1        1 0.29290040E+00 0.23657348E+04</pdfrwt>
<pdfrwt beam="2">  1       -1 0.11306428E+00 0.23657348E+04</pdfrwt>
<totfact> 0.22248697E+00</totfact>
</mgrwt>
</event>
<event>
12    1  0.1960998E-007  0.2275042E+04  0.7818608E-02  0.8487827E-01
         -1   -1    0    0    0  501 -0.00000000000E+00  0.00000000000E+00  0.92461350370E+03  0.92461350370E+03  0.00000000000E+00 0.  1.
          1   -1    0    0  501    0  0.00000000000E+00 -0.00000000000E+00 -0.13994536393E+04  0.13994536393E+04  0.00000000000E+00 0. -1.
         23    2    1    2    0    0 -0.60834568734E+02 -0.90634627360E+03 -0.50129195612E+03  0.10413849980E+04  0.89580558494E+02 0.  0.
        254    2    1    2    0    0  0.60834568734E+02  0.90634627360E+03  0.26451820482E+02  0.12826821450E+04  0.90521233634E+03 0.  0.
        -24    2    4    4    0    0 -0.34074479322E+03  0.78954654688E+02 -0.17477020704E+02  0.35838126219E+03  0.76097511347E+02 0.  0.
         24    2    4    4    0    0  0.40157936196E+03  0.82739161891E+03  0.43928841185E+02  0.92430088281E+03  0.80990764102E+02 0.  0.
         13    1    3    3    0    0 -0.47701333513E+02 -0.22758018932E+03 -0.10335735409E+03  0.25446198623E+03  0.00000000000E+00 0.  1.
        -13    1    3    3    0    0 -0.13133235221E+02 -0.67876608428E+03 -0.39793460202E+03  0.78692301181E+03  0.00000000000E+00 0. -1.
          4    1    6    6  502    0  0.30436469177E+03  0.54034116220E+03  0.32670538855E+02  0.62102640948E+03  0.00000000000E+00 0. -1.
          3    1    5    5  503    0 -0.31218427742E+03  0.72042984672E+02 -0.37860943886E+02  0.32261845233E+03  0.00000000000E+00 0. -1.
         -4    1    5    5    0  503 -0.28560515801E+02  0.69116700160E+01  0.20383923183E+02  0.35762809867E+02  0.00000000000E+00 0.  1.
         -3    1    6    6    0  502  0.97214670187E+02  0.28705045672E+03  0.11258302330E+02  0.30327447333E+03  0.00000000000E+00 0.  1.
<mgrwt>
<rscale>  0 0.22750417E+04</rscale>
<asrwt>0</asrwt>
<pdfrwt beam="1">  1        1 0.21530056E+00 0.22750417E+04</pdfrwt>
<pdfrwt beam="2">  1       -1 0.14224823E+00 0.22750417E+04</pdfrwt>
<totfact> 0.28000909E+00</totfact>
</mgrwt>
</event>
<event>
12    1  0.1960998E-007  0.1709589E+04  0.7818608E-02  0.8755914E-01
         -2   -1    0    0    0  501 -0.00000000000E+00  0.00000000000E+00  0.58477664001E+03  0.58477664001E+03  0.00000000000E+00 0.  1.
          2   -1    0    0  501    0  0.00000000000E+00 -0.00000000000E+00 -0.12494914952E+04  0.12494914952E+04  0.00000000000E+00 0. -1.
         23    2    1    2    0    0 -0.47906796754E+03 -0.23169754858E+03  0.90205548504E+02  0.54724074402E+03  0.90252531244E+02 0.  0.
        254    2    1    2    0    0  0.47906796754E+03  0.23169754858E+03 -0.75492040368E+03  0.12870273912E+04  0.89629505087E+03 0.  0.
        -24    2    4    4    0    0 -0.85181781920E+02  0.41863080030E+03 -0.39933221539E+03  0.59005070252E+03  0.78650685701E+02 0.  0.
         24    2    4    4    0    0  0.56424974946E+03 -0.18693325172E+03 -0.35558818828E+03  0.69697668866E+03  0.77535311454E+02 0.  0.
         13    1    3    3    0    0 -0.21356561662E+03 -0.11351018315E+03 -0.35165617224E+01  0.24188261717E+03  0.00000000000E+00 0. -1.
        -13    1    3    3    0    0 -0.26550235092E+03 -0.11818736543E+03  0.93722110227E+02  0.30535812685E+03  0.00000000000E+00 0.  1.
          4    1    6    6  502    0  0.22572238793E+03 -0.36679184125E+02 -0.12362960758E+03  0.25996199498E+03  0.00000000000E+00 0. -1.
          3    1    5    5  503    0 -0.56603626070E+02  0.12669789861E+03 -0.15729121123E+03  0.20975426843E+03  0.00000000000E+00 0. -1.
         -4    1    5    5    0  503 -0.28578155850E+02  0.29193290169E+03 -0.24204100417E+03  0.38029643409E+03  0.00000000000E+00 0.  1.
         -3    1    6    6    0  502  0.33852736153E+03 -0.15025406759E+03 -0.23195858070E+03  0.43701469368E+03  0.00000000000E+00 0.  1.
<mgrwt>
<rscale>  0 0.17095888E+04</rscale>
<asrwt>0</asrwt>
<pdfrwt beam="1">  1        2 0.19222946E+00 0.17095888E+04</pdfrwt>
<pdfrwt beam="2">  1       -2 0.89965637E-01 0.17095888E+04</pdfrwt>
<totfact> 0.17804049E+01</totfact>
</mgrwt>
</event>
<event>
12    1  0.1960998E-007  0.3072494E+04  0.7818608E-02  0.8223328E-01
         -1   -1    0    0    0  501 -0.00000000000E+00  0.00000000000E+00  0.14091463752E+04  0.14091463752E+04  0.00000000000E+00 0.  1.
          1   -1    0    0  501    0  0.00000000000E+00 -0.00000000000E+00 -0.16748114422E+04  0.16748114422E+04  0.00000000000E+00 0. -1.
         23    2    1    2    0    0  0.11838360227E+04 -0.42145841519E+03  0.51202622553E+03  0.13597570098E+04  0.87597635397E+02 0.  0.
        254    2    1    2    0    0 -0.11838360227E+04  0.42145841519E+03 -0.77769129250E+03  0.17242008077E+04  0.88823969424E+03 0.  0.
        -24    2    4    4    0    0 -0.44846000866E+03 -0.43258704428E+02  0.11999938153E+03  0.47219952327E+03  0.74731809350E+02 0.  0.
         24    2    4    4    0    0 -0.73537601399E+03  0.46471711962E+03 -0.89769067403E+03  0.12520012844E+04  0.70134062005E+02 0.  0.
         11    1    3    3    0    0  0.16849595997E+03 -0.71889175242E+02  0.44226587003E+02  0.18845406083E+03  0.00000000000E+00 0. -1.
        -11    1    3    3    0    0  0.10153400627E+04 -0.34956923995E+03  0.46779963853E+03  0.11713029489E+04  0.00000000000E+00 0.  1.
          4    1    6    6  502    0 -0.50123958142E+03  0.30353809620E+03 -0.64797917118E+03  0.87364380620E+03  0.00000000000E+00 0. -1.
          3    1    5    5  503    0 -0.81662004441E+02  0.85487743022E+01 -0.21650436334E+01  0.82136787893E+02  0.00000000000E+00 0. -1.
         -4    1    5    5    0  503 -0.36679800422E+03 -0.51807478730E+02  0.12216442516E+03  0.39006273537E+03  0.00000000000E+00 0.  1.
         -3    1    6    6    0  502 -0.23413643257E+03  0.16117902342E+03 -0.24971150285E+03  0.37835747819E+03  0.00000000000E+00 0.  1.
<mgrwt>
<rscale>  0 0.30724938E+04</rscale>
<asrwt>0</asrwt>
<pdfrwt beam="1">  1        1 0.25766330E+00 0.30724938E+04</pdfrwt>
<pdfrwt beam="2">  1       -1 0.21679175E+00 0.30724938E+04</pdfrwt>
<totfact> 0.48507603E-01</totfact>
</mgrwt>
</event>
<event>
12    1  0.1960998E-007  0.2652258E+04  0.7818608E-02  0.8350664E-01
          2   -1    0    0  501    0  0.00000000000E+00  0.00000000000E+00  0.20122505005E+04  0.20122505005E+04  0.00000000000E+00 0. -1.
         -2   -1    0    0    0  501 -0.00000000000E+00 -0.00000000000E+00 -0.87395562662E+03  0.87395562662E+03  0.00000000000E+00 0.  1.
         23    2    1    2    0    0  0.10762512904E+04 -0.32765014500E+03  0.14337641740E+03  0.11377803820E+04  0.91191792114E+02 0.  0.
        254    2    1    2    0    0 -0.10762512904E+04  0.32765014500E+03  0.99491845644E+03  0.17484257451E+04  0.89524208660E+03 0.  0.
        -24    2    4    4    0    0 -0.41333242099E+03  0.58121703620E+03  0.57461412001E+03  0.91937479842E+03  0.80073089395E+02 0.  0.
         24    2    4    4    0    0 -0.66291886940E+03 -0.25356689120E+03  0.42030433643E+03  0.82905094669E+03  0.83139288307E+02 0.  0.
         11    1    3    3    0    0  0.56115848364E+03 -0.17264840364E+03  0.28918013576E+02  0.58782868810E+03  0.00000000000E+00 0.  1.
        -11    1    3    3    0    0  0.51509280675E+03 -0.15500174136E+03  0.11445840382E+03  0.54995169387E+03  0.00000000000E+00 0. -1.
          2    1    6    6  502    0 -0.62122429142E+03 -0.21938232697E+03  0.40353841594E+03  0.77258752176E+03  0.00000000000E+00 0. -1.
          3    1    5    5  503    0 -0.28323645078E+03  0.38713995101E+03  0.43267044038E+03  0.64599066456E+03  0.00000000000E+00 0. -1.
         -4    1    5    5    0  503 -0.13009597020E+03  0.19407708519E+03  0.14194367964E+03  0.27338413387E+03  0.00000000000E+00 0.  1.
         -1    1    6    6    0  502 -0.41694577982E+02 -0.34184564232E+02  0.16765920483E+02  0.56463424927E+02  0.00000000000E+00 0.  1.
<mgrwt>
<rscale>  0 0.26522576E+04</rscale>
<asrwt>0</asrwt>
<pdfrwt beam="1">  1        2 0.30957700E+00 0.26522576E+04</pdfrwt>
<pdfrwt beam="2">  1       -2 0.13445471E+00 0.26522576E+04</pdfrwt>
<totfact> 0.23091970E+00</totfact>
</mgrwt>
</event>
<event>
12    1  0.1960998E-007  0.1401283E+04  0.7818608E-02  0.8952890E-01
          1   -1    0    0  501    0  0.00000000000E+00  0.00000000000E+00  0.16196398795E+04  0.16196398795E+04  0.00000000000E+00 0. -1.
         -1   -1    0    0    0  501 -0.00000000000E+00 -0.00000000000E+00 -0.30309133449E+03  0.30309133449E+03  0.00000000000E+00 0.  1.
         23    2    1    2    0    0 -0.28357424478E+03 -0.16977668946E+03  0.68751252528E+02  0.34965924523E+03  0.91084446872E+02 0.  0.
        254    2    1    2    0    0  0.28357424478E+03  0.16977668946E+03  0.12477972925E+04  0.15730719688E+04  0.89906554779E+03 0.  0.
        -24    2    4    4    0    0 -0.24853604541E+03  0.16497304337E+03  0.84746165064E+03  0.90219454095E+03  0.82325388019E+02 0.  0.
         24    2    4    4    0    0  0.53211029018E+03  0.48036460893E+01  0.40033564187E+03  0.67087742784E+03  0.81507429721E+02 0.  0.
         13    1    3    3    0    0 -0.15531468216E+03 -0.43087731135E+02  0.16857759462E+02  0.16205982575E+03  0.00000000000E+00 0.  1.
        -13    1    3    3    0    0 -0.12825956262E+03 -0.12668895832E+03  0.51893493066E+02  0.18759941948E+03  0.00000000000E+00 0. -1.
          2    1    6    6  502    0  0.30423899816E+03 -0.31363130664E+02  0.25487214446E+03  0.39812664316E+03  0.00000000000E+00 0. -1.
          3    1    5    5  503    0 -0.18535828311E+03  0.14993715657E+03  0.58272612281E+03  0.62960986193E+03  0.00000000000E+00 0. -1.
         -4    1    5    5    0  503 -0.63177762297E+02  0.15035886802E+02  0.26473552783E+03  0.27258467902E+03  0.00000000000E+00 0.  1.
         -1    1    6    6    0  502  0.22787129202E+03  0.36166776754E+02  0.14546349741E+03  0.27275078469E+03  0.00000000000E+00 0.  1.
<mgrwt>
<rscale>  0 0.14012834E+04</rscale>
<asrwt>0</asrwt>
<pdfrwt beam="1">  1        1 0.24917536E+00 0.14012834E+04</pdfrwt>
<pdfrwt beam="2">  1       -1 0.46629437E-01 0.14012834E+04</pdfrwt>
<totfact> 0.24162191E+01</totfact>
</mgrwt>
</event>
<event>
12    1  0.1960998E-007  0.2721843E+04  0.7818608E-02  0.8327952E-01
         -2   -1    0    0    0  501 -0.00000000000E+00  0.00000000000E+00  0.21600756539E+04  0.21600756539E+04  0.00000000000E+00 0.  1.
          2   -1    0    0  501    0  0.00000000000E+00 -0.00000000000E+00 -0.85742718059E+03  0.85742718059E+03  0.00000000000E+00 0. -1.
         23    2    1    2    0    0  0.96297035479E+03  0.72224648791E+03  0.47440401335E+03  0.12970739950E+04  0.91596326817E+02 0.  0.
        254    2    1    2    0    0 -0.96297035479E+03 -0.72224648791E+03  0.82824445992E+03  0.17204288395E+04  0.90825911104E+03 0.  0.
        -24    2    4    4    0    0  0.12073860759E+03 -0.17127927530E+03 -0.35547253563E+02  0.22696690886E+03  0.79598800069E+02 0.  0.
         24    2    4    4    0    0 -0.10837089624E+04 -0.55096721261E+03  0.86379171348E+03  0.14934619306E+04  0.79387841581E+02 0.  0.
         11    1    3    3    0    0  0.45786425698E+03  0.28803588318E+03  0.20121165501E+03  0.57713991192E+03  0.00000000000E+00 0.  1.
        -11    1    3    3    0    0  0.50510609780E+03  0.43421060473E+03  0.27319235834E+03  0.71993408306E+03  0.00000000000E+00 0. -1.
          4    1    6    6  502    0 -0.69508335561E+03 -0.35367131600E+03  0.50692577800E+03  0.93016020954E+03  0.00000000000E+00 0. -1.
          3    1    5    5  503    0  0.28201767002E+02 -0.39837112507E+01 -0.20698165204E+02  0.35208289651E+02  0.00000000000E+00 0. -1.
         -4    1    5    5    0  503  0.92536840583E+02 -0.16729556405E+03 -0.14849088360E+02  0.19175861921E+03  0.00000000000E+00 0.  1.
         -3    1    6    6    0  502 -0.38862560676E+03 -0.19729589661E+03  0.35686593548E+03  0.56330172107E+03  0.00000000000E+00 0.  1.
<mgrwt>
<rscale>  0 0.27218432E+04</rscale>
<asrwt>0</asrwt>
<pdfrwt beam="1">  1        2 0.13191187E+00 0.27218432E+04</pdfrwt>
<pdfrwt beam="2">  1       -2 0.33231933E+00 0.27218432E+04</pdfrwt>
<totfact> 0.55154162E-01</totfact>
</mgrwt>
</event>
<event>
12    1  0.1960998E-007  0.2224609E+04  0.7818608E-02  0.8508255E-01
          2   -1    0    0  501    0  0.00000000000E+00  0.00000000000E+00  0.22862266861E+04  0.22862266861E+04  0.00000000000E+00 0. -1.
         -2   -1    0    0    0  501 -0.00000000000E+00 -0.00000000000E+00 -0.54116304747E+03  0.54116304747E+03  0.00000000000E+00 0.  1.
         23    2    1    2    0    0 -0.75595778711E+03  0.30750722410E+03  0.12928451328E+04  0.15321392649E+04  0.99846486972E+02 0.  0.
        254    2    1    2    0    0  0.75595778711E+03 -0.30750722410E+03  0.45221850579E+03  0.12952504686E+04  0.89840933358E+03 0.  0.
        -24    2    4    4    0    0  0.53967207457E+02  0.83612084106E+02  0.47086124285E+03  0.48750711906E+03  0.77778152678E+02 0.  0.
         24    2    4    4    0    0  0.70199057966E+03 -0.39111930820E+03 -0.18642737053E+02  0.80774334954E+03  0.79603265669E+02 0.  0.
         13    1    3    3    0    0 -0.12703067608E+03  0.83101505379E+02  0.19436940190E+03  0.24662140470E+03  0.00000000000E+00 0.  1.
        -13    1    3    3    0    0 -0.62892711103E+03  0.22440571872E+03  0.10984757309E+04  0.12855178602E+04  0.00000000000E+00 0. -1.
          2    1    6    6  502    0  0.14309021259E+03 -0.44447470932E+02 -0.20995980466E+01  0.14984924065E+03  0.00000000000E+00 0. -1.
          3    1    5    5  503    0  0.58463300679E+02  0.35095211280E+02  0.17787793303E+03  0.19049984367E+03  0.00000000000E+00 0. -1.
         -4    1    5    5    0  503 -0.44960932222E+01  0.48516872826E+02  0.29298330982E+03  0.29700727539E+03  0.00000000000E+00 0.  1.
         -1    1    6    6    0  502  0.55890036706E+03 -0.34667183727E+03 -0.16543139006E+02  0.65789410889E+03  0.00000000000E+00 0.  1.
<mgrwt>
<rscale>  0 0.22246091E+04</rscale>
<asrwt>0</asrwt>
<pdfrwt beam="1">  1        2 0.35172718E+00 0.22246091E+04</pdfrwt>
<pdfrwt beam="2">  1       -2 0.83255855E-01 0.22246091E+04</pdfrwt>
<totfact> 0.53178079E+00</totfact>
</mgrwt>
</event>
<event>
12    1  0.1960998E-007  0.2078081E+04  0.7818608E-02  0.8570961E-01
          4   -1    0    0  501    0  0.00000000000E+00  0.00000000000E+00  0.78788217079E+03  0.78788217079E+03  0.00000000000E+00 0.  1.
         -4   -1    0    0    0  501 -0.00000000000E+00 -0.00000000000E+00 -0.13702622257E+04  0.13702622257E+04  0.00000000000E+00 0. -1.
         23    2    1    2    0    0 -0.18641800076E+03  0.64685119697E+03 -0.75979366124E+03  0.10191967131E+04  0.91144885964E+02 0.  0.
        254    2    1    2    0    0  0.18641800076E+03 -0.64685119697E+03  0.17741360638E+03  0.11389476834E+04  0.90142004399E+03 0.  0.
        -24    2    4    4    0    0  0.68521448033E+02 -0.28367559068E+02  0.43851393461E+03  0.45274452934E+03  0.84753942394E+02 0.  0.
         24    2    4    4    0    0  0.11789655273E+03 -0.61848363790E+03 -0.26110032823E+03  0.68620315404E+03  0.79245061162E+02 0.  0.
         13    1    3    3    0    0 -0.95151649680E+02  0.47424315018E+03 -0.55642288069E+03  0.73726984483E+03  0.00000000000E+00 0. -1.
        -13    1    3    3    0    0 -0.91266351084E+02  0.17260804679E+03 -0.20337078055E+03  0.28192686824E+03  0.00000000000E+00 0.  1.
          4    1    6    6  502    0  0.40729981250E+02 -0.19303738380E+03 -0.42982603596E+02  0.20191549502E+03  0.00000000000E+00 0. -1.
          3    1    5    5  503    0  0.57860146752E+02  0.21146307818E+02  0.22232825333E+03  0.23070503928E+03  0.00000000000E+00 0. -1.
         -4    1    5    5    0  503  0.10661301281E+02 -0.49513866886E+02  0.21618568127E+03  0.22203949006E+03  0.00000000000E+00 0.  1.
         -3    1    6    6    0  502  0.77166571481E+02 -0.42544625410E+03 -0.21811772463E+03  0.48428765903E+03  0.00000000000E+00 0.  1.
<mgrwt>
<rscale>  0 0.20780810E+04</rscale>
<asrwt>0</asrwt>
<pdfrwt beam="1">  1        4 0.12121264E+00 0.20780810E+04</pdfrwt>
<pdfrwt beam="2">  1       -4 0.21080957E+00 0.20780810E+04</pdfrwt>
<totfact> 0.10654807E-01</totfact>
</mgrwt>
</event>
<event>
12    1  0.1960998E-007  0.2631070E+04  0.7818608E-02  0.8357723E-01
         -2   -1    0    0    0  501 -0.00000000000E+00  0.00000000000E+00  0.14230026603E+04  0.14230026603E+04  0.00000000000E+00 0.  1.
          2   -1    0    0  501    0  0.00000000000E+00 -0.00000000000E+00 -0.12161839465E+04  0.12161839465E+04  0.00000000000E+00 0. -1.
         23    2    1    2    0    0 -0.53387733378E+03  0.66438499955E+03  0.88073139465E+03  0.12287226976E+04  0.87402762156E+02 0.  0.
        254    2    1    2    0    0  0.53387733378E+03 -0.66438499955E+03 -0.67391268081E+03  0.14104639092E+04  0.89934292831E+03 0.  0.
        -24    2    4    4    0    0  0.28408326182E+03 -0.83736302502E+03 -0.33684043718E+03  0.94959987267E+03  0.79989391351E+02 0.  0.
         24    2    4    4    0    0  0.24979407196E+03  0.17297802547E+03 -0.33707224363E+03  0.46086403655E+03  0.80370934324E+02 0.  0.
         13    1    3    3    0    0 -0.19372742858E+03  0.22481033507E+03  0.24995300917E+03  0.38800323469E+03  0.00000000000E+00 0. -1.
        -13    1    3    3    0    0 -0.34014990520E+03  0.43957466448E+03  0.63077838549E+03  0.84071946288E+03  0.00000000000E+00 0.  1.
          4    1    6    6  502    0  0.22477277523E+03  0.17953611164E+03 -0.31739424720E+03  0.42836330845E+03  0.00000000000E+00 0. -1.
          1    1    5    5  503    0  0.28793069908E+03 -0.83035002748E+03 -0.33781110222E+03  0.94154213734E+03  0.00000000000E+00 0. -1.
         -2    1    5    5    0  503 -0.38474372571E+01 -0.70129975410E+01  0.97066503671E+00  0.80577353252E+01  0.00000000000E+00 0.  1.
         -3    1    6    6    0  502  0.25021296726E+02 -0.65580861705E+01 -0.19677996429E+02  0.32500728108E+02  0.00000000000E+00 0.  1.
<mgrwt>
<rscale>  0 0.26310705E+04</rscale>
<asrwt>0</asrwt>
<pdfrwt beam="1">  1        2 0.18710522E+00 0.26310705E+04</pdfrwt>
<pdfrwt beam="2">  1       -2 0.21892348E+00 0.26310705E+04</pdfrwt>
<totfact> 0.16408956E+00</totfact>
</mgrwt>
</event>
<event>
12    1  0.1960998E-007  0.2445518E+04  0.7818608E-02  0.8422656E-01
         -1   -1    0    0    0  501 -0.00000000000E+00  0.00000000000E+00  0.80320351656E+03  0.80320351656E+03  0.00000000000E+00 0.  1.
          1   -1    0    0  501    0  0.00000000000E+00 -0.00000000000E+00 -0.18614700627E+04  0.18614700627E+04  0.00000000000E+00 0. -1.
         23    2    1    2    0    0 -0.12280822548E+03 -0.10150318504E+04 -0.19085246049E+03  0.10439150118E+04  0.89232128071E+02 0.  0.
        254    2    1    2    0    0  0.12280822548E+03  0.10150318504E+04 -0.86741408567E+03  0.16207585675E+04  0.91053809394E+03 0.  0.
        -24    2    4    4    0    0  0.28135640729E+03  0.10713360213E+04 -0.52007028561E+03  0.12263563871E+04  0.80960408820E+02 0.  0.
         24    2    4    4    0    0 -0.15854818181E+03 -0.56304170940E+02 -0.34734380006E+03  0.39440218035E+03  0.81226096811E+02 0.  0.
         11    1    3    3    0    0 -0.10883384023E+03 -0.87768726752E+03 -0.13352637165E+03  0.89443224242E+03  0.00000000000E+00 0.  1.
        -11    1    3    3    0    0 -0.13974385244E+02 -0.13734458285E+03 -0.57326088847E+02  0.14948276938E+03  0.00000000000E+00 0. -1.
          4    1    6    6  502    0 -0.95083358928E+02 -0.21142860769E+02 -0.11352579008E+03  0.14958599774E+03  0.00000000000E+00 0. -1.
          3    1    5    5  503    0  0.65855158554E+02  0.38929380728E+03 -0.16712061286E+03  0.42873752989E+03  0.00000000000E+00 0. -1.
         -4    1    5    5    0  503  0.21550124873E+03  0.68204221403E+03 -0.35294967275E+03  0.79761885724E+03  0.00000000000E+00 0.  1.
         -3    1    6    6    0  502 -0.63464822881E+02 -0.35161310171E+02 -0.23381800997E+03  0.24481618260E+03  0.00000000000E+00 0.  1.
<mgrwt>
<rscale>  0 0.24455178E+04</rscale>
<asrwt>0</asrwt>
<pdfrwt beam="1">  1        1 0.28638001E+00 0.24455178E+04</pdfrwt>
<pdfrwt beam="2">  1       -1 0.12356977E+00 0.24455178E+04</pdfrwt>
<totfact> 0.19019007E+00</totfact>
</mgrwt>
</event>
<event>
12    1  0.1960998E-007  0.2438674E+04  0.7818608E-02  0.8425165E-01
          1   -1    0    0  501    0  0.00000000000E+00  0.00000000000E+00  0.40944788472E+04  0.40944788472E+04  0.00000000000E+00 0. -1.
         -1   -1    0    0    0  501 -0.00000000000E+00 -0.00000000000E+00 -0.36311902963E+03  0.36311902963E+03  0.00000000000E+00 0.  1.
         23    2    1    2    0    0  0.57685860549E+01  0.41916718886E+03 -0.14776351196E+03  0.45431239368E+03  0.93974926311E+02 0.  0.
        254    2    1    2    0    0 -0.57685860549E+01 -0.41916718886E+03  0.38791233295E+04  0.40032854832E+04  0.89608171787E+03 0.  0.
        -24    2    4    4    0    0  0.11284058912E+03  0.25744020045E+03  0.97571954056E+03  0.10186523543E+04  0.81335981109E+02 0.  0.
         24    2    4    4    0    0 -0.11860917518E+03 -0.67660738931E+03  0.29034037890E+04  0.29846331288E+04  0.80097790529E+02 0.  0.
         13    1    3    3    0    0  0.41866163176E+02  0.15392209346E+03 -0.78619903741E+02  0.17783665465E+03  0.00000000000E+00 0.  1.
        -13    1    3    3    0    0 -0.36097577121E+02  0.26524509541E+03 -0.69143608216E+02  0.27647573902E+03  0.00000000000E+00 0. -1.
          2    1    6    6  502    0 -0.10879942447E+03 -0.44796320197E+03  0.20373482959E+04  0.20888505030E+04  0.00000000000E+00 0. -1.
          3    1    5    5  503    0  0.30138994044E+02  0.10124035163E+02  0.11167598998E+03  0.11611365892E+03  0.00000000000E+00 0. -1.
         -4    1    5    5    0  503  0.82701595077E+02  0.24731616529E+03  0.86404355058E+03  0.90253869542E+03  0.00000000000E+00 0.  1.
         -1    1    6    6    0  502 -0.98097507092E+01 -0.22864418735E+03  0.86605549307E+03  0.89578262581E+03  0.00000000000E+00 0.  1.
<mgrwt>
<rscale>  0 0.24386744E+04</rscale>
<asrwt>0</asrwt>
<pdfrwt beam="1">  1        1 0.62991979E+00 0.24386744E+04</pdfrwt>
<pdfrwt beam="2">  1       -1 0.55864469E-01 0.24386744E+04</pdfrwt>
<totfact> 0.22960214E-01</totfact>
</mgrwt>
</event>
<event>
12    1  0.1960998E-007  0.2075681E+04  0.7818608E-02  0.8572032E-01
          2   -1    0    0  501    0  0.00000000000E+00  0.00000000000E+00  0.80260278322E+03  0.80260278322E+03  0.00000000000E+00 0.  1.
         -2   -1    0    0    0  501 -0.00000000000E+00 -0.00000000000E+00 -0.13420251668E+04  0.13420251668E+04  0.00000000000E+00 0. -1.
         23    2    1    2    0    0  0.61560265620E+03  0.56864281208E+03 -0.27314413406E+03  0.88632163828E+03  0.92935732965E+02 0.  0.
        254    2    1    2    0    0 -0.61560265620E+03 -0.56864281208E+03 -0.26627824957E+03  0.12583063118E+04  0.90006077019E+03 0.  0.
        -24    2    4    4    0    0 -0.47877574060E+03  0.11705881568E+03 -0.24033156128E+03  0.55497507321E+03  0.85493253664E+02 0.  0.
         24    2    4    4    0    0 -0.13682691560E+03 -0.68570162776E+03 -0.25946688293E+02  0.70333123857E+03  0.71367172901E+02 0.  0.
         13    1    3    3    0    0  0.29785598728E+03  0.25357854968E+03 -0.17330929137E+03  0.42785088582E+03  0.00000000000E+00 0. -1.
        -13    1    3    3    0    0  0.31774666892E+03  0.31506426240E+03 -0.99834842684E+02  0.45847075247E+03  0.00000000000E+00 0.  1.
          2    1    6    6  502    0  0.40948042223E+01 -0.98932930081E+02 -0.11730391126E+02  0.99710050406E+02  0.00000000000E+00 0. -1.
          3    1    5    5  503    0 -0.18573465401E+03  0.70520357882E+01 -0.69926692684E+02  0.19858709741E+03  0.00000000000E+00 0. -1.
         -4    1    5    5    0  503 -0.29304108659E+03  0.11000677990E+03 -0.17040486859E+03  0.35638797580E+03  0.00000000000E+00 0.  1.
         -1    1    6    6    0  502 -0.14092171982E+03 -0.58676869768E+03 -0.14216297167E+02  0.60362118817E+03  0.00000000000E+00 0.  1.
<mgrwt>
<rscale>  0 0.20756812E+04</rscale>
<asrwt>0</asrwt>
<pdfrwt beam="1">  1        2 0.12347735E+00 0.20756812E+04</pdfrwt>
<pdfrwt beam="2">  1       -2 0.20646541E+00 0.20756812E+04</pdfrwt>
<totfact> 0.38202591E+00</totfact>
</mgrwt>
</event>
<event>
12    1  0.1960998E-007  0.1299669E+04  0.7818608E-02  0.9029828E-01
          2   -1    0    0  501    0  0.00000000000E+00  0.00000000000E+00  0.77632231591E+03  0.77632231591E+03  0.00000000000E+00 0. -1.
         -2   -1    0    0    0  501 -0.00000000000E+00 -0.00000000000E+00 -0.54395559399E+03  0.54395559399E+03  0.00000000000E+00 0.  1.
         23    2    1    2    0    0  0.94931880164E+02 -0.17546590606E+02 -0.25788055444E+03  0.29005038722E+03  0.91142207849E+02 0.  0.
        254    2    1    2    0    0 -0.94931880164E+02  0.17546590606E+02  0.49024727637E+03  0.10302275227E+04  0.90094750779E+03 0.  0.
        -24    2    4    4    0    0  0.29968875676E+02 -0.23480864385E+03 -0.17402001582E+03  0.30441133021E+03  0.79687259458E+02 0.  0.
         24    2    4    4    0    0 -0.12490075584E+03  0.25235523445E+03  0.66426729219E+03  0.72581619247E+03  0.79213298244E+02 0.  0.
         13    1    3    3    0    0  0.10134712015E+03 -0.21339395461E+02 -0.15213514333E+03  0.18404268635E+03  0.00000000000E+00 0. -1.
        -13    1    3    3    0    0 -0.64152399849E+01  0.37928048555E+01 -0.10574541111E+03  0.10600770087E+03  0.00000000000E+00 0.  1.
          2    1    6    6  502    0 -0.59008894123E+02  0.14391057327E+03  0.45749414344E+03  0.48321133469E+03  0.00000000000E+00 0. -1.
          3    1    5    5  503    0 -0.86651492144E+01 -0.22219511528E+02 -0.49704764570E+02  0.55130346674E+02  0.00000000000E+00 0. -1.
         -4    1    5    5    0  503  0.38634024890E+02 -0.21258913232E+03 -0.12431525125E+03  0.24928098354E+03  0.00000000000E+00 0.  1.
         -1    1    6    6    0  502 -0.65891861717E+02  0.10844466118E+03  0.20677314875E+03  0.24260485779E+03  0.00000000000E+00 0.  1.
<mgrwt>
<rscale>  0 0.12996690E+04</rscale>
<asrwt>0</asrwt>
<pdfrwt beam="1">  1        2 0.11943420E+00 0.12996690E+04</pdfrwt>
<pdfrwt beam="2">  1       -2 0.83685476E-01 0.12996690E+04</pdfrwt>
<totfact> 0.43881533E+01</totfact>
</mgrwt>
</event>
<event>
12    1  0.1960998E-007  0.2897071E+04  0.7818608E-02  0.8273749E-01
         -1   -1    0    0    0  501 -0.00000000000E+00  0.00000000000E+00  0.18233079509E+04  0.18233079509E+04  0.00000000000E+00 0.  1.
          1   -1    0    0  501    0  0.00000000000E+00 -0.00000000000E+00 -0.11507958814E+04  0.11507958814E+04  0.00000000000E+00 0. -1.
         23    2    1    2    0    0 -0.95579270422E+03  0.47925330353E+03 -0.46828482095E+03  0.11709207677E+04  0.92419415811E+02 0.  0.
        254    2    1    2    0    0  0.95579270422E+03 -0.47925330353E+03  0.11407968905E+04  0.18031830646E+04  0.89823615858E+03 0.  0.
        -24    2    4    4    0    0 -0.13686101149E+03 -0.21894600962E+03  0.22909053089E+03  0.35437045946E+03  0.80172686147E+02 0.  0.
         24    2    4    4    0    0  0.10926537157E+04 -0.26030729392E+03  0.91170635963E+03  0.14488126051E+04  0.78723877125E+02 0.  0.
         13    1    3    3    0    0 -0.89668168492E+03  0.43183300419E+03 -0.45354735034E+03  0.10937197934E+04  0.00000000000E+00 0. -1.
        -13    1    3    3    0    0 -0.59111019304E+02  0.47420299342E+02 -0.14737470604E+02  0.77200974298E+02  0.00000000000E+00 0.  1.
          4    1    6    6  502    0  0.55776957397E+03 -0.16660030492E+03  0.44372740549E+03  0.73195393955E+03  0.00000000000E+00 0. -1.
          3    1    5    5  503    0 -0.14528819549E+03 -0.20551894142E+03  0.22590549278E+03  0.33820110393E+03  0.00000000000E+00 0. -1.
         -4    1    5    5    0  503  0.84271840019E+01 -0.13427068194E+02  0.31850381058E+01  0.16169355529E+02  0.00000000000E+00 0.  1.
         -3    1    6    6    0  502  0.53488414174E+03 -0.93706988996E+02  0.46797895414E+03  0.71685866557E+03  0.00000000000E+00 0.  1.
<mgrwt>
<rscale>  0 0.28970711E+04</rscale>
<asrwt>0</asrwt>
<pdfrwt beam="1">  1        1 0.17704552E+00 0.28970711E+04</pdfrwt>
<pdfrwt beam="2">  1       -1 0.28050891E+00 0.28970711E+04</pdfrwt>
<totfact> 0.44050766E-01</totfact>
</mgrwt>
</event>
<event>
12    1  0.1960998E-007  0.2417174E+04  0.7818608E-02  0.8433102E-01
         -1   -1    0    0    0  501 -0.00000000000E+00  0.00000000000E+00  0.63055151819E+03  0.63055151819E+03  0.00000000000E+00 0.  1.
          1   -1    0    0  501    0  0.00000000000E+00 -0.00000000000E+00 -0.23165158035E+04  0.23165158035E+04  0.00000000000E+00 0. -1.
         23    2    1    2    0    0  0.57443070652E+03  0.83585890809E+03 -0.45520473806E+03  0.11153974887E+04  0.90936535225E+02 0.  0.
        254    2    1    2    0    0 -0.57443070652E+03 -0.83585890809E+03 -0.12307595472E+04  0.18316698330E+04  0.90089653293E+03 0.  0.
        -24    2    4    4    0    0 -0.23313560889E+03 -0.93442698693E+03 -0.72237791785E+03  0.12065142084E+04  0.79628341732E+02 0.  0.
         24    2    4    4    0    0 -0.34129509763E+03  0.98568078843E+02 -0.50838162938E+03  0.62515562457E+03  0.78547208789E+02 0.  0.
         13    1    3    3    0    0  0.24481858963E+03  0.34259493575E+03 -0.14091496394E+03  0.44403204714E+03  0.00000000000E+00 0.  1.
        -13    1    3    3    0    0  0.32961211689E+03  0.49326397234E+03 -0.31428977412E+03  0.67136544156E+03  0.00000000000E+00 0. -1.
          4    1    6    6  502    0 -0.33241922291E+03  0.10719061437E+03 -0.47527891417E+03  0.58981557611E+03  0.00000000000E+00 0. -1.
          3    1    5    5  503    0 -0.14607313309E+03 -0.68213184740E+03 -0.55540317048E+03  0.89169159424E+03  0.00000000000E+00 0. -1.
         -4    1    5    5    0  503 -0.87062475796E+02 -0.25229513953E+03 -0.16697474736E+03  0.31482261415E+03  0.00000000000E+00 0.  1.
         -3    1    6    6    0  502 -0.88758747200E+01 -0.86225355245E+01 -0.33102715205E+02  0.35340048456E+02  0.00000000000E+00 0.  1.
<mgrwt>
<rscale>  0 0.24171740E+04</rscale>
<asrwt>0</asrwt>
<pdfrwt beam="1">  1        1 0.35638703E+00 0.24171740E+04</pdfrwt>
<pdfrwt beam="2">  1       -1 0.97007929E-01 0.24171740E+04</pdfrwt>
<totfact> 0.16567355E+00</totfact>
</mgrwt>
</event>
<event>
12    1  0.1960998E-007  0.1871417E+04  0.7818608E-02  0.8669216E-01
          2   -1    0    0  501    0  0.00000000000E+00  0.00000000000E+00  0.18908706046E+04  0.18908706046E+04  0.00000000000E+00 0.  1.
         -2   -1    0    0    0  501 -0.00000000000E+00 -0.00000000000E+00 -0.46304070631E+03  0.46304070631E+03  0.00000000000E+00 0. -1.
         23    2    1    2    0    0 -0.56576770142E+02 -0.65279876890E+03  0.91473164906E+03  0.11288815923E+04  0.91063142954E+02 0.  0.
        254    2    1    2    0    0  0.56576770142E+02  0.65279876890E+03  0.51309824919E+03  0.12250297186E+04  0.89893316464E+03 0.  0.
        -24    2    4    4    0    0  0.11177128207E+03  0.33968042137E+03  0.74005839455E+03  0.82580292653E+03  0.79927704570E+02 0.  0.
         24    2    4    4    0    0 -0.55194511925E+02  0.31311834753E+03 -0.22696014537E+03  0.39922679205E+03  0.82350411036E+02 0.  0.
         13    1    3    3    0    0 -0.57107956374E+02 -0.55780582838E+03  0.82960557262E+03  0.10013261541E+04  0.00000000000E+00 0.  1.
        -13    1    3    3    0    0  0.53118623163E+00 -0.94992940526E+02  0.85126076435E+02  0.12755543813E+03  0.00000000000E+00 0. -1.
          4    1    6    6  502    0 -0.30071997853E+02  0.29343661213E+03 -0.19234539177E+03  0.35214502713E+03  0.00000000000E+00 0. -1.
          3    1    5    5  503    0  0.10780794339E+03  0.32706801633E+03  0.65784708727E+03  0.74253540669E+03  0.00000000000E+00 0. -1.
         -4    1    5    5    0  503  0.39633386766E+01  0.12612405044E+02  0.82211307289E+02  0.83267519842E+02  0.00000000000E+00 0.  1.
         -3    1    6    6    0  502 -0.25122514072E+02  0.19681735395E+02 -0.34614753597E+02  0.47081764920E+02  0.00000000000E+00 0.  1.
<mgrwt>
<rscale>  0 0.18714166E+04</rscale>
<asrwt>0</asrwt>
<pdfrwt beam="1">  1        2 0.29090316E+00 0.18714166E+04</pdfrwt>
<pdfrwt beam="2">  1       -2 0.71237033E-01 0.18714166E+04</pdfrwt>
<totfact> 0.12899970E+01</totfact>
</mgrwt>
</event>
<event>
12    1  0.1960998E-007  0.1802900E+04  0.7818608E-02  0.8704759E-01
         -1   -1    0    0    0  501 -0.00000000000E+00  0.00000000000E+00  0.60367621961E+03  0.60367621961E+03  0.00000000000E+00 0.  1.
          1   -1    0    0  501    0  0.00000000000E+00 -0.00000000000E+00 -0.13461055233E+04  0.13461055233E+04  0.00000000000E+00 0. -1.
         23    2    1    2    0    0 -0.57805362715E+03 -0.58162684138E+02  0.90072567096E+02  0.59483347490E+03  0.90470447280E+02 0.  0.
        254    2    1    2    0    0  0.57805362715E+03  0.58162684138E+02 -0.83250187076E+03  0.13549482680E+04  0.89738316811E+03 0.  0.
        -24    2    4    4    0    0 -0.23558031376E+03  0.35103282447E+02 -0.19656997618E+03  0.31900623340E+03  0.79968098279E+02 0.  0.
         24    2    4    4    0    0  0.81363394091E+03  0.23059401691E+02 -0.63593189458E+03  0.10359420346E+04  0.78959474900E+02 0.  0.
         13    1    3    3    0    0 -0.42915679070E+03 -0.81729287170E+02  0.57921096174E+02  0.44069272829E+03  0.00000000000E+00 0. -1.
        -13    1    3    3    0    0 -0.14889683645E+03  0.23566603031E+02  0.32151470922E+02  0.15414074661E+03  0.00000000000E+00 0.  1.
          2    1    6    6  502    0  0.71283920971E+02  0.23335239824E+02 -0.48974428459E+02  0.89579157450E+02  0.00000000000E+00 0. -1.
          1    1    5    5  503    0 -0.24459117266E+02 -0.17752467037E+02 -0.43345510259E+02  0.52841572298E+02  0.00000000000E+00 0. -1.
         -2    1    5    5    0  503 -0.21112119649E+03  0.52855749484E+02 -0.15322446592E+03  0.26616466110E+03  0.00000000000E+00 0.  1.
         -1    1    6    6    0  502  0.74235001994E+03 -0.27583813258E+00 -0.58695746612E+03  0.94636287714E+03  0.00000000000E+00 0.  1.
<mgrwt>
<rscale>  0 0.18028998E+04</rscale>
<asrwt>0</asrwt>
<pdfrwt beam="1">  1        1 0.20709315E+00 0.18028998E+04</pdfrwt>
<pdfrwt beam="2">  1       -1 0.92873266E-01 0.18028998E+04</pdfrwt>
<totfact> 0.89127217E+00</totfact>
</mgrwt>
</event>
<event>
12    1  0.1960998E-007  0.1810178E+04  0.7818608E-02  0.8700905E-01
         -2   -1    0    0    0  501 -0.00000000000E+00  0.00000000000E+00  0.15201787018E+04  0.15201787018E+04  0.00000000000E+00 0. -1.
          2   -1    0    0  501    0  0.00000000000E+00 -0.00000000000E+00 -0.53887499638E+03  0.53887499638E+03  0.00000000000E+00 0.  1.
         23    2    1    2    0    0 -0.64001887915E+03  0.12871825098E+03  0.57422654741E+03  0.87436154035E+03  0.92625167739E+02 0.  0.
        254    2    1    2    0    0  0.64001887915E+03 -0.12871825098E+03  0.40707715804E+03  0.11846921579E+04  0.90088353436E+03 0.  0.
        -24    2    4    4    0    0  0.47011988058E+03 -0.43488226036E+03  0.41251178990E+01  0.64517325336E+03  0.78078343790E+02 0.  0.
         24    2    4    4    0    0  0.16989899857E+03  0.30616400938E+03  0.40295204014E+03  0.53951890449E+03  0.78155174440E+02 0.  0.
         11    1    3    3    0    0 -0.78829525781E+02 -0.25854836355E+00  0.37932030059E+02  0.87481425951E+02  0.00000000000E+00 0.  1.
        -11    1    3    3    0    0 -0.56118935337E+03  0.12897679934E+03  0.53629451735E+03  0.78688011440E+03  0.00000000000E+00 0. -1.
          4    1    6    6  502    0  0.11330486248E+03  0.23739389320E+03  0.34259021740E+03  0.43192812996E+03  0.00000000000E+00 0. -1.
          1    1    5    5  503    0  0.43381650344E+03 -0.38595494806E+03 -0.16398454817E+02  0.58088457538E+03  0.00000000000E+00 0. -1.
         -2    1    5    5    0  503  0.36303377137E+02 -0.48927312298E+02  0.20523572716E+02  0.64288677987E+02  0.00000000000E+00 0.  1.
         -3    1    6    6    0  502  0.56594136094E+02  0.68770116181E+02  0.60361822738E+02  0.10759077453E+03  0.00000000000E+00 0.  1.
<mgrwt>
<rscale>  0 0.18101782E+04</rscale>
<asrwt>0</asrwt>
<pdfrwt beam="1">  1        2 0.82903846E-01 0.18101782E+04</pdfrwt>
<pdfrwt beam="2">  1       -2 0.23387364E+00 0.18101782E+04</pdfrwt>
<totfact> 0.43002012E+00</totfact>
</mgrwt>
</event>
<event>
12    1  0.1960998E-007  0.3405881E+04  0.7818608E-02  0.8136464E-01
         -2   -1    0    0    0  501 -0.00000000000E+00  0.00000000000E+00  0.14050066966E+04  0.14050066966E+04  0.00000000000E+00 0.  1.
          2   -1    0    0  501    0  0.00000000000E+00 -0.00000000000E+00 -0.20640516054E+04  0.20640516054E+04  0.00000000000E+00 0. -1.
         23    2    1    2    0    0  0.64906060129E+02  0.87864919762E+03 -0.16468042032E+04  0.18700362978E+04  0.93991822094E+02 0.  0.
        254    2    1    2    0    0 -0.64906060129E+02 -0.87864919762E+03  0.98775929434E+03  0.15990220041E+04  0.89719882801E+03 0.  0.
        -24    2    4    4    0    0  0.12377132841E+02 -0.10004933584E+04  0.58021548311E+03  0.11593992822E+04  0.80103277946E+02 0.  0.
         24    2    4    4    0    0 -0.77283192970E+02  0.12184416074E+03  0.40754381123E+03  0.43962272194E+03  0.79733858247E+02 0.  0.
         13    1    3    3    0    0  0.13216519232E+02  0.59356726788E+03 -0.10378569624E+04  0.11956771522E+04  0.00000000000E+00 0.  1.
        -13    1    3    3    0    0  0.51689540897E+02  0.28508192974E+03 -0.60894724077E+03  0.67435914566E+03  0.00000000000E+00 0. -1.
          4    1    6    6  502    0 -0.77650075110E+02  0.12704599907E+03  0.40806548908E+03  0.43438193266E+03  0.00000000000E+00 0. -1.
          3    1    5    5  503    0 -0.11011146738E+02 -0.91688379758E+03  0.53070247882E+03  0.10594537577E+04  0.00000000000E+00 0. -1.
         -4    1    5    5    0  503  0.23388279579E+02 -0.83609560782E+02  0.49513004287E+02  0.99945524509E+02  0.00000000000E+00 0.  1.
         -3    1    6    6    0  502  0.36688214012E+00 -0.52018383252E+01 -0.52167785218E+00  0.52407892772E+01  0.00000000000E+00 0.  1.
<mgrwt>
<rscale>  0 0.34058810E+04</rscale>
<asrwt>0</asrwt>
<pdfrwt beam="1">  1        2 0.31754640E+00 0.34058810E+04</pdfrwt>
<pdfrwt beam="2">  1       -2 0.21615488E+00 0.34058810E+04</pdfrwt>
<totfact> 0.53284231E-01</totfact>
</mgrwt>
</event>
<event>
12    1  0.1960998E-007  0.3359649E+04  0.7818608E-02  0.8147881E-01
         -2   -1    0    0    0  501 -0.00000000000E+00  0.00000000000E+00  0.13375409721E+04  0.13375409721E+04  0.00000000000E+00 0.  1.
          2   -1    0    0  501    0  0.00000000000E+00 -0.00000000000E+00 -0.21097006969E+04  0.21097006969E+04  0.00000000000E+00 0. -1.
         23    2    1    2    0    0 -0.14885364221E+04  0.24114315585E+03 -0.76024210536E+03  0.16911193599E+04  0.89587548859E+02 0.  0.
        254    2    1    2    0    0  0.14885364221E+04 -0.24114315585E+03 -0.11917619441E+02  0.17561223092E+04  0.89996268458E+03 0.  0.
        -24    2    4    4    0    0  0.36240854911E+03 -0.32363492107E+03 -0.31380042592E+03  0.58486456058E+03  0.86696760669E+02 0.  0.
         24    2    4    4    0    0  0.11261278730E+04  0.82491765219E+02  0.30188280648E+03  0.11712577486E+04  0.75779991828E+02 0.  0.
         13    1    3    3    0    0 -0.20149341291E+03  0.61730584582E+02 -0.93140679058E+02  0.23040279212E+03  0.00000000000E+00 0.  1.
        -13    1    3    3    0    0 -0.12870430092E+04  0.17941257127E+03 -0.66710142630E+03  0.14607165677E+04  0.00000000000E+00 0. -1.
          2    1    6    6  502    0  0.61435782895E+03  0.52876544107E+02  0.12658935627E+03  0.62948894830E+03  0.00000000000E+00 0. -1.
          1    1    5    5  503    0  0.10550405863E+03 -0.14453515753E+03 -0.92896905089E+02  0.20162180717E+03  0.00000000000E+00 0. -1.
         -2    1    5    5    0  503  0.25690449048E+03 -0.17909976354E+03 -0.22090352083E+03  0.38324275341E+03  0.00000000000E+00 0.  1.
         -1    1    6    6    0  502  0.51177004407E+03  0.29615221112E+02  0.17529345021E+03  0.54176880033E+03  0.00000000000E+00 0.  1.
<mgrwt>
<rscale>  0 0.33596495E+04</rscale>
<asrwt>0</asrwt>
<pdfrwt beam="1">  1        2 0.32456934E+00 0.33596495E+04</pdfrwt>
<pdfrwt beam="2">  1       -2 0.20577553E+00 0.33596495E+04</pdfrwt>
<totfact> 0.58815324E-01</totfact>
</mgrwt>
</event>
<event>
12    1  0.1960998E-007  0.1802100E+04  0.7818608E-02  0.8705184E-01
         -2   -1    0    0    0  501 -0.00000000000E+00  0.00000000000E+00  0.83751971802E+03  0.83751971802E+03  0.00000000000E+00 0. -1.
          2   -1    0    0  501    0  0.00000000000E+00 -0.00000000000E+00 -0.96939917043E+03  0.96939917043E+03  0.00000000000E+00 0.  1.
         23    2    1    2    0    0  0.82591991767E+01 -0.26689030136E+03  0.56980126059E+03  0.63530911303E+03  0.87438808257E+02 0.  0.
        254    2    1    2    0    0 -0.82591991767E+01  0.26689030136E+03 -0.70168071300E+03  0.11716097754E+04  0.89945260883E+03 0.  0.
        -24    2    4    4    0    0 -0.53855837546E+02  0.18305094938E+03  0.18421130056E+03  0.27700586879E+03  0.79939644640E+02 0.  0.
         24    2    4    4    0    0  0.45596638369E+02  0.83839351981E+02 -0.88589201356E+03  0.89460390663E+03  0.80021245341E+02 0.  0.
         13    1    3    3    0    0 -0.13666736811E+02 -0.66524430960E+02  0.23402965458E+03  0.24368454779E+03  0.00000000000E+00 0. -1.
        -13    1    3    3    0    0  0.21925935988E+02 -0.20036587040E+03  0.33577160601E+03  0.39162456524E+03  0.00000000000E+00 0.  1.
          4    1    6    6  502    0  0.45163126028E+02  0.59916819619E+02 -0.33968119110E+03  0.34786929272E+03  0.00000000000E+00 0. -1.
          3    1    5    5  503    0 -0.51736532420E+02  0.48570678375E+02  0.48608687884E+02  0.86015022656E+02  0.00000000000E+00 0. -1.
         -4    1    5    5    0  503 -0.21193051257E+01  0.13448027101E+03  0.13560261267E+03  0.19099084614E+03  0.00000000000E+00 0.  1.
         -3    1    6    6    0  502  0.43351234131E+00  0.23922532363E+02 -0.54621082245E+03  0.54673461392E+03  0.00000000000E+00 0.  1.
<mgrwt>
<rscale>  0 0.18020998E+04</rscale>
<asrwt>0</asrwt>
<pdfrwt beam="1">  1        2 0.14913833E+00 0.18020998E+04</pdfrwt>
<pdfrwt beam="2">  1       -2 0.12884919E+00 0.18020998E+04</pdfrwt>
<totfact> 0.11054353E+01</totfact>
</mgrwt>
</event>
<event>
12    1  0.1960998E-007  0.1518354E+04  0.7818608E-02  0.8872338E-01
         -2   -1    0    0    0  501 -0.00000000000E+00  0.00000000000E+00  0.24546462949E+03  0.24546462949E+03  0.00000000000E+00 0. -1.
          2   -1    0    0  501    0  0.00000000000E+00 -0.00000000000E+00 -0.23479962579E+04  0.23479962579E+04  0.00000000000E+00 0.  1.
         23    2    1    2    0    0  0.37398409857E+03  0.17886972064E+03 -0.25107296896E+03  0.49335212182E+03  0.92196515191E+02 0.  0.
        254    2    1    2    0    0 -0.37398409857E+03 -0.17886972064E+03 -0.18514586595E+04  0.21001087656E+04  0.90038834766E+03 0.  0.
        -24    2    4    4    0    0  0.23648976051E+03  0.99636399386E+01 -0.18076118887E+03  0.30955219231E+03  0.84387625984E+02 0.  0.
         24    2    4    4    0    0 -0.61047385908E+03 -0.18883336058E+03 -0.16706974706E+04  0.17905565733E+04  0.80786342289E+02 0.  0.
         11    1    3    3    0    0  0.12892190500E+03  0.79822090274E+02 -0.44928873074E+02  0.15814875061E+03  0.00000000000E+00 0. -1.
        -11    1    3    3    0    0  0.24506219358E+03  0.99047630367E+02 -0.20614409588E+03  0.33520337121E+03  0.00000000000E+00 0.  1.
          2    1    6    6  502    0 -0.17626542096E+03 -0.42723395102E+02 -0.38255578305E+03  0.42337183924E+03  0.00000000000E+00 0. -1.
          3    1    5    5  503    0  0.18723136507E+03 -0.31341095346E+01 -0.17823281872E+03  0.25851952417E+03  0.00000000000E+00 0. -1.
         -4    1    5    5    0  503  0.49258395437E+02  0.13097749473E+02 -0.25283701503E+01  0.51032668144E+02  0.00000000000E+00 0.  1.
         -1    1    6    6    0  502 -0.43420843812E+03 -0.14610996548E+03 -0.12881416876E+04  0.13671847340E+04  0.00000000000E+00 0.  1.
<mgrwt>
<rscale>  0 0.15183544E+04</rscale>
<asrwt>0</asrwt>
<pdfrwt beam="1">  1        2 0.36123019E+00 0.15183544E+04</pdfrwt>
<pdfrwt beam="2">  1       -2 0.37763790E-01 0.15183544E+04</pdfrwt>
<totfact> 0.27225842E+01</totfact>
</mgrwt>
</event>
<event>
12    1  0.1960998E-007  0.2106559E+04  0.7818608E-02  0.8558360E-01
         -2   -1    0    0    0  501 -0.00000000000E+00  0.00000000000E+00  0.83759335375E+03  0.83759335375E+03  0.00000000000E+00 0.  1.
          2   -1    0    0  501    0  0.00000000000E+00 -0.00000000000E+00 -0.13245062407E+04  0.13245062407E+04  0.00000000000E+00 0. -1.
         23    2    1    2    0    0 -0.30020943348E+03 -0.19898782584E+03  0.59397148239E+03  0.70082743680E+03  0.92925322167E+02 0.  0.
        254    2    1    2    0    0  0.30020943348E+03  0.19898782584E+03 -0.10808843694E+04  0.14612721577E+04  0.91503193391E+03 0.  0.
        -24    2    4    4    0    0 -0.18762274672E+03 -0.22583097109E+03 -0.50650982311E+03  0.59228197310E+03  0.89687302128E+02 0.  0.
         24    2    4    4    0    0  0.48783218020E+03  0.42481879693E+03 -0.57437454625E+03  0.86899018456E+03  0.82380672661E+02 0.  0.
         11    1    3    3    0    0 -0.31058741473E+02 -0.61172190400E+02  0.91091825246E+02  0.11403684899E+03  0.00000000000E+00 0. -1.
        -11    1    3    3    0    0 -0.26915069201E+03 -0.13781563544E+03  0.50287965715E+03  0.58679058782E+03  0.00000000000E+00 0.  1.
          2    1    6    6  502    0  0.85408653336E+00  0.60514531147E+01 -0.18801616442E+02  0.19769934988E+02  0.00000000000E+00 0. -1.
          3    1    5    5  503    0 -0.12602759801E+03 -0.84251639267E+02 -0.27484631195E+03  0.31388180797E+03  0.00000000000E+00 0. -1.
         -4    1    5    5    0  503 -0.61595148711E+02 -0.14157933183E+03 -0.23166351116E+03  0.27840016514E+03  0.00000000000E+00 0.  1.
         -1    1    6    6    0  502  0.48697809367E+03  0.41876734381E+03 -0.55557292981E+03  0.84922024958E+03  0.00000000000E+00 0.  1.
<mgrwt>
<rscale>  0 0.21065589E+04</rscale>
<asrwt>0</asrwt>
<pdfrwt beam="1">  1        2 0.20377019E+00 0.21065589E+04</pdfrwt>
<pdfrwt beam="2">  1       -2 0.12886052E+00 0.21065589E+04</pdfrwt>
<totfact> 0.65444338E+00</totfact>
</mgrwt>
</event>
<event>
12    1  0.2299819E-007  0.1773252E+04  0.7818608E-02  0.8720654E-01
         -2   -1    0    0    0  501 -0.00000000000E+00  0.00000000000E+00  0.42179338781E+03  0.42179338781E+03  0.00000000000E+00 0. -1.
          2   -1    0    0  501    0  0.00000000000E+00 -0.00000000000E+00 -0.18637230974E+04  0.18637230974E+04  0.00000000000E+00 0.  1.
         23    2    1    2    0    0 -0.15940066830E+03 -0.63468459126E+03 -0.55046770054E+03  0.85993110028E+03  0.90739762246E+02 0.  0.
        254    2    1    2    0    0  0.15940066830E+03  0.63468459126E+03 -0.89146200908E+03  0.14255853850E+04  0.89964219150E+03 0.  0.
        -24    2    4    4    0    0  0.12434304019E+02 -0.74661376424E+02  0.13041151416E+03  0.17049891914E+03  0.79585082501E+02 0.  0.
         24    2    4    4    0    0  0.14696636428E+03  0.70934596769E+03 -0.10218735232E+04  0.12550864658E+04  0.79029899855E+02 0.  0.
         13    1    3    3    0    0 -0.54689383732E+02 -0.24566938195E+03 -0.26963651390E+03  0.36884715472E+03  0.00000000000E+00 0.  1.
        -13    1    3    3    0    0 -0.10471128457E+03 -0.38901520932E+03 -0.28083118664E+03  0.49108394556E+03  0.00000000000E+00 0. -1.
          2    1    6    6  502    0  0.31814036962E+02  0.56848317330E+02 -0.73949529251E+02  0.98551494193E+02  0.00000000000E+00 0. -1.
          3    1    5    5  503    0 -0.10882540533E+02 -0.20208751241E+02 -0.42884909626E+01  0.23349828049E+02  0.00000000000E+00 0. -1.
         -4    1    5    5    0  503  0.23316844552E+02 -0.54452625183E+02  0.13470000512E+03  0.14714909109E+03  0.00000000000E+00 0.  1.
         -1    1    6    6    0  502  0.11515232732E+03  0.65249765036E+03 -0.94792399398E+03  0.11565349716E+04  0.00000000000E+00 0.  1.
<mgrwt>
<rscale>  0 0.17732525E+04</rscale>
<asrwt>0</asrwt>
<pdfrwt beam="1">  1        2 0.28672663E+00 0.17732525E+04</pdfrwt>
<pdfrwt beam="2">  1       -2 0.64891292E-01 0.17732525E+04</pdfrwt>
<totfact> 0.16486060E+01</totfact>
</mgrwt>
</event>
<event>
12    1  0.1960998E-007  0.1972385E+04  0.7818608E-02  0.8619641E-01
         -1   -1    0    0    0  501 -0.00000000000E+00  0.00000000000E+00  0.13177025414E+04  0.13177025414E+04  0.00000000000E+00 0.  1.
          1   -1    0    0  501    0  0.00000000000E+00 -0.00000000000E+00 -0.73808472763E+03  0.73808472763E+03  0.00000000000E+00 0. -1.
         23    2    1    2    0    0  0.58425532730E+03 -0.43599748207E+03 -0.50218685802E+02  0.73649388760E+03  0.91941493480E+02 0.  0.
        254    2    1    2    0    0 -0.58425532730E+03  0.43599748207E+03  0.62983649956E+03  0.13192933814E+04  0.90132841862E+03 0.  0.
        -24    2    4    4    0    0 -0.48481267412E+03  0.31713077155E+03  0.85381253922E+03  0.10348396622E+04  0.79259189221E+02 0.  0.
         24    2    4    4    0    0 -0.99442653182E+02  0.11886671051E+03 -0.22397603966E+03  0.28445371921E+03  0.82039721434E+02 0.  0.
         11    1    3    3    0    0  0.16105865255E+03 -0.88316631402E+02 -0.43437781196E+02  0.18874998749E+03  0.00000000000E+00 0. -1.
        -11    1    3    3    0    0  0.42319667475E+03 -0.34768085066E+03 -0.67809046068E+01  0.54774390010E+03  0.00000000000E+00 0.  1.
          2    1    6    6  502    0 -0.53549667451E+02  0.90524487574E+02 -0.84518286406E+02  0.13492809371E+03  0.00000000000E+00 0. -1.
          3    1    5    5  503    0 -0.42438342779E+03  0.24434673409E+03  0.72960129335E+03  0.87870624642E+03  0.00000000000E+00 0. -1.
         -4    1    5    5    0  503 -0.60429246329E+02  0.72784037462E+02  0.12421124587E+03  0.15613341578E+03  0.00000000000E+00 0.  1.
         -1    1    6    6    0  502 -0.45892985731E+02  0.28342222938E+02 -0.13945775325E+03  0.14952562550E+03  0.00000000000E+00 0.  1.
<mgrwt>
<rscale>  0 0.19723855E+04</rscale>
<asrwt>0</asrwt>
<pdfrwt beam="1">  1        1 0.11355150E+00 0.19723855E+04</pdfrwt>
<pdfrwt beam="2">  1       -1 0.20272347E+00 0.19723855E+04</pdfrwt>
<totfact> 0.33652735E+00</totfact>
</mgrwt>
</event>
<event>
12    1  0.1960998E-007  0.1593905E+04  0.7818608E-02  0.8824301E-01
          2   -1    0    0  501    0  0.00000000000E+00  0.00000000000E+00  0.48649674003E+03  0.48649674003E+03  0.00000000000E+00 0. -1.
         -2   -1    0    0    0  501 -0.00000000000E+00 -0.00000000000E+00 -0.13055243849E+04  0.13055243849E+04  0.00000000000E+00 0.  1.
         23    2    1    2    0    0  0.32945535374E+03  0.41126812159E+03 -0.15124443443E+03  0.55342853869E+03  0.75670143037E+02 0.  0.
        254    2    1    2    0    0 -0.32945535374E+03 -0.41126812159E+03 -0.66778321043E+03  0.12385925862E+04  0.90027489168E+03 0.  0.
        -24    2    4    4    0    0 -0.56167598197E+03 -0.25170405227E+03 -0.14199056253E+03  0.63656887294E+03  0.78890883443E+02 0.  0.
         24    2    4    4    0    0  0.23222062823E+03 -0.15956406933E+03 -0.52579264789E+03  0.60202371329E+03  0.81163602645E+02 0.  0.
         11    1    3    3    0    0  0.21805655008E+03  0.32037599286E+03 -0.94784306916E+02  0.39896553820E+03  0.00000000000E+00 0. -1.
        -11    1    3    3    0    0  0.11139880366E+03  0.90892128734E+02 -0.56460127517E+02  0.15446300049E+03  0.00000000000E+00 0.  1.
          2    1    6    6  502    0  0.23479071489E+03 -0.15378940573E+03 -0.48190283011E+03  0.55768109057E+03  0.00000000000E+00 0. -1.
          1    1    5    5  503    0 -0.39638583527E+03 -0.20843141337E+03 -0.80764117951E+02  0.45506947517E+03  0.00000000000E+00 0. -1.
         -2    1    5    5    0  503 -0.16529014670E+03 -0.43272638901E+02 -0.61226444581E+02  0.18149939777E+03  0.00000000000E+00 0.  1.
         -1    1    6    6    0  502 -0.25700866531E+01 -0.57746635912E+01 -0.43889817781E+02  0.44342622722E+02  0.00000000000E+00 0.  1.
<mgrwt>
<rscale>  0 0.15939051E+04</rscale>
<asrwt>0</asrwt>
<pdfrwt beam="1">  1        2 0.74845653E-01 0.15939051E+04</pdfrwt>
<pdfrwt beam="2">  1       -2 0.20084990E+00 0.15939051E+04</pdfrwt>
<totfact> 0.80000276E+00</totfact>
</mgrwt>
</event>
<event>
12    1  0.1960998E-007  0.3243738E+04  0.7818608E-02  0.8177361E-01
         -2   -1    0    0    0  501 -0.00000000000E+00  0.00000000000E+00  0.12746064461E+04  0.12746064461E+04  0.00000000000E+00 0.  1.
          2   -1    0    0  501    0  0.00000000000E+00 -0.00000000000E+00 -0.20637417608E+04  0.20637417608E+04  0.00000000000E+00 0. -1.
         23    2    1    2    0    0 -0.10371995183E+04  0.95606391551E+03  0.15098133736E+03  0.14215168597E+04  0.89854142299E+02 0.  0.
        254    2    1    2    0    0  0.10371995183E+04 -0.95606391551E+03 -0.94011665208E+03  0.19168313473E+04  0.89475250379E+03 0.  0.
        -24    2    4    4    0    0  0.60954786906E+03 -0.87859665703E+03 -0.25676337585E+03  0.11027558623E+04  0.81623343829E+02 0.  0.
         24    2    4    4    0    0  0.42765164924E+03 -0.77467258478E+02 -0.68335327623E+03  0.81407548495E+03  0.82825635159E+02 0.  0.
         11    1    3    3    0    0 -0.63328466021E+03  0.56045471790E+03  0.13123329829E+03  0.85579269116E+03  0.00000000000E+00 0.  1.
        -11    1    3    3    0    0 -0.40391485808E+03  0.39560919762E+03  0.19748039070E+02  0.56572416853E+03  0.00000000000E+00 0. -1.
          2    1    6    6  502    0  0.27586845190E+03 -0.85809706665E+02 -0.47903666091E+03  0.55941293425E+03  0.00000000000E+00 0. -1.
          1    1    5    5  503    0  0.39429914642E+03 -0.50926421248E+03 -0.13215156978E+03  0.65748451873E+03  0.00000000000E+00 0. -1.
         -2    1    5    5    0  503  0.21524872263E+03 -0.36933244456E+03 -0.12461180607E+03  0.44527134358E+03  0.00000000000E+00 0.  1.
         -3    1    6    6    0  502  0.15178319733E+03  0.83424481866E+01 -0.20431661532E+03  0.25466255070E+03  0.00000000000E+00 0.  1.
<mgrwt>
<rscale>  0 0.32437377E+04</rscale>
<asrwt>0</asrwt>
<pdfrwt beam="1">  1        2 0.31749873E+00 0.32437377E+04</pdfrwt>
<pdfrwt beam="2">  1       -2 0.19609330E+00 0.32437377E+04</pdfrwt>
<totfact> 0.72909150E-01</totfact>
</mgrwt>
</event>
<event>
12    1  0.1960998E-007  0.1235036E+04  0.7818608E-02  0.9082730E-01
         -2   -1    0    0    0  501 -0.00000000000E+00  0.00000000000E+00  0.35467072242E+03  0.35467072242E+03  0.00000000000E+00 0.  1.
          2   -1    0    0  501    0  0.00000000000E+00 -0.00000000000E+00 -0.10751620253E+04  0.10751620253E+04  0.00000000000E+00 0. -1.
         23    2    1    2    0    0 -0.16627131729E+03 -0.21599992309E+03 -0.78684518409E+02  0.29078245242E+03  0.63726473872E+02 0.  0.
        254    2    1    2    0    0  0.16627131729E+03  0.21599992309E+03 -0.64180678442E+03  0.11390502953E+04  0.90067613983E+03 0.  0.
        -24    2    4    4    0    0  0.50308277304E+03 -0.39727672437E+02 -0.34641270320E+03  0.61724013607E+03  0.79454767986E+02 0.  0.
         24    2    4    4    0    0 -0.33681145575E+03  0.25572759553E+03 -0.29539408122E+03  0.52181015918E+03  0.78674132754E+02 0.  0.
         13    1    3    3    0    0 -0.79928627285E+02 -0.59536572247E+02 -0.13578289576E+02  0.10058607678E+03  0.00000000000E+00 0. -1.
        -13    1    3    3    0    0 -0.86342690004E+02 -0.15646335084E+03 -0.65106228833E+02  0.19019637564E+03  0.00000000000E+00 0.  1.
          2    1    6    6  502    0 -0.18814432491E+03  0.18760157640E+03 -0.19929508543E+03  0.33213125348E+03  0.00000000000E+00 0. -1.
          3    1    5    5  503    0  0.49043472335E+03 -0.45373705208E+02 -0.34833032573E+03  0.60325699898E+03  0.00000000000E+00 0. -1.
         -4    1    5    5    0  503  0.12648049687E+02  0.56460327710E+01  0.19176225251E+01  0.13983137097E+02  0.00000000000E+00 0.  1.
         -3    1    6    6    0  502 -0.14866713084E+03  0.68126019124E+02 -0.96098995793E+02  0.18967890570E+03  0.00000000000E+00 0.  1.
<mgrwt>
<rscale>  0 0.12350360E+04</rscale>
<asrwt>0</asrwt>
<pdfrwt beam="1">  1        2 0.16540954E+00 0.12350360E+04</pdfrwt>
<pdfrwt beam="2">  1       -2 0.54564727E-01 0.12350360E+04</pdfrwt>
<totfact> 0.70238345E+01</totfact>
</mgrwt>
</event>
<event>
12    1  0.1960998E-007  0.3235710E+04  0.7818608E-02  0.8179449E-01
         -2   -1    0    0    0  501 -0.00000000000E+00  0.00000000000E+00  0.31034729535E+04  0.31034729535E+04  0.00000000000E+00 0.  1.
          2   -1    0    0  501    0  0.00000000000E+00 -0.00000000000E+00 -0.84339558519E+03  0.84339558519E+03  0.00000000000E+00 0. -1.
         23    2    1    2    0    0  0.87115511258E+03  0.11100982900E+04  0.45559917160E+03  0.14855612759E+04  0.89956964847E+02 0.  0.
        254    2    1    2    0    0 -0.87115511258E+03 -0.11100982900E+04  0.18044781967E+04  0.24613072629E+04  0.90036794482E+03 0.  0.
        -24    2    4    4    0    0 -0.92295700475E+03 -0.52910149295E+03  0.98436285696E+03  0.14516653676E+04  0.81019027885E+02 0.  0.
         24    2    4    4    0    0  0.51801892175E+02 -0.58099679706E+03  0.82011533978E+03  0.10096418953E+04  0.80912742441E+02 0.  0.
         13    1    3    3    0    0  0.21544613342E+03  0.31557897994E+03  0.15599850691E+03  0.41272589348E+03  0.00000000000E+00 0. -1.
        -13    1    3    3    0    0  0.65570897915E+03  0.79451931007E+03  0.29960066470E+03  0.10728353824E+04  0.00000000000E+00 0.  1.
          4    1    6    6  502    0  0.23992276798E+02 -0.41106965908E+02  0.80472300490E+02  0.93494401641E+02  0.00000000000E+00 0. -1.
          3    1    5    5  503    0 -0.55701957487E+03 -0.36254850802E+03  0.62906134455E+03  0.91511223501E+03  0.00000000000E+00 0. -1.
         -4    1    5    5    0  503 -0.36593742988E+03 -0.16655298493E+03  0.35530151241E+03  0.53655313259E+03  0.00000000000E+00 0.  1.
         -3    1    6    6    0  502  0.27809615378E+02 -0.53988983116E+03  0.73964303929E+03  0.91614749362E+03  0.00000000000E+00 0.  1.
<mgrwt>
<rscale>  0 0.32357104E+04</rscale>
<asrwt>0</asrwt>
<pdfrwt beam="1">  1        2 0.12975317E+00 0.32357104E+04</pdfrwt>
<pdfrwt beam="2">  1       -2 0.47745737E+00 0.32357104E+04</pdfrwt>
<totfact> 0.61649741E-02</totfact>
</mgrwt>
</event>
<event>
12    1  0.1960998E-007  0.4932103E+04  0.7818608E-02  0.7839067E-01
         -2   -1    0    0    0  501 -0.00000000000E+00  0.00000000000E+00  0.25380414371E+04  0.25380414371E+04  0.00000000000E+00 0.  1.
          2   -1    0    0  501    0  0.00000000000E+00 -0.00000000000E+00 -0.23961032991E+04  0.23961032991E+04  0.00000000000E+00 0. -1.
         23    2    1    2    0    0 -0.62640010858E+03  0.12481777113E+04 -0.18627048072E+04  0.23298515006E+04  0.90631786841E+02 0.  0.
        254    2    1    2    0    0  0.62640010858E+03 -0.12481777113E+04  0.20046429453E+04  0.26042932356E+04  0.90190089468E+03 0.  0.
        -24    2    4    4    0    0 -0.78253357805E+02 -0.78781699008E+03  0.11831193867E+04  0.14258373196E+04  0.80382714348E+02 0.  0.
         24    2    4    4    0    0  0.70465346639E+03 -0.46036072121E+03  0.82152355857E+03  0.11784559160E+04  0.73409041639E+02 0.  0.
         11    1    3    3    0    0 -0.32890358729E+03  0.66971000046E+03 -0.10693657763E+04  0.13039295295E+04  0.00000000000E+00 0. -1.
        -11    1    3    3    0    0 -0.29749652130E+03  0.57846771082E+03 -0.79333903096E+03  0.10259219711E+04  0.00000000000E+00 0.  1.
          2    1    6    6  502    0  0.61819860303E+03 -0.42989823767E+03  0.72318162537E+03  0.10440180414E+04  0.00000000000E+00 0. -1.
          3    1    5    5  503    0 -0.68622020998E+02 -0.47724405422E+03  0.77780989737E+03  0.91512791756E+03  0.00000000000E+00 0. -1.
         -4    1    5    5    0  503 -0.96313368071E+01 -0.31057293586E+03  0.40530948934E+03  0.51070940199E+03  0.00000000000E+00 0.  1.
         -1    1    6    6    0  502  0.86454863361E+02 -0.30462483543E+02  0.98341933193E+02  0.13443787460E+03  0.00000000000E+00 0.  1.
<mgrwt>
<rscale>  0 0.49321028E+04</rscale>
<asrwt>0</asrwt>
<pdfrwt beam="1">  1        2 0.36863128E+00 0.49321028E+04</pdfrwt>
<pdfrwt beam="2">  1       -2 0.39046791E+00 0.49321028E+04</pdfrwt>
<totfact> 0.25062854E-02</totfact>
</mgrwt>
</event>
<event>
12    1  0.1960998E-007  0.3369416E+04  0.7818608E-02  0.8145454E-01
         -2   -1    0    0    0  501 -0.00000000000E+00  0.00000000000E+00  0.28333654155E+04  0.28333654155E+04  0.00000000000E+00 0. -1.
          2   -1    0    0  501    0  0.00000000000E+00 -0.00000000000E+00 -0.10017207840E+04  0.10017207840E+04  0.00000000000E+00 0.  1.
         23    2    1    2    0    0  0.13303097758E+04  0.82061650592E+03  0.84910456727E+03  0.17811878696E+04  0.92282778298E+02 0.  0.
        254    2    1    2    0    0 -0.13303097758E+04 -0.82061650592E+03  0.98254006416E+03  0.20538983299E+04  0.89998767915E+03 0.  0.
        -24    2    4    4    0    0 -0.40238644673E+03 -0.57379687973E+02  0.70576031226E+03  0.81834982617E+03  0.79947098304E+02 0.  0.
         24    2    4    4    0    0 -0.92792332906E+03 -0.76323681795E+03  0.27677975190E+03  0.12355485038E+04  0.80005807137E+02 0.  0.
         11    1    3    3    0    0  0.48250929236E+03  0.29933980440E+03  0.25839264757E+03  0.62384797509E+03  0.00000000000E+00 0.  1.
        -11    1    3    3    0    0  0.84780048343E+03  0.52127670152E+03  0.59071191970E+03  0.11573398945E+04  0.00000000000E+00 0. -1.
          2    1    6    6  502    0 -0.91766305950E+03 -0.75551268643E+03  0.26439427948E+03  0.12177065513E+04  0.00000000000E+00 0. -1.
          1    1    5    5  503    0 -0.39140183979E+03 -0.50956431222E+02  0.64432169434E+03  0.75560730798E+03  0.00000000000E+00 0. -1.
         -2    1    5    5    0  503 -0.10984606936E+02 -0.64232567501E+01  0.61438617919E+02  0.62742518188E+02  0.00000000000E+00 0.  1.
         -1    1    6    6    0  502 -0.10260269558E+02 -0.77241315240E+01  0.12385472424E+02  0.17841952426E+02  0.00000000000E+00 0.  1.
<mgrwt>
<rscale>  0 0.33694160E+04</rscale>
<asrwt>0</asrwt>
<pdfrwt beam="1">  1        2 0.15411089E+00 0.33694160E+04</pdfrwt>
<pdfrwt beam="2">  1       -2 0.43590237E+00 0.33694160E+04</pdfrwt>
<totfact> 0.89679898E-02</totfact>
</mgrwt>
</event>
<event>
12    1  0.1960998E-007  0.2013675E+04  0.7818608E-02  0.8600254E-01
          1   -1    0    0  501    0  0.00000000000E+00  0.00000000000E+00  0.16527897993E+04  0.16527897993E+04  0.00000000000E+00 0. -1.
         -1   -1    0    0    0  501 -0.00000000000E+00 -0.00000000000E+00 -0.61333955242E+03  0.61333955242E+03  0.00000000000E+00 0.  1.
         23    2    1    2    0    0  0.67252958349E+03  0.28561181573E+03  0.46598877608E+02  0.73828562337E+03  0.94995033123E+02 0.  0.
        254    2    1    2    0    0 -0.67252958349E+03 -0.28561181573E+03  0.99285136931E+03  0.15278437284E+04  0.90259762180E+03 0.  0.
        -24    2    4    4    0    0  0.12640655385E+03  0.67981784356E+02  0.49365198460E+03  0.51877795037E+03  0.69556739686E+02 0.  0.
         24    2    4    4    0    0 -0.79893613734E+03 -0.35359360008E+03  0.49919938471E+03  0.10090657780E+04  0.75407778694E+02 0.  0.
         13    1    3    3    0    0  0.38548651738E+03  0.20521969873E+03  0.86961991723E+00  0.43671012819E+03  0.00000000000E+00 0.  1.
        -13    1    3    3    0    0  0.28704306612E+03  0.80392116997E+02  0.45729257690E+02  0.30157549518E+03  0.00000000000E+00 0. -1.
          2    1    6    6  502    0 -0.65151569545E+03 -0.25718730295E+03  0.38737292593E+03  0.80042225978E+03  0.00000000000E+00 0. -1.
          1    1    5    5  503    0  0.13345558145E+03  0.64958271482E+02  0.43496107670E+03  0.45958797579E+03  0.00000000000E+00 0. -1.
         -2    1    5    5    0  503 -0.70490276022E+01  0.30235128738E+01  0.58690907904E+02  0.59189974580E+02  0.00000000000E+00 0.  1.
         -1    1    6    6    0  502 -0.14742044190E+03 -0.96406297135E+02  0.11182645878E+03  0.20864351823E+03  0.00000000000E+00 0.  1.
<mgrwt>
<rscale>  0 0.20136746E+04</rscale>
<asrwt>0</asrwt>
<pdfrwt beam="1">  1        1 0.25427535E+00 0.20136746E+04</pdfrwt>
<pdfrwt beam="2">  1       -1 0.94359932E-01 0.20136746E+04</pdfrwt>
<totfact> 0.51707674E+00</totfact>
</mgrwt>
</event>
<event>
12    1  0.1960998E-007  0.2634697E+04  0.7818608E-02  0.8356510E-01
          1   -1    0    0  501    0  0.00000000000E+00  0.00000000000E+00  0.22594836073E+04  0.22594836073E+04  0.00000000000E+00 0. -1.
         -1   -1    0    0    0  501 -0.00000000000E+00 -0.00000000000E+00 -0.76805493801E+03  0.76805493801E+03  0.00000000000E+00 0.  1.
         23    2    1    2    0    0 -0.21089330073E+03  0.11091237161E+04  0.97352523583E+03  0.14934086393E+04  0.88806402542E+02 0.  0.
        254    2    1    2    0    0  0.21089330073E+03 -0.11091237161E+04  0.51790343345E+03  0.15341299060E+04  0.90038836076E+03 0.  0.
        -24    2    4    4    0    0  0.37302235012E+03 -0.71141153649E+03  0.69241910553E+03  0.10635019248E+04  0.79624608933E+02 0.  0.
         24    2    4    4    0    0 -0.16212904938E+03 -0.39771217963E+03 -0.17451567208E+03  0.47062798125E+03  0.81081258323E+02 0.  0.
         11    1    3    3    0    0 -0.84886668771E+02  0.67811956898E+03  0.59237096630E+03  0.90440878926E+03  0.00000000000E+00 0.  1.
        -11    1    3    3    0    0 -0.12600663196E+03  0.43100414715E+03  0.38115426953E+03  0.58899985003E+03  0.00000000000E+00 0. -1.
          4    1    6    6  502    0 -0.15575361375E+03 -0.33325120105E+03 -0.12302269802E+03  0.38787902163E+03  0.00000000000E+00 0. -1.
          1    1    5    5  503    0  0.25670243798E+03 -0.56162947632E+03  0.53492290458E+03  0.81698612239E+03  0.00000000000E+00 0. -1.
         -2    1    5    5    0  503  0.11631991214E+03 -0.14978206017E+03  0.15749620095E+03  0.24651580238E+03  0.00000000000E+00 0.  1.
         -3    1    6    6    0  502 -0.63754356280E+01 -0.64460978588E+02 -0.51492974059E+02  0.82748959615E+02  0.00000000000E+00 0.  1.
<mgrwt>
<rscale>  0 0.26346974E+04</rscale>
<asrwt>0</asrwt>
<pdfrwt beam="1">  1        1 0.34761286E+00 0.26346974E+04</pdfrwt>
<pdfrwt beam="2">  1       -1 0.11816230E+00 0.26346974E+04</pdfrwt>
<totfact> 0.11196374E+00</totfact>
</mgrwt>
</event>
<event>
12    1  0.1960998E-007  0.2838908E+04  0.7818608E-02  0.8291290E-01
          1   -1    0    0  501    0  0.00000000000E+00  0.00000000000E+00  0.10015693093E+04  0.10015693093E+04  0.00000000000E+00 0. -1.
         -1   -1    0    0    0  501 -0.00000000000E+00 -0.00000000000E+00 -0.20116922554E+04  0.20116922554E+04  0.00000000000E+00 0.  1.
         23    2    1    2    0    0 -0.10792535573E+04  0.74292683838E+02  0.26089383201E+03  0.11162438092E+04  0.87332731904E+02 0.  0.
        254    2    1    2    0    0  0.10792535573E+04 -0.74292683838E+02 -0.12710167781E+04  0.18970177555E+04  0.90160139229E+03 0.  0.
        -24    2    4    4    0    0  0.11850706503E+04 -0.21682181952E+03 -0.11514038286E+04  0.16683265439E+04  0.78603643503E+02 0.  0.
         24    2    4    4    0    0 -0.10581709303E+03  0.14252913568E+03 -0.11961294952E+03  0.22869121162E+03  0.80502179381E+02 0.  0.
         13    1    3    3    0    0 -0.41612798872E+03  0.57592443012E+02  0.13340479423E+03  0.44076777515E+03  0.00000000000E+00 0.  1.
        -13    1    3    3    0    0 -0.66312556859E+03  0.16700240826E+02  0.12748903778E+03  0.67547603401E+03  0.00000000000E+00 0. -1.
          2    1    6    6  502    0 -0.41064123347E+02  0.11883773135E+03 -0.71861435030E+02  0.14481966187E+03  0.00000000000E+00 0. -1.
          3    1    5    5  503    0  0.42273815313E+03 -0.11515786817E+03 -0.42712930968E+03  0.61188914674E+03  0.00000000000E+00 0. -1.
         -4    1    5    5    0  503  0.76233249721E+03 -0.10166395135E+03 -0.72427451889E+03  0.10564373971E+04  0.00000000000E+00 0.  1.
         -1    1    6    6    0  502 -0.64752969685E+02  0.23691404329E+02 -0.47751514491E+02  0.83871549754E+02  0.00000000000E+00 0.  1.
<mgrwt>
<rscale>  0 0.28389077E+04</rscale>
<asrwt>0</asrwt>
<pdfrwt beam="1">  1        1 0.15408759E+00 0.28389077E+04</pdfrwt>
<pdfrwt beam="2">  1       -1 0.30949112E+00 0.28389077E+04</pdfrwt>
<totfact> 0.37301576E-01</totfact>
</mgrwt>
</event>
<event>
12    1  0.1960998E-007  0.1275611E+04  0.7818608E-02  0.9049132E-01
          2   -1    0    0  501    0  0.00000000000E+00  0.00000000000E+00  0.25512136828E+04  0.25512136828E+04  0.00000000000E+00 0.  1.
         -2   -1    0    0    0  501 -0.00000000000E+00 -0.00000000000E+00 -0.15945199191E+03  0.15945199191E+03  0.00000000000E+00 0. -1.
         23    2    1    2    0    0 -0.29414552207E+03 -0.28036509692E+02  0.40633162064E+03  0.51049416343E+03  0.90505640385E+02 0.  0.
        254    2    1    2    0    0  0.29414552207E+03  0.28036509692E+02  0.19854300702E+04  0.22001715113E+04  0.90084098550E+03 0.  0.
        -24    2    4    4    0    0  0.50479941694E+03 -0.97129345578E+02  0.61409056706E+03  0.80486168224E+03  0.80240525121E+02 0.  0.
         24    2    4    4    0    0 -0.21065389487E+03  0.12516585527E+03  0.13713395032E+04  0.13953098290E+04  0.79220775294E+02 0.  0.
         13    1    3    3    0    0  0.57452851882E+01  0.42768714489E+01  0.12776255183E+02  0.14646932367E+02  0.00000000000E+00 0.  1.
        -13    1    3    3    0    0 -0.29989080726E+03 -0.32313381141E+02  0.39355536545E+03  0.49584723107E+03  0.00000000000E+00 0. -1.
          4    1    6    6  502    0  0.69999069095E+01  0.18345825587E+01  0.46151775618E+02  0.46715637453E+02  0.00000000000E+00 0. -1.
          3    1    5    5  503    0  0.83065616594E+02  0.13397608978E+02  0.10700738120E+03  0.13612484056E+03  0.00000000000E+00 0. -1.
         -4    1    5    5    0  503  0.42173380035E+03 -0.11052695456E+03  0.50708318586E+03  0.66873684168E+03  0.00000000000E+00 0.  1.
         -3    1    6    6    0  502 -0.21765380178E+03  0.12333127271E+03  0.13251877276E+04  0.13485941916E+04  0.00000000000E+00 0.  1.
<mgrwt>
<rscale>  0 0.12756114E+04</rscale>
<asrwt>0</asrwt>
<pdfrwt beam="1">  1        2 0.39249438E+00 0.12756114E+04</pdfrwt>
<pdfrwt beam="2">  1       -2 0.24531078E-01 0.12756114E+04</pdfrwt>
<totfact> 0.47648998E+01</totfact>
</mgrwt>
</event>
<event>
12    1  0.1960998E-007  0.1313251E+04  0.7818608E-02  0.9019122E-01
          1   -1    0    0  501    0  0.00000000000E+00  0.00000000000E+00  0.20371311897E+04  0.20371311897E+04  0.00000000000E+00 0. -1.
         -1   -1    0    0    0  501 -0.00000000000E+00 -0.00000000000E+00 -0.21164923332E+03  0.21164923332E+03  0.00000000000E+00 0.  1.
         23    2    1    2    0    0  0.23938926365E+02  0.30928458899E+03  0.72719421856E+03  0.79575291958E+03  0.90450253363E+02 0.  0.
        254    2    1    2    0    0 -0.23938926365E+02 -0.30928458899E+03  0.10982877378E+04  0.14530275034E+04  0.89934584090E+03 0.  0.
        -24    2    4    4    0    0  0.13194038787E+03  0.28916676520E+03  0.37655828753E+03  0.49925018478E+03  0.80180540321E+02 0.  0.
         24    2    4    4    0    0 -0.15587931423E+03 -0.59845135419E+03  0.72172945029E+03  0.95377731866E+03  0.79720701477E+02 0.  0.
         13    1    3    3    0    0  0.18524286410E+02  0.10625411114E+03  0.36381018472E+03  0.37946137593E+03  0.00000000000E+00 0. -1.
        -13    1    3    3    0    0  0.54146399555E+01  0.20303047785E+03  0.36338403385E+03  0.41629154365E+03  0.00000000000E+00 0.  1.
          2    1    6    6  502    0 -0.15092064558E+02 -0.41212350930E+02  0.24753130049E+02  0.50387952221E+02  0.00000000000E+00 0. -1.
          3    1    5    5  503    0 -0.10831755475E+02  0.13968074590E+02  0.17656777804E+02  0.24983911560E+02  0.00000000000E+00 0. -1.
         -4    1    5    5    0  503  0.14277214334E+03  0.27519869061E+03  0.35890150973E+03  0.47426627322E+03  0.00000000000E+00 0.  1.
         -1    1    6    6    0  502 -0.14078724967E+03 -0.55723900326E+03  0.69697632024E+03  0.90338936644E+03  0.00000000000E+00 0.  1.
<mgrwt>
<rscale>  0 0.13132513E+04</rscale>
<asrwt>0</asrwt>
<pdfrwt beam="1">  1        1 0.31340478E+00 0.13132513E+04</pdfrwt>
<pdfrwt beam="2">  1       -1 0.32561422E-01 0.13132513E+04</pdfrwt>
<totfact> 0.24400722E+01</totfact>
</mgrwt>
</event>
<event>
12    1  0.1960998E-007  0.2772013E+04  0.7818608E-02  0.8312010E-01
         -1   -1    0    0    0  501 -0.00000000000E+00  0.00000000000E+00  0.60945998108E+03  0.60945998108E+03  0.00000000000E+00 0.  1.
          1   -1    0    0  501    0  0.00000000000E+00 -0.00000000000E+00 -0.31519938553E+04  0.31519938553E+04  0.00000000000E+00 0. -1.
         23    2    1    2    0    0  0.43791479453E+03  0.11562752770E+04 -0.10666095473E+04  0.16354566895E+04  0.91218273428E+02 0.  0.
        254    2    1    2    0    0 -0.43791479453E+03 -0.11562752770E+04 -0.14759243269E+04  0.21259971468E+04  0.90153722394E+03 0.  0.
        -24    2    4    4    0    0 -0.33834472797E+03 -0.59756535258E+02 -0.11092499848E+03  0.37011139169E+03  0.81425355533E+02 0.  0.
         24    2    4    4    0    0 -0.99570066565E+02 -0.10965187418E+04 -0.13649993284E+04  0.17558857551E+04  0.87430368805E+02 0.  0.
         13    1    3    3    0    0  0.39452482346E+03  0.10705436822E+04 -0.10111579169E+04  0.15245176105E+04  0.00000000000E+00 0. -1.
        -13    1    3    3    0    0  0.43389971074E+02  0.85731594857E+02 -0.55451630407E+02  0.11093907905E+03  0.00000000000E+00 0.  1.
          2    1    6    6  502    0  0.31389243851E+00 -0.13570852784E+03 -0.12955311438E+03  0.18761906220E+03  0.00000000000E+00 0. -1.
          3    1    5    5  503    0 -0.15826410144E+03 -0.58952497736E+01 -0.86817277936E+02  0.18060874708E+03  0.00000000000E+00 0. -1.
         -4    1    5    5    0  503 -0.18008062652E+03 -0.53861285485E+02 -0.24107720544E+02  0.18950264461E+03  0.00000000000E+00 0.  1.
         -3    1    6    6    0  502 -0.99883959004E+02 -0.96081021392E+03 -0.12354462140E+04  0.15682666929E+04  0.00000000000E+00 0.  1.
<mgrwt>
<rscale>  0 0.27720131E+04</rscale>
<asrwt>0</asrwt>
<pdfrwt beam="1">  1        1 0.48492213E+00 0.27720131E+04</pdfrwt>
<pdfrwt beam="2">  1       -1 0.93763074E-01 0.27720131E+04</pdfrwt>
<totfact> 0.44161764E-01</totfact>
</mgrwt>
</event>
<event>
12    1  0.1960998E-007  0.1400665E+04  0.7818608E-02  0.8953337E-01
         -1   -1    0    0    0  501 -0.00000000000E+00  0.00000000000E+00  0.63853296671E+03  0.63853296671E+03  0.00000000000E+00 0.  1.
          1   -1    0    0  501    0  0.00000000000E+00 -0.00000000000E+00 -0.76811346265E+03  0.76811346265E+03  0.00000000000E+00 0. -1.
         23    2    1    2    0    0  0.56176294431E+02 -0.76400677936E+02  0.35525354355E+03  0.37923504889E+03  0.92850969047E+02 0.  0.
        254    2    1    2    0    0 -0.56176294431E+02  0.76400677936E+02 -0.48483403949E+03  0.10274113805E+04  0.90084252743E+03 0.  0.
        -24    2    4    4    0    0  0.67025641052E+02  0.29200622945E+03 -0.64949169636E+03  0.71902749224E+03  0.73491471322E+02 0.  0.
         24    2    4    4    0    0 -0.12320193548E+03 -0.21560555152E+03  0.16465765687E+03  0.30838388823E+03  0.79523630448E+02 0.  0.
         13    1    3    3    0    0  0.31410653037E+02 -0.36136877775E+01  0.23074381206E+03  0.23289996709E+03  0.00000000000E+00 0.  1.
        -13    1    3    3    0    0  0.24765641395E+02 -0.72786990158E+02  0.12450973149E+03  0.14633508180E+03  0.00000000000E+00 0. -1.
          2    1    6    6  502    0 -0.88649433428E+02 -0.87125450214E+02  0.54780766027E+02  0.13583261187E+03  0.00000000000E+00 0. -1.
          3    1    5    5  503    0  0.29218993799E+02  0.54155671215E+02 -0.81792279392E+02  0.10235508435E+03  0.00000000000E+00 0. -1.
         -2    1    5    5    0  503  0.37806647253E+02  0.23785055824E+03 -0.56769941697E+03  0.61667240790E+03  0.00000000000E+00 0.  1.
         -1    1    6    6    0  502 -0.34552502055E+02 -0.12848010130E+03  0.10987689084E+03  0.17255127635E+03  0.00000000000E+00 0.  1.
<mgrwt>
<rscale>  0 0.14006652E+04</rscale>
<asrwt>0</asrwt>
<pdfrwt beam="1">  1        1 0.11817130E+00 0.14006652E+04</pdfrwt>
<pdfrwt beam="2">  1       -1 0.98235841E-01 0.14006652E+04</pdfrwt>
<totfact> 0.22841826E+01</totfact>
</mgrwt>
</event>
<event>
12    1  0.1960998E-007  0.1303139E+04  0.7818608E-02  0.9027079E-01
         -2   -1    0    0    0  501 -0.00000000000E+00  0.00000000000E+00  0.63325754819E+03  0.63325754819E+03  0.00000000000E+00 0.  1.
          2   -1    0    0  501    0  0.00000000000E+00 -0.00000000000E+00 -0.67041136746E+03  0.67041136746E+03  0.00000000000E+00 0. -1.
         23    2    1    2    0    0 -0.33037195308E+02 -0.63091225813E+01 -0.33820498775E+03  0.35355941700E+03  0.97418613769E+02 0.  0.
        254    2    1    2    0    0  0.33037195308E+02  0.63091225813E+01  0.30105116848E+03  0.95010949865E+03  0.90052484257E+03 0.  0.
        -24    2    4    4    0    0 -0.79026446453E+02 -0.22520773929E+03  0.53616651044E+03  0.59239162743E+03  0.80558104902E+02 0.  0.
         24    2    4    4    0    0  0.11206364176E+03  0.23151686187E+03 -0.23511534196E+03  0.35771787122E+03  0.80774589000E+02 0.  0.
         13    1    3    3    0    0 -0.11381848736E+02 -0.30055819660E+02 -0.30728884498E+03  0.30896493818E+03  0.00000000000E+00 0. -1.
        -13    1    3    3    0    0 -0.21655346571E+02  0.23746697079E+02 -0.30916142767E+02  0.44594478816E+02  0.00000000000E+00 0.  1.
          4    1    6    6  502    0  0.84655366753E+02  0.20274822859E+03 -0.22927925559E+03  0.31755684902E+03  0.00000000000E+00 0. -1.
          1    1    5    5  503    0 -0.49472931409E+02 -0.20489969802E+03  0.49366801350E+03  0.53678633062E+03  0.00000000000E+00 0. -1.
         -2    1    5    5    0  503 -0.29553515044E+02 -0.20308041268E+02  0.42498496941E+02  0.55605296815E+02  0.00000000000E+00 0.  1.
         -3    1    6    6    0  502  0.27408275007E+02  0.28768633280E+02 -0.58360863697E+01  0.40161022195E+02  0.00000000000E+00 0.  1.
<mgrwt>
<rscale>  0 0.13031394E+04</rscale>
<asrwt>0</asrwt>
<pdfrwt beam="1">  1        2 0.10314021E+00 0.13031394E+04</pdfrwt>
<pdfrwt beam="2">  1       -2 0.97424238E-01 0.13031394E+04</pdfrwt>
<totfact> 0.37256848E+01</totfact>
</mgrwt>
</event>
<event>
12    1  0.1960998E-007  0.3635400E+04  0.7818608E-02  0.8082431E-01
         -2   -1    0    0    0  501 -0.00000000000E+00  0.00000000000E+00  0.15333124479E+04  0.15333124479E+04  0.00000000000E+00 0.  1.
          2   -1    0    0  501    0  0.00000000000E+00 -0.00000000000E+00 -0.21548338616E+04  0.21548338616E+04  0.00000000000E+00 0. -1.
         23    2    1    2    0    0 -0.42098129994E+03 -0.13380480092E+04 -0.12740204737E+04  0.18972196884E+04  0.93362993723E+02 0.  0.
        254    2    1    2    0    0  0.42098129994E+03  0.13380480092E+04  0.65249905998E+03  0.17909266212E+04  0.90225573382E+03 0.  0.
        -24    2    4    4    0    0  0.40256829601E+03  0.11228062562E+03  0.27347383878E+03  0.50560654977E+03  0.78624874146E+02 0.  0.
         24    2    4    4    0    0  0.18413003937E+02  0.12257673836E+04  0.37902522119E+03  0.12853200714E+04  0.74450320228E+02 0.  0.
         13    1    3    3    0    0 -0.30021333957E+03 -0.99488460312E+03 -0.88970142882E+03  0.13680248738E+04  0.00000000000E+00 0.  1.
        -13    1    3    3    0    0 -0.12076796038E+03 -0.34316340611E+03 -0.38431904486E+03  0.52919481459E+03  0.00000000000E+00 0. -1.
          4    1    6    6  502    0  0.14703254508E+00  0.80348997430E+02  0.44804134890E+02  0.91996703799E+02  0.00000000000E+00 0. -1.
          1    1    5    5  503    0  0.12172022061E+03  0.40896230729E+02  0.43213345818E+02  0.13548323531E+03  0.00000000000E+00 0. -1.
         -2    1    5    5    0  503  0.28084807540E+03  0.71384394892E+02  0.23026049297E+03  0.37012331446E+03  0.00000000000E+00 0.  1.
         -3    1    6    6    0  502  0.18265971392E+02  0.11454183862E+04  0.33422108630E+03  0.11933233676E+04  0.00000000000E+00 0.  1.
<mgrwt>
<rscale>  0 0.36354002E+04</rscale>
<asrwt>0</asrwt>
<pdfrwt beam="1">  1        2 0.33151290E+00 0.36354002E+04</pdfrwt>
<pdfrwt beam="2">  1       -2 0.23589422E+00 0.36354002E+04</pdfrwt>
<totfact> 0.34951550E-01</totfact>
</mgrwt>
</event>
<event>
12    1  0.1960998E-007  0.2074271E+04  0.7818608E-02  0.8572663E-01
          1   -1    0    0  501    0  0.00000000000E+00  0.00000000000E+00  0.52279708573E+03  0.52279708573E+03  0.00000000000E+00 0. -1.
         -1   -1    0    0    0  501 -0.00000000000E+00 -0.00000000000E+00 -0.20574895497E+04  0.20574895497E+04  0.00000000000E+00 0.  1.
         23    2    1    2    0    0  0.50311553228E+03 -0.18520040633E+03 -0.14275892526E+04  0.15276166314E+04  0.90427147410E+02 0.  0.
        254    2    1    2    0    0 -0.50311553228E+03  0.18520040633E+03 -0.10710321133E+03  0.10526700040E+04  0.89956578979E+03 0.  0.
        -24    2    4    4    0    0 -0.58669301428E+03  0.19110637135E+03  0.25512130360E+03  0.67241516941E+03  0.79529506012E+02 0.  0.
         24    2    4    4    0    0  0.83577482002E+02 -0.59059650242E+01 -0.36222451494E+03  0.38025483461E+03  0.79793885104E+02 0.  0.
         13    1    3    3    0    0  0.56672903872E+02 -0.45852391020E+02 -0.14237668037E+03  0.15995430256E+03  0.00000000000E+00 0. -1.
        -13    1    3    3    0    0  0.44644262841E+03 -0.13934801531E+03 -0.12852125722E+04  0.13676623288E+04  0.00000000000E+00 0.  1.
          4    1    6    6  502    0  0.59006204623E+02 -0.38990475780E+02 -0.27233598839E+03  0.28136965003E+03  0.00000000000E+00 0. -1.
          1    1    5    5  503    0 -0.36988459296E+03  0.15472582017E+03  0.18583598071E+03  0.44191594593E+03  0.00000000000E+00 0. -1.
         -2    1    5    5    0  503 -0.21680842132E+03  0.36380551183E+02  0.69285322891E+02  0.23049922349E+03  0.00000000000E+00 0.  1.
         -3    1    6    6    0  502  0.24571277379E+02  0.33084510756E+02 -0.89888526543E+02  0.98885184573E+02  0.00000000000E+00 0.  1.
<mgrwt>
<rscale>  0 0.20742705E+04</rscale>
<asrwt>0</asrwt>
<pdfrwt beam="1">  1        1 0.80430320E-01 0.20742705E+04</pdfrwt>
<pdfrwt beam="2">  1       -1 0.31653686E+00 0.20742705E+04</pdfrwt>
<totfact> 0.99077388E-01</totfact>
</mgrwt>
</event>
<event>
12    1  0.1960998E-007  0.2052611E+04  0.7818608E-02  0.8582411E-01
          1   -1    0    0  501    0  0.00000000000E+00  0.00000000000E+00  0.65581070183E+03  0.65581070183E+03  0.00000000000E+00 0. -1.
         -1   -1    0    0    0  501 -0.00000000000E+00 -0.00000000000E+00 -0.16061079214E+04  0.16061079214E+04  0.00000000000E+00 0.  1.
         23    2    1    2    0    0  0.61951103599E+03 -0.53206804230E+03 -0.51997732390E+03  0.97242431678E+03  0.91336242182E+02 0.  0.
        254    2    1    2    0    0 -0.61951103599E+03  0.53206804230E+03 -0.43031989570E+03  0.12894943065E+04  0.90040548004E+03 0.  0.
        -24    2    4    4    0    0 -0.72250486540E+03  0.49901304815E+03 -0.46504860383E+02  0.88277748001E+03  0.78141374535E+02 0.  0.
         24    2    4    4    0    0  0.10299382941E+03  0.33054994154E+02 -0.38381503532E+03  0.40671682649E+03  0.80026458582E+02 0.  0.
         11    1    3    3    0    0  0.28162443378E+03 -0.26435711736E+03 -0.19583549926E+03  0.43306875894E+03  0.00000000000E+00 0. -1.
        -11    1    3    3    0    0  0.33788660221E+03 -0.26771092494E+03 -0.32414182465E+03  0.53935555784E+03  0.00000000000E+00 0.  1.
          2    1    6    6  502    0  0.62426202662E+01  0.12492922276E+01 -0.16754969665E+03  0.16767060532E+03  0.00000000000E+00 0. -1.
          1    1    5    5  503    0 -0.19297106785E+03  0.92758265696E+02 -0.14132690850E+02  0.21457320856E+03  0.00000000000E+00 0. -1.
         -2    1    5    5    0  503 -0.52953379755E+03  0.40625478245E+03 -0.32372169533E+02  0.66820427144E+03  0.00000000000E+00 0.  1.
         -1    1    6    6    0  502  0.96751209144E+02  0.31805701926E+02 -0.21626533867E+03  0.23904622117E+03  0.00000000000E+00 0.  1.
<mgrwt>
<rscale>  0 0.20526108E+04</rscale>
<asrwt>0</asrwt>
<pdfrwt beam="1">  1        1 0.10089396E+00 0.20526108E+04</pdfrwt>
<pdfrwt beam="2">  1       -1 0.24709352E+00 0.20526108E+04</pdfrwt>
<totfact> 0.20216172E+00</totfact>
</mgrwt>
</event>
<event>
12    1  0.1960998E-007  0.1459105E+04  0.7818608E-02  0.8912113E-01
         -1   -1    0    0    0  501 -0.00000000000E+00  0.00000000000E+00  0.92035136088E+03  0.92035136088E+03  0.00000000000E+00 0.  1.
          1   -1    0    0  501    0  0.00000000000E+00 -0.00000000000E+00 -0.57830798675E+03  0.57830798675E+03  0.00000000000E+00 0. -1.
         23    2    1    2    0    0 -0.30111329383E+03  0.33039142514E+03  0.64520384390E+02  0.46091296375E+03  0.91924809638E+02 0.  0.
        254    2    1    2    0    0  0.30111329383E+03 -0.33039142514E+03  0.27752298974E+03  0.10377463839E+04  0.89446678971E+03 0.  0.
        -24    2    4    4    0    0  0.52962833334E+03  0.27801868868E+02  0.28086562377E+03  0.60528251047E+03  0.78754704436E+02 0.  0.
         24    2    4    4    0    0 -0.22851503951E+03 -0.35819329401E+03 -0.33426340311E+01  0.43246387341E+03  0.80574620350E+02 0.  0.
         11    1    3    3    0    0 -0.20538642426E+03  0.27790673573E+03  0.65597515902E+02  0.35173679240E+03  0.00000000000E+00 0.  1.
        -11    1    3    3    0    0 -0.95726869563E+02  0.52484689416E+02 -0.10771315115E+01  0.10917617135E+03  0.00000000000E+00 0. -1.
          4    1    6    6  502    0 -0.12593134012E+03 -0.25338521313E+03  0.21288151515E+02  0.28375333311E+03  0.00000000000E+00 0. -1.
          3    1    5    5  503    0  0.13742371380E+03 -0.25380197298E+02  0.60549200757E+02  0.15230113998E+03  0.00000000000E+00 0. -1.
         -4    1    5    5    0  503  0.39220461955E+03  0.53182066167E+02  0.22031642301E+03  0.45298137048E+03  0.00000000000E+00 0.  1.
         -3    1    6    6    0  502 -0.10258369939E+03 -0.10480808088E+03 -0.24630785546E+02  0.14871054030E+03  0.00000000000E+00 0.  1.
<mgrwt>
<rscale>  0 0.14591046E+04</rscale>
<asrwt>0</asrwt>
<pdfrwt beam="1">  1        1 0.88970460E-01 0.14591046E+04</pdfrwt>
<pdfrwt beam="2">  1       -1 0.14159252E+00 0.14591046E+04</pdfrwt>
<totfact> 0.14263981E+01</totfact>
</mgrwt>
</event>
<event>
12    1  0.1960998E-007  0.1813693E+04  0.7818608E-02  0.8699052E-01
         -1   -1    0    0    0  501 -0.00000000000E+00  0.00000000000E+00  0.66783634019E+03  0.66783634019E+03  0.00000000000E+00 0.  1.
          1   -1    0    0  501    0  0.00000000000E+00 -0.00000000000E+00 -0.12313950675E+04  0.12313950675E+04  0.00000000000E+00 0. -1.
         23    2    1    2    0    0  0.38190534155E+03 -0.14526334867E+03  0.35566490757E+03  0.54994728447E+03  0.94822775987E+02 0.  0.
        254    2    1    2    0    0 -0.38190534155E+03  0.14526334867E+03 -0.91922363489E+03  0.13492841232E+04  0.89924547478E+03 0.  0.
        -24    2    4    4    0    0  0.32708788426E+02 -0.33530157353E+03 -0.28185183521E+03  0.44631359394E+03  0.79109778647E+02 0.  0.
         24    2    4    4    0    0 -0.41461412998E+03  0.48056492220E+03 -0.63737179968E+03  0.90297052929E+03  0.79154560951E+02 0.  0.
         13    1    3    3    0    0  0.22259030624E+03 -0.45691516595E+02  0.23368814751E+03  0.32595139117E+03  0.00000000000E+00 0.  1.
        -13    1    3    3    0    0  0.15931503531E+03 -0.99571832074E+02  0.12197676006E+03  0.22399589330E+03  0.00000000000E+00 0. -1.
          4    1    6    6  502    0 -0.48267430352E+01  0.17106980142E+02 -0.53408165751E+01  0.18559917554E+02  0.00000000000E+00 0. -1.
          3    1    5    5  503    0 -0.13106384195E+02 -0.50934658649E+02 -0.75407206051E+02  0.91936736307E+02  0.00000000000E+00 0. -1.
         -4    1    5    5    0  503  0.45815172621E+02 -0.28436691488E+03 -0.20644462915E+03  0.35437685763E+03  0.00000000000E+00 0.  1.
         -3    1    6    6    0  502 -0.40978738694E+03  0.46345794206E+03 -0.63203098311E+03  0.88441061174E+03  0.00000000000E+00 0.  1.
<mgrwt>
<rscale>  0 0.18136928E+04</rscale>
<asrwt>0</asrwt>
<pdfrwt beam="1">  1        1 0.18944539E+00 0.18136928E+04</pdfrwt>
<pdfrwt beam="2">  1       -1 0.10274405E+00 0.18136928E+04</pdfrwt>
<totfact> 0.85559272E+00</totfact>
</mgrwt>
</event>
<event>
12    1  0.1960998E-007  0.2139511E+04  0.7818608E-02  0.8544035E-01
          1   -1    0    0  501    0  0.00000000000E+00  0.00000000000E+00  0.75625254030E+03  0.75625254030E+03  0.00000000000E+00 0. -1.
         -1   -1    0    0    0  501 -0.00000000000E+00 -0.00000000000E+00 -0.15132204422E+04  0.15132204422E+04  0.00000000000E+00 0.  1.
         23    2    1    2    0    0 -0.48803255655E+03 -0.51396824361E+03  0.23715059463E+03  0.75296155562E+03  0.91496273241E+02 0.  0.
        254    2    1    2    0    0  0.48803255655E+03  0.51396824361E+03 -0.99411849649E+03  0.15165114268E+04  0.89955332859E+03 0.  0.
        -24    2    4    4    0    0  0.39689452666E+03  0.61078257157E+03 -0.27806606010E+03  0.78374352901E+03  0.79703014066E+02 0.  0.
         24    2    4    4    0    0  0.91138029891E+02 -0.96814327962E+02 -0.71605243640E+03  0.73276789784E+03  0.80861275283E+02 0.  0.
         13    1    3    3    0    0 -0.93044246799E+02 -0.62330480849E+02  0.14223601161E+02  0.11289212344E+03  0.00000000000E+00 0.  1.
        -13    1    3    3    0    0 -0.39498830975E+03 -0.45163776276E+03  0.22292699347E+03  0.64006943218E+03  0.00000000000E+00 0. -1.
          2    1    6    6  502    0  0.51267145222E+02 -0.21864924073E+02 -0.14328638360E+03  0.15374453749E+03  0.00000000000E+00 0. -1.
          3    1    5    5  503    0  0.15381369720E+03  0.17269287286E+03 -0.74606668973E+02  0.24299719512E+03  0.00000000000E+00 0. -1.
         -4    1    5    5    0  503  0.24308082946E+03  0.43808969872E+03 -0.20345939113E+03  0.54074633388E+03  0.00000000000E+00 0.  1.
         -1    1    6    6    0  502  0.39870884669E+02 -0.74949403889E+02 -0.57276605280E+03  0.57902336034E+03  0.00000000000E+00 0.  1.
<mgrwt>
<rscale>  0 0.21395110E+04</rscale>
<asrwt>0</asrwt>
<pdfrwt beam="1">  1        1 0.11634654E+00 0.21395110E+04</pdfrwt>
<pdfrwt beam="2">  1       -1 0.23280315E+00 0.21395110E+04</pdfrwt>
<totfact> 0.20037756E+00</totfact>
</mgrwt>
</event>
<event>
12    1  0.1960998E-007  0.3654829E+04  0.7818608E-02  0.8078047E-01
         -2   -1    0    0    0  501 -0.00000000000E+00  0.00000000000E+00  0.10674236674E+04  0.10674236674E+04  0.00000000000E+00 0.  1.
          2   -1    0    0  501    0  0.00000000000E+00 -0.00000000000E+00 -0.31285086740E+04  0.31285086740E+04  0.00000000000E+00 0. -1.
         23    2    1    2    0    0  0.70134012151E+03  0.11066482871E+04  0.30261550644E+03  0.13476951359E+04  0.90319638040E+02 0.  0.
        254    2    1    2    0    0 -0.70134012151E+03 -0.11066482871E+04 -0.23637005131E+04  0.28482372055E+04  0.89934791140E+03 0.  0.
        -24    2    4    4    0    0  0.18775800813E+03 -0.40092813761E+03 -0.71337194633E+03  0.84334944318E+03  0.79638610899E+02 0.  0.
         24    2    4    4    0    0 -0.88909812964E+03 -0.70572014953E+03 -0.16503285668E+04  0.20048877623E+04  0.86337406003E+02 0.  0.
         13    1    3    3    0    0  0.63351404610E+03  0.94273870915E+03  0.25704102125E+03  0.11645455796E+04  0.00000000000E+00 0.  1.
        -13    1    3    3    0    0  0.67826075413E+02  0.16390957799E+03  0.45574485185E+02  0.18314955627E+03  0.00000000000E+00 0. -1.
          4    1    6    6  502    0 -0.51754140150E+03 -0.43815695970E+03 -0.10487937275E+04  0.12489190952E+04  0.00000000000E+00 0. -1.
          3    1    5    5  503    0  0.76921504599E+02 -0.83370898677E+02 -0.17499082099E+03  0.20854115193E+03  0.00000000000E+00 0. -1.
         -4    1    5    5    0  503  0.11083650353E+03 -0.31755723894E+03 -0.53838112534E+03  0.63480829125E+03  0.00000000000E+00 0.  1.
         -3    1    6    6    0  502 -0.37155672814E+03 -0.26756318983E+03 -0.60153483928E+03  0.75596866711E+03  0.00000000000E+00 0.  1.
<mgrwt>
<rscale>  0 0.36548292E+04</rscale>
<asrwt>0</asrwt>
<pdfrwt beam="1">  1        2 0.48130902E+00 0.36548292E+04</pdfrwt>
<pdfrwt beam="2">  1       -2 0.16421903E+00 0.36548292E+04</pdfrwt>
<totfact> 0.27434466E-01</totfact>
</mgrwt>
</event>
<event>
12    1  0.2402526E-007  0.2487822E+04  0.7818608E-02  0.8407337E-01
         -2   -1    0    0    0  501 -0.00000000000E+00  0.00000000000E+00  0.11651371096E+04  0.11651371096E+04  0.00000000000E+00 0.  1.
          2   -1    0    0  501    0  0.00000000000E+00 -0.00000000000E+00 -0.13280103316E+04  0.13280103316E+04  0.00000000000E+00 0. -1.
         23    2    1    2    0    0 -0.47200430603E+02 -0.10274774021E+04  0.25859063403E+03  0.10645736794E+04  0.92251343653E+02 0.  0.
        254    2    1    2    0    0  0.47200430603E+02  0.10274774021E+04 -0.42146385600E+03  0.14285737617E+04  0.89735919132E+03 0.  0.
        -24    2    4    4    0    0  0.38678183811E+03  0.15459895941E+03 -0.10373833439E+03  0.43636480125E+03  0.78431939980E+02 0.  0.
         24    2    4    4    0    0 -0.33958140751E+03  0.87287844271E+03 -0.31772552161E+03  0.99220896047E+03  0.79352416997E+02 0.  0.
         11    1    3    3    0    0 -0.73571526337E+02 -0.73071358057E+03  0.19645589440E+03  0.76023024457E+03  0.00000000000E+00 0.  1.
        -11    1    3    3    0    0  0.26371095734E+02 -0.29676382155E+03  0.62134739631E+02  0.30434343485E+03  0.00000000000E+00 0. -1.
          2    1    6    6  502    0 -0.15181918887E+03  0.31735982338E+03 -0.89855775696E+02  0.36309831180E+03  0.00000000000E+00 0. -1.
          1    1    5    5  503    0  0.36183993828E+02  0.28181662174E+02 -0.34268830355E+02  0.57252425505E+02  0.00000000000E+00 0. -1.
         -2    1    5    5    0  503  0.35059784428E+03  0.12641729724E+03 -0.69469504037E+02  0.37911237575E+03  0.00000000000E+00 0.  1.
         -1    1    6    6    0  502 -0.18776221864E+03  0.55551861933E+03 -0.22786974591E+03  0.62911064867E+03  0.00000000000E+00 0.  1.
<mgrwt>
<rscale>  0 0.24878216E+04</rscale>
<asrwt>0</asrwt>
<pdfrwt beam="1">  1        2 0.20430928E+00 0.24878216E+04</pdfrwt>
<pdfrwt beam="2">  1       -2 0.17925186E+00 0.24878216E+04</pdfrwt>
<totfact> 0.26086900E+00</totfact>
</mgrwt>
</event>
<event>
12    1  0.1960998E-007  0.2991344E+04  0.7818608E-02  0.8246207E-01
         -2   -1    0    0    0  501 -0.00000000000E+00  0.00000000000E+00  0.14445202218E+04  0.14445202218E+04  0.00000000000E+00 0.  1.
          2   -1    0    0  501    0  0.00000000000E+00 -0.00000000000E+00 -0.15486352586E+04  0.15486352586E+04  0.00000000000E+00 0. -1.
         23    2    1    2    0    0  0.97840032159E+03 -0.40038887357E+03  0.80637179318E+03  0.13329562921E+04  0.94649714358E+02 0.  0.
        254    2    1    2    0    0 -0.97840032159E+03  0.40038887357E+03 -0.91048682996E+03  0.16601991883E+04  0.89983144970E+03 0.  0.
        -24    2    4    4    0    0 -0.52406889123E+03  0.37723491685E+03 -0.99730450884E+03  0.11908086856E+04  0.80340880781E+02 0.  0.
         24    2    4    4    0    0 -0.45433143036E+03  0.23153956716E+02  0.86817678880E+02  0.46939050267E+03  0.76400132892E+02 0.  0.
         11    1    3    3    0    0  0.46669651025E+03 -0.22749713120E+03  0.43684395485E+03  0.67852282074E+03  0.00000000000E+00 0.  1.
        -11    1    3    3    0    0  0.51170381134E+03 -0.17289174237E+03  0.36952783833E+03  0.65443347135E+03  0.00000000000E+00 0. -1.
          2    1    6    6  502    0 -0.45033416019E+03  0.14012788656E+02  0.88797245587E+02  0.45921908159E+03  0.00000000000E+00 0. -1.
          3    1    5    5  503    0 -0.23477276218E+03  0.21076663393E+03 -0.52405776713E+03  0.61170039000E+03  0.00000000000E+00 0. -1.
         -2    1    5    5    0  503 -0.28929612905E+03  0.16646828292E+03 -0.47324674171E+03  0.57910829561E+03  0.00000000000E+00 0.  1.
         -1    1    6    6    0  502 -0.39972701729E+01  0.91411680599E+01 -0.19795667063E+01  0.10171421075E+02  0.00000000000E+00 0.  1.
<mgrwt>
<rscale>  0 0.29913441E+04</rscale>
<asrwt>0</asrwt>
<pdfrwt beam="1">  1        2 0.23825158E+00 0.29913441E+04</pdfrwt>
<pdfrwt beam="2">  1       -2 0.22223388E+00 0.29913441E+04</pdfrwt>
<totfact> 0.97671772E-01</totfact>
</mgrwt>
</event>
<event>
12    1  0.1960998E-007  0.2424380E+04  0.7818608E-02  0.8430432E-01
         -2   -1    0    0    0  501 -0.00000000000E+00  0.00000000000E+00  0.67280343819E+03  0.67280343819E+03  0.00000000000E+00 0.  1.
          2   -1    0    0  501    0  0.00000000000E+00 -0.00000000000E+00 -0.21840025118E+04  0.21840025118E+04  0.00000000000E+00 0. -1.
         23    2    1    2    0    0  0.31818326952E+03  0.89510538115E+03 -0.15490274092E+03  0.96673307479E+03  0.90131805649E+02 0.  0.
        254    2    1    2    0    0 -0.31818326952E+03 -0.89510538115E+03 -0.13562963326E+04  0.18900728752E+04  0.91125270650E+03 0.  0.
        -24    2    4    4    0    0 -0.15882646744E+03 -0.10594059499E+04 -0.11051238986E+04  0.15411430233E+04  0.79095977618E+02 0.  0.
         24    2    4    4    0    0 -0.15935680208E+03  0.16430056872E+03 -0.25117243401E+03  0.34892985182E+03  0.79216050352E+02 0.  0.
         13    1    3    3    0    0  0.19727258614E+03  0.61857891741E+03 -0.68934426471E+02  0.65292289396E+03  0.00000000000E+00 0.  1.
        -13    1    3    3    0    0  0.12091068339E+03  0.27652646374E+03 -0.85968314453E+02  0.31381018083E+03  0.00000000000E+00 0. -1.
          4    1    6    6  502    0 -0.26218457756E+02  0.75983185541E+02 -0.63320662401E+02  0.10232476875E+03  0.00000000000E+00 0. -1.
          1    1    5    5  503    0 -0.13998838136E+03 -0.77317562620E+03 -0.84565781327E+03  0.11543545526E+04  0.00000000000E+00 0. -1.
         -4    1    5    5    0  503 -0.18838086077E+02 -0.28623032366E+03 -0.25946608536E+03  0.38678847077E+03  0.00000000000E+00 0.  1.
         -3    1    6    6    0  502 -0.13313834433E+03  0.88317383180E+02 -0.18785177161E+03  0.24660508307E+03  0.00000000000E+00 0.  1.
<mgrwt>
<rscale>  0 0.24243798E+04</rscale>
<asrwt>0</asrwt>
<pdfrwt beam="1">  1        2 0.33600039E+00 0.24243798E+04</pdfrwt>
<pdfrwt beam="2">  1       -2 0.10350822E+00 0.24243798E+04</pdfrwt>
<totfact> 0.35988946E+00</totfact>
</mgrwt>
</event>
<event>
12    1  0.1960998E-007  0.1492667E+04  0.7818608E-02  0.8889344E-01
         -1   -1    0    0    0  501 -0.00000000000E+00  0.00000000000E+00  0.21499721433E+04  0.21499721433E+04  0.00000000000E+00 0.  1.
          1   -1    0    0  501    0  0.00000000000E+00 -0.00000000000E+00 -0.25907935695E+03  0.25907935695E+03  0.00000000000E+00 0. -1.
         23    2    1    2    0    0  0.13412659796E+03  0.44899207032E+03  0.56888412368E+03  0.74326144815E+03  0.96044836609E+02 0.  0.
        254    2    1    2    0    0 -0.13412659796E+03 -0.44899207032E+03  0.13220086627E+04  0.16657900521E+04  0.89864663246E+03 0.  0.
        -24    2    4    4    0    0 -0.94729837721E+02 -0.71866295806E+03  0.10103115475E+04  0.12459722285E+04  0.79165533473E+02 0.  0.
         24    2    4    4    0    0 -0.39396760242E+02  0.26967088775E+03  0.31169711521E+03  0.41981782366E+03  0.69407643768E+02 0.  0.
         11    1    3    3    0    0  0.52408191434E+02  0.68180272277E+02  0.13643726507E+03  0.16127707635E+03  0.00000000000E+00 0.  1.
        -11    1    3    3    0    0  0.81718406529E+02  0.38081179804E+03  0.43244685861E+03  0.58198437180E+03  0.00000000000E+00 0. -1.
          4    1    6    6  502    0 -0.53656439495E+02  0.24845996481E+03  0.26932468314E+03  0.37033383934E+03  0.00000000000E+00 0. -1.
          3    1    5    5  503    0 -0.92093247142E+02 -0.72013030259E+03  0.10040984083E+04  0.12390651446E+04  0.00000000000E+00 0. -1.
         -4    1    5    5    0  503 -0.26365905790E+01  0.14673445263E+01  0.62131391590E+01  0.69070839034E+01  0.00000000000E+00 0.  1.
         -3    1    6    6    0  502  0.14259679252E+02  0.21210922936E+02  0.42372432066E+02  0.49483984312E+02  0.00000000000E+00 0.  1.
<mgrwt>
<rscale>  0 0.14926666E+04</rscale>
<asrwt>0</asrwt>
<pdfrwt beam="1">  1        1 0.39858364E-01 0.14926666E+04</pdfrwt>
<pdfrwt beam="2">  1       -1 0.33076493E+00 0.14926666E+04</pdfrwt>
<totfact> 0.21472842E+00</totfact>
</mgrwt>
</event>
<event>
12    1  0.1960998E-007  0.1158096E+04  0.7818608E-02  0.9150347E-01
         -1   -1    0    0    0  501 -0.00000000000E+00  0.00000000000E+00  0.11339277286E+03  0.11339277286E+03  0.00000000000E+00 0.  1.
          1   -1    0    0  501    0  0.00000000000E+00 -0.00000000000E+00 -0.29569491446E+04  0.29569491446E+04  0.00000000000E+00 0. -1.
         23    2    1    2    0    0  0.17036178578E+03  0.12472625239E+03 -0.61604936989E+03  0.65826826643E+03  0.96023478142E+02 0.  0.
        254    2    1    2    0    0 -0.17036178578E+03 -0.12472625239E+03 -0.22275070019E+04  0.24120736510E+04  0.90096175204E+03 0.  0.
        -24    2    4    4    0    0  0.22317398171E+03 -0.35933897714E+03 -0.13668808283E+04  0.14331796517E+04  0.81912077895E+02 0.  0.
         24    2    4    4    0    0 -0.39353576749E+03  0.23461272475E+03 -0.86062617352E+03  0.97889399936E+03  0.87421510717E+02 0.  0.
         11    1    3    3    0    0  0.37206079015E+02  0.15699371852E+02 -0.39143706123E+02  0.56240486496E+02  0.00000000000E+00 0.  1.
        -11    1    3    3    0    0  0.13315570677E+03  0.10902688054E+03 -0.57690566377E+03  0.60202777994E+03  0.00000000000E+00 0. -1.
          4    1    6    6  502    0 -0.32143526502E+03  0.18794974635E+03 -0.76204091239E+03  0.84814626623E+03  0.00000000000E+00 0. -1.
          3    1    5    5  503    0  0.14543693541E+03 -0.18917906493E+03 -0.87402250808E+03  0.90601101837E+03  0.00000000000E+00 0. -1.
         -4    1    5    5    0  503  0.77737046299E+02 -0.17015991221E+03 -0.49285832026E+03  0.52716863330E+03  0.00000000000E+00 0.  1.
         -3    1    6    6    0  502 -0.72100502473E+02  0.46662978393E+02 -0.98585261125E+02  0.13074773314E+03  0.00000000000E+00 0.  1.
<mgrwt>
<rscale>  0 0.11580961E+04</rscale>
<asrwt>0</asrwt>
<pdfrwt beam="1">  1        1 0.45491525E+00 0.11580961E+04</pdfrwt>
<pdfrwt beam="2">  1       -1 0.17445042E-01 0.11580961E+04</pdfrwt>
<totfact> 0.16609195E+01</totfact>
</mgrwt>
</event>
<event>
12    1  0.1960998E-007  0.2377202E+04  0.7818608E-02  0.8448088E-01
          2   -1    0    0  501    0  0.00000000000E+00  0.00000000000E+00  0.11682434222E+04  0.11682434222E+04  0.00000000000E+00 0. -1.
         -2   -1    0    0    0  501 -0.00000000000E+00 -0.00000000000E+00 -0.12093131018E+04  0.12093131018E+04  0.00000000000E+00 0.  1.
         23    2    1    2    0    0  0.81675011018E+03 -0.34795155769E+03 -0.50747985427E+03  0.10266761187E+04  0.91526068967E+02 0.  0.
        254    2    1    2    0    0 -0.81675011018E+03  0.34795155769E+03  0.46641017467E+03  0.13508804053E+04  0.90509026582E+03 0.  0.
        -24    2    4    4    0    0  0.17718725653E+03 -0.22562475584E+02  0.15080352618E+02  0.19554987710E+03  0.78153363439E+02 0.  0.
         24    2    4    4    0    0 -0.99393736671E+03  0.37051403328E+03  0.45132982205E+03  0.11553305282E+04  0.76797677076E+02 0.  0.
         11    1    3    3    0    0  0.63303114493E+03 -0.30939061912E+03 -0.39251191424E+03  0.80654608577E+03  0.00000000000E+00 0.  1.
        -11    1    3    3    0    0  0.18371896525E+03 -0.38560938573E+02 -0.11496794003E+03  0.22013003296E+03  0.00000000000E+00 0. -1.
          4    1    6    6  502    0 -0.98137874825E+03  0.36302193201E+03  0.43439483367E+03  0.11329554458E+04  0.00000000000E+00 0. -1.
          3    1    5    5  503    0  0.17336374679E+03 -0.13585411739E+01  0.14834388854E+02  0.17400256731E+03  0.00000000000E+00 0. -1.
         -2    1    5    5    0  503  0.38235097397E+01 -0.21203934411E+02  0.24596376427E+00  0.21547309795E+02  0.00000000000E+00 0.  1.
         -3    1    6    6    0  502 -0.12558618468E+02  0.74921012632E+01  0.16934988382E+02  0.22375082361E+02  0.00000000000E+00 0.  1.
<mgrwt>
<rscale>  0 0.23772018E+04</rscale>
<asrwt>0</asrwt>
<pdfrwt beam="1">  1        2 0.17972976E+00 0.23772018E+04</pdfrwt>
<pdfrwt beam="2">  1       -2 0.18604817E+00 0.23772018E+04</pdfrwt>
<totfact> 0.29388779E+00</totfact>
</mgrwt>
</event>
<event>
12    1  0.1960998E-007  0.1871884E+04  0.7818608E-02  0.8668979E-01
         -3   -1    0    0    0  501 -0.00000000000E+00  0.00000000000E+00  0.11822618150E+04  0.11822618150E+04  0.00000000000E+00 0.  1.
          3   -1    0    0  501    0  0.00000000000E+00 -0.00000000000E+00 -0.74094196659E+03  0.74094196659E+03  0.00000000000E+00 0. -1.
         23    2    1    2    0    0  0.81073852187E+02  0.68879657135E+03  0.34971550894E+03  0.78196104890E+03  0.90268812946E+02 0.  0.
        254    2    1    2    0    0 -0.81073852187E+02 -0.68879657135E+03  0.91604339521E+02  0.11412427327E+04  0.90168172533E+03 0.  0.
        -24    2    4    4    0    0 -0.21531133959E+03 -0.49602901859E+03 -0.33990695434E+03  0.64348943648E+03  0.78346391224E+02 0.  0.
         24    2    4    4    0    0  0.13423748740E+03 -0.19276755276E+03  0.43151129386E+03  0.49775329625E+03  0.79858091523E+02 0.  0.
         11    1    3    3    0    0  0.23933666401E+02  0.48454287773E+03  0.27125428786E+03  0.55581787433E+03  0.00000000000E+00 0.  1.
        -11    1    3    3    0    0  0.57140185785E+02  0.20425369362E+03  0.78461221074E+02  0.22614317456E+03  0.00000000000E+00 0. -1.
          2    1    6    6  502    0  0.10191420168E+03 -0.15628472437E+03  0.26387078355E+03  0.32317055867E+03  0.00000000000E+00 0. -1.
          3    1    5    5  503    0 -0.15223879078E+03 -0.25273606714E+03 -0.18179183062E+03  0.34655510202E+03  0.00000000000E+00 0. -1.
         -2    1    5    5    0  503 -0.63072548814E+02 -0.24329295145E+03 -0.15811512371E+03  0.29693433447E+03  0.00000000000E+00 0.  1.
         -1    1    6    6    0  502  0.32323285722E+02 -0.36482828383E+02  0.16764051030E+03  0.17458273758E+03  0.00000000000E+00 0.  1.
<mgrwt>
<rscale>  0 0.18718840E+04</rscale>
<asrwt>0</asrwt>
<pdfrwt beam="1">  1        3 0.11399107E+00 0.18718840E+04</pdfrwt>
<pdfrwt beam="2">  1       -3 0.18188643E+00 0.18718840E+04</pdfrwt>
<totfact> 0.30219907E-01</totfact>
</mgrwt>
</event>
<event>
12    1  0.1960998E-007  0.1483072E+04  0.7818608E-02  0.8895789E-01
         -2   -1    0    0    0  501 -0.00000000000E+00  0.00000000000E+00  0.71598227294E+03  0.71598227294E+03  0.00000000000E+00 0.  1.
          2   -1    0    0  501    0  0.00000000000E+00 -0.00000000000E+00 -0.76800159579E+03  0.76800159579E+03  0.00000000000E+00 0. -1.
         23    2    1    2    0    0 -0.41738088714E+03  0.72657595246E+00 -0.21456707844E+03  0.47955736492E+03  0.98635197773E+02 0.  0.
        254    2    1    2    0    0  0.41738088714E+03 -0.72657595246E+00  0.16254775559E+03  0.10044265038E+04  0.89902363476E+03 0.  0.
        -24    2    4    4    0    0 -0.65817177991E+02  0.32363335092E+03  0.23379856896E+03  0.41241887189E+03  0.79731476228E+02 0.  0.
         24    2    4    4    0    0  0.48319806513E+03 -0.32435992687E+03 -0.71250813370E+02  0.59200763192E+03  0.81893989658E+02 0.  0.
         11    1    3    3    0    0 -0.32511832736E+03 -0.15835159753E+02 -0.20648556030E+03  0.38547239289E+03  0.00000000000E+00 0.  1.
        -11    1    3    3    0    0 -0.92262559775E+02  0.16561735705E+02 -0.80815181393E+01  0.94084972026E+02  0.00000000000E+00 0. -1.
          4    1    6    6  502    0  0.30761687828E+03 -0.16772162646E+03 -0.18419456015E+02  0.35085319457E+03  0.00000000000E+00 0. -1.
          3    1    5    5  503    0 -0.24739756800E+02  0.25972372761E+03  0.20244557052E+03  0.33023125121E+03  0.00000000000E+00 0. -1.
         -4    1    5    5    0  503 -0.41077421191E+02  0.63909623303E+02  0.31352998439E+02  0.82187620683E+02  0.00000000000E+00 0.  1.
         -3    1    6    6    0  502  0.17558118685E+03 -0.15663830041E+03 -0.52831357355E+02  0.24115443734E+03  0.00000000000E+00 0.  1.
<mgrwt>
<rscale>  0 0.14830719E+04</rscale>
<asrwt>0</asrwt>
<pdfrwt beam="1">  1        2 0.11815409E+00 0.14830719E+04</pdfrwt>
<pdfrwt beam="2">  1       -2 0.11015112E+00 0.14830719E+04</pdfrwt>
<totfact> 0.23033638E+01</totfact>
</mgrwt>
</event>
<event>
12    1  0.1960998E-007  0.4037528E+04  0.7818608E-02  0.7997019E-01
         -2   -1    0    0    0  501 -0.00000000000E+00  0.00000000000E+00  0.23158980721E+04  0.23158980721E+04  0.00000000000E+00 0.  1.
          2   -1    0    0  501    0  0.00000000000E+00 -0.00000000000E+00 -0.17597524024E+04  0.17597524024E+04  0.00000000000E+00 0. -1.
         23    2    1    2    0    0  0.10468888086E+04  0.15919851301E+04  0.52936859169E+02  0.19083163197E+04  0.92065372988E+02 0.  0.
        254    2    1    2    0    0 -0.10468888086E+04 -0.15919851301E+04  0.50320881058E+03  0.21673341548E+04  0.90206729197E+03 0.  0.
        -24    2    4    4    0    0 -0.99019953781E+03 -0.16818172976E+04  0.54612837454E+03  0.20282083998E+04  0.79803285909E+02 0.  0.
         24    2    4    4    0    0 -0.56689270820E+02  0.89832167463E+02 -0.42919563963E+02  0.13912575497E+03  0.78932851128E+02 0.  0.
         11    1    3    3    0    0  0.71440298617E+03  0.10207789236E+04  0.96687636258E+01  0.12459754101E+04  0.00000000000E+00 0.  1.
        -11    1    3    3    0    0  0.33248582246E+03  0.57120620653E+03  0.43268095544E+02  0.66234090966E+03  0.00000000000E+00 0. -1.
          4    1    6    6  502    0 -0.27093325438E+02  0.33574104041E+02 -0.59439680110E+02  0.73446200154E+02  0.00000000000E+00 0. -1.
          1    1    5    5  503    0 -0.20908407049E+03 -0.29733795053E+03  0.91063297393E+02  0.37472460486E+03  0.00000000000E+00 0. -1.
         -2    1    5    5    0  503 -0.78111546732E+03 -0.13844793471E+04  0.45506507715E+03  0.16534837949E+04  0.00000000000E+00 0.  1.
         -3    1    6    6    0  502 -0.29595945382E+02  0.56258063422E+02  0.16520116146E+02  0.65679554814E+02  0.00000000000E+00 0.  1.
<mgrwt>
<rscale>  0 0.40375276E+04</rscale>
<asrwt>0</asrwt>
<pdfrwt beam="1">  1        2 0.27073114E+00 0.40375276E+04</pdfrwt>
<pdfrwt beam="2">  1       -2 0.35629201E+00 0.40375276E+04</pdfrwt>
<totfact> 0.10140623E-01</totfact>
</mgrwt>
</event>
<event>
12    1  0.1960998E-007  0.1870888E+04  0.7818608E-02  0.8669485E-01
         -1   -1    0    0    0  501 -0.00000000000E+00  0.00000000000E+00  0.32705067685E+03  0.32705067685E+03  0.00000000000E+00 0.  1.
          1   -1    0    0  501    0  0.00000000000E+00 -0.00000000000E+00 -0.26755957705E+04  0.26755957705E+04  0.00000000000E+00 0. -1.
         23    2    1    2    0    0  0.31679178019E+03 -0.30169325118E+03 -0.18143516928E+04  0.18686373024E+04  0.92506501308E+02 0.  0.
        254    2    1    2    0    0 -0.31679178019E+03  0.30169325118E+03 -0.53419340087E+03  0.11340091450E+04  0.89957673471E+03 0.  0.
        -24    2    4    4    0    0  0.27797203805E+03  0.22202124566E+03 -0.33980777322E+03  0.49832650421E+03  0.79360535482E+02 0.  0.
         24    2    4    4    0    0 -0.59476381824E+03  0.79672005526E+02 -0.19438562764E+03  0.63568264081E+03  0.78835395836E+02 0.  0.
         13    1    3    3    0    0  0.20415243699E+03 -0.25120295937E+03 -0.13160085202E+04  0.13552341383E+04  0.00000000000E+00 0.  1.
        -13    1    3    3    0    0  0.11263934321E+03 -0.50490291813E+02 -0.49834317260E+03  0.51340316408E+03  0.00000000000E+00 0. -1.
          2    1    6    6  502    0 -0.24197048790E+03  0.22393079270E+02 -0.11825894219E+03  0.27025237172E+03  0.00000000000E+00 0. -1.
          1    1    5    5  503    0  0.59535777684E+02  0.47185891265E+02 -0.32202620178E+02  0.82510762360E+02  0.00000000000E+00 0. -1.
         -2    1    5    5    0  503  0.21843626036E+03  0.17483535439E+03 -0.30760515304E+03  0.41581574185E+03  0.00000000000E+00 0.  1.
         -1    1    6    6    0  502 -0.35279333034E+03  0.57278926256E+02 -0.76126685457E+02  0.36543026908E+03  0.00000000000E+00 0.  1.
<mgrwt>
<rscale>  0 0.18708879E+04</rscale>
<asrwt>0</asrwt>
<pdfrwt beam="1">  1        1 0.41163011E+00 0.18708879E+04</pdfrwt>
<pdfrwt beam="2">  1       -1 0.50315490E-01 0.18708879E+04</pdfrwt>
<totfact> 0.38033510E+00</totfact>
</mgrwt>
</event>
<event>
12    1  0.1960998E-007  0.2149601E+04  0.7818608E-02  0.8539703E-01
          1   -1    0    0  501    0  0.00000000000E+00  0.00000000000E+00  0.89010954575E+03  0.89010954575E+03  0.00000000000E+00 0. -1.
         -1   -1    0    0    0  501 -0.00000000000E+00 -0.00000000000E+00 -0.12978132787E+04  0.12978132787E+04  0.00000000000E+00 0.  1.
         23    2    1    2    0    0 -0.65514446471E+03 -0.59247456436E+03 -0.13641260149E+03  0.89836229985E+03  0.90587222533E+02 0.  0.
        254    2    1    2    0    0  0.65514446471E+03  0.59247456436E+03 -0.27129113150E+03  0.12895605246E+04  0.89951491906E+03 0.  0.
        -24    2    4    4    0    0  0.69842535809E+03  0.63937661805E+03 -0.47486834434E+03  0.10622627649E+04  0.79383857356E+02 0.  0.
         24    2    4    4    0    0 -0.43280893373E+02 -0.46902053691E+02  0.20357721284E+03  0.22729775969E+03  0.78406323724E+02 0.  0.
         13    1    3    3    0    0 -0.17409781706E+03 -0.18969551252E+03 -0.59999592074E+01  0.25754696054E+03  0.00000000000E+00 0. -1.
        -13    1    3    3    0    0 -0.48104664766E+03 -0.40277905184E+03 -0.13041264228E+03  0.64081533931E+03  0.00000000000E+00 0.  1.
          4    1    6    6  502    0 -0.67237773098E+00 -0.20066478237E+02  0.27636698830E+01  0.20267054839E+02  0.00000000000E+00 0. -1.
          1    1    5    5  503    0  0.81506465671E+02  0.10925375288E+03 -0.80478099432E+02  0.15829216959E+03  0.00000000000E+00 0. -1.
         -2    1    5    5    0  503  0.61691889242E+03  0.53012286517E+03 -0.39439024491E+03  0.90397059536E+03  0.00000000000E+00 0.  1.
         -3    1    6    6    0  502 -0.42608515642E+02 -0.26835575454E+02  0.20081354296E+03  0.20703070485E+03  0.00000000000E+00 0.  1.
<mgrwt>
<rscale>  0 0.21496009E+04</rscale>
<asrwt>0</asrwt>
<pdfrwt beam="1">  1        1 0.13693993E+00 0.21496009E+04</pdfrwt>
<pdfrwt beam="2">  1       -1 0.19966358E+00 0.21496009E+04</pdfrwt>
<totfact> 0.25689064E+00</totfact>
</mgrwt>
</event>
<event>
12    1  0.1960998E-007  0.1784382E+04  0.7818608E-02  0.8714649E-01
          1   -1    0    0  501    0  0.00000000000E+00  0.00000000000E+00  0.80067694224E+03  0.80067694224E+03  0.00000000000E+00 0. -1.
         -1   -1    0    0    0  501 -0.00000000000E+00 -0.00000000000E+00 -0.99416482707E+03  0.99416482707E+03  0.00000000000E+00 0.  1.
         23    2    1    2    0    0 -0.35638852689E+03  0.55376584057E+03 -0.14448925204E+03  0.68028324797E+03  0.90767644182E+02 0.  0.
        254    2    1    2    0    0  0.35638852689E+03 -0.55376584057E+03 -0.48998632799E+02  0.11145585213E+04  0.89786994781E+03 0.  0.
        -24    2    4    4    0    0  0.59739415511E+02 -0.11535617435E+03  0.39227289604E+03  0.42100923844E+03  0.80590999233E+02 0.  0.
         24    2    4    4    0    0  0.29664911138E+03 -0.43840966622E+03 -0.44127152884E+03  0.69354928289E+03  0.78014837785E+02 0.  0.
         11    1    3    3    0    0 -0.11297571812E+03  0.22267188284E+03 -0.18113294127E+02  0.25034850052E+03  0.00000000000E+00 0.  1.
        -11    1    3    3    0    0 -0.24341280878E+03  0.33109395774E+03 -0.12637595791E+03  0.42993474745E+03  0.00000000000E+00 0. -1.
          4    1    6    6  502    0  0.14369083810E+03 -0.24877412736E+03 -0.28138827585E+03  0.40213801758E+03  0.00000000000E+00 0. -1.
          1    1    5    5  503    0  0.58485134812E+02 -0.12749681128E+03  0.36831179959E+03  0.39411867451E+03  0.00000000000E+00 0. -1.
         -2    1    5    5    0  503  0.12542806992E+01  0.12140636935E+02  0.23961096454E+02  0.26890563932E+02  0.00000000000E+00 0.  1.
         -3    1    6    6    0  502  0.15295827328E+03 -0.18963553886E+03 -0.15988325300E+03  0.29141126532E+03  0.00000000000E+00 0.  1.
<mgrwt>
<rscale>  0 0.17843821E+04</rscale>
<asrwt>0</asrwt>
<pdfrwt beam="1">  1        1 0.12318107E+00 0.17843821E+04</pdfrwt>
<pdfrwt beam="2">  1       -1 0.15294843E+00 0.17843821E+04</pdfrwt>
<totfact> 0.69049337E+00</totfact>
</mgrwt>
</event>
<event>
12    1  0.1960998E-007  0.1976782E+04  0.7818608E-02  0.8617553E-01
          2   -1    0    0  501    0  0.00000000000E+00  0.00000000000E+00  0.21522568895E+04  0.21522568895E+04  0.00000000000E+00 0. -1.
         -2   -1    0    0    0  501 -0.00000000000E+00 -0.00000000000E+00 -0.45390352844E+03  0.45390352844E+03  0.00000000000E+00 0.  1.
         23    2    1    2    0    0 -0.43413280679E+03  0.54624336608E+03  0.21372223682E+03  0.73529317733E+03  0.90142959821E+02 0.  0.
        254    2    1    2    0    0  0.43413280679E+03 -0.54624336608E+03  0.14846311243E+04  0.18708672406E+04  0.89953407274E+03 0.  0.
        -24    2    4    4    0    0  0.46894290366E+03 -0.35115979648E+03  0.15403809921E+04  0.16499604679E+04  0.79845445688E+02 0.  0.
         24    2    4    4    0    0 -0.34810096872E+02 -0.19508356960E+03 -0.55749867866E+02  0.22090677272E+03  0.80139955677E+02 0.  0.
         13    1    3    3    0    0 -0.17136017397E+03  0.24257997676E+03  0.47936241602E+02  0.30084420820E+03  0.00000000000E+00 0.  1.
        -13    1    3    3    0    0 -0.26277263282E+03  0.30366338932E+03  0.16578599522E+03  0.43444896914E+03  0.00000000000E+00 0. -1.
          4    1    6    6  502    0  0.16497819185E+02 -0.12589812907E+03 -0.41616731867E+02  0.13362061709E+03  0.00000000000E+00 0. -1.
          3    1    5    5  503    0  0.16762541630E+03 -0.15434510053E+03  0.68664288192E+03  0.72346329384E+03  0.00000000000E+00 0. -1.
         -4    1    5    5    0  503  0.30131748736E+03 -0.19681469595E+03  0.85373811021E+03  0.92649717407E+03  0.00000000000E+00 0.  1.
         -3    1    6    6    0  502 -0.51307916058E+02 -0.69185440530E+02 -0.14133135999E+02  0.87286155630E+02  0.00000000000E+00 0.  1.
<mgrwt>
<rscale>  0 0.19767822E+04</rscale>
<asrwt>0</asrwt>
<pdfrwt beam="1">  1        2 0.33111644E+00 0.19767822E+04</pdfrwt>
<pdfrwt beam="2">  1       -2 0.69831313E-01 0.19767822E+04</pdfrwt>
<totfact> 0.95546183E+00</totfact>
</mgrwt>
</event>
<event>
12    1  0.2025651E-007  0.2938200E+04  0.7818608E-02  0.8261602E-01
          2   -1    0    0  501    0  0.00000000000E+00  0.00000000000E+00  0.20020449513E+04  0.20020449513E+04  0.00000000000E+00 0. -1.
         -2   -1    0    0    0  501 -0.00000000000E+00 -0.00000000000E+00 -0.10780249902E+04  0.10780249902E+04  0.00000000000E+00 0.  1.
         23    2    1    2    0    0 -0.14030532391E+03  0.13131796247E+04  0.59697071207E+03  0.14526837446E+04  0.98943014525E+02 0.  0.
        254    2    1    2    0    0  0.14030532391E+03 -0.13131796247E+04  0.32704924904E+03  0.16273861970E+04  0.89291562426E+03 0.  0.
        -24    2    4    4    0    0  0.34295000689E+02 -0.22125652463E+03  0.46135896334E+03  0.51910037959E+03  0.80514062559E+02 0.  0.
         24    2    4    4    0    0  0.10601032322E+03 -0.10919231001E+04 -0.13430971430E+03  0.11082858174E+04  0.82000661537E+02 0.  0.
         13    1    3    3    0    0  0.10645508256E+02  0.26499821518E+03  0.11090954797E+03  0.28746879609E+03  0.00000000000E+00 0. -1.
        -13    1    3    3    0    0 -0.15095083217E+03  0.10481814095E+04  0.48606116410E+03  0.11652149485E+04  0.00000000000E+00 0.  1.
          4    1    6    6  502    0  0.90845549208E+02 -0.51214751647E+03 -0.62661945484E+02  0.52390315121E+03  0.00000000000E+00 0. -1.
          3    1    5    5  503    0 -0.25117077274E+02 -0.46735980486E+02  0.89344762152E+02  0.10391152952E+03  0.00000000000E+00 0. -1.
         -4    1    5    5    0  503  0.59412077963E+02 -0.17452054414E+03  0.37201420119E+03  0.41518885007E+03  0.00000000000E+00 0.  1.
         -3    1    6    6    0  502  0.15164774016E+02 -0.57977558362E+03 -0.71647768815E+02  0.58438266616E+03  0.00000000000E+00 0.  1.
<mgrwt>
<rscale>  0 0.29381998E+04</rscale>
<asrwt>0</asrwt>
<pdfrwt beam="1">  1        2 0.30800692E+00 0.29381998E+04</pdfrwt>
<pdfrwt beam="2">  1       -2 0.16585000E+00 0.29381998E+04</pdfrwt>
<totfact> 0.13087719E+00</totfact>
</mgrwt>
</event>
<event>
12    1  0.1960998E-007  0.2175689E+04  0.7818608E-02  0.8528616E-01
          2   -1    0    0  501    0  0.00000000000E+00  0.00000000000E+00  0.90990964688E+03  0.90990964688E+03  0.00000000000E+00 0. -1.
         -2   -1    0    0    0  501 -0.00000000000E+00 -0.00000000000E+00 -0.13005745928E+04  0.13005745928E+04  0.00000000000E+00 0.  1.
         23    2    1    2    0    0  0.57914841762E+03 -0.61868463702E+03 -0.46521826957E+03  0.97111548584E+03  0.91943889235E+02 0.  0.
        254    2    1    2    0    0 -0.57914841762E+03  0.61868463702E+03  0.74553323658E+02  0.12393687538E+04  0.90127306639E+03 0.  0.
        -24    2    4    4    0    0 -0.40734624363E+03  0.83517770556E+03 -0.33780455434E+02  0.93333692531E+03  0.80770879067E+02 0.  0.
         24    2    4    4    0    0 -0.17180217399E+03 -0.21649306854E+03  0.10833377909E+03  0.30603182853E+03  0.74391106106E+02 0.  0.
         13    1    3    3    0    0  0.19090654634E+03 -0.14581391982E+03 -0.14421594422E+03  0.28018787842E+03  0.00000000000E+00 0. -1.
        -13    1    3    3    0    0  0.38824187128E+03 -0.47287071720E+03 -0.32100232535E+03  0.69092760741E+03  0.00000000000E+00 0.  1.
          2    1    6    6  502    0 -0.96005529835E+02 -0.10947922903E+03  0.95792912510E+02  0.17429585605E+03  0.00000000000E+00 0. -1.
          1    1    5    5  503    0 -0.36087990626E+03  0.73113670851E+03 -0.55901047877E+02  0.81726380100E+03  0.00000000000E+00 0. -1.
         -2    1    5    5    0  503 -0.46466337375E+02  0.10404099705E+03  0.22120592443E+02  0.11607312431E+03  0.00000000000E+00 0.  1.
         -1    1    6    6    0  502 -0.75796644152E+02 -0.10701383951E+03  0.12540866583E+02  0.13173597248E+03  0.00000000000E+00 0.  1.
<mgrwt>
<rscale>  0 0.21756887E+04</rscale>
<asrwt>0</asrwt>
<pdfrwt beam="1">  1        2 0.13998610E+00 0.21756887E+04</pdfrwt>
<pdfrwt beam="2">  1       -2 0.20008840E+00 0.21756887E+04</pdfrwt>
<totfact> 0.35111044E+00</totfact>
</mgrwt>
</event>
<event>
12    1  0.1960998E-007  0.1852553E+04  0.7818608E-02  0.8678841E-01
         -2   -1    0    0    0  501 -0.00000000000E+00  0.00000000000E+00  0.74654629118E+03  0.74654629118E+03  0.00000000000E+00 0.  1.
          2   -1    0    0  501    0  0.00000000000E+00 -0.00000000000E+00 -0.11492759428E+04  0.11492759428E+04  0.00000000000E+00 0. -1.
         23    2    1    2    0    0 -0.64130813519E+03  0.17645613012E+03  0.83057360434E+02  0.67642594192E+03  0.90777968998E+02 0.  0.
        254    2    1    2    0    0  0.64130813519E+03 -0.17645613012E+03 -0.48578701207E+03  0.12193962921E+04  0.89918040788E+03 0.  0.
        -24    2    4    4    0    0  0.73875228212E+03  0.25302550297E+02 -0.60021097719E+03  0.95557139278E+03  0.80425842723E+02 0.  0.
         24    2    4    4    0    0 -0.97444146925E+02 -0.20175868041E+03  0.11442396511E+03  0.26382489930E+03  0.79427997623E+02 0.  0.
         13    1    3    3    0    0 -0.12999401934E+03  0.47569691299E+02  0.53126136946E+02  0.14826903595E+03  0.00000000000E+00 0.  1.
        -13    1    3    3    0    0 -0.51131411586E+03  0.12888643882E+03  0.29931223487E+02  0.52815690597E+03  0.00000000000E+00 0. -1.
          4    1    6    6  502    0 -0.78488704527E+02 -0.19653342498E+03  0.12013729501E+03  0.24334920079E+03  0.00000000000E+00 0. -1.
          1    1    5    5  503    0  0.60099446527E+03  0.49793226462E+02 -0.50160268040E+03  0.78439719637E+03  0.00000000000E+00 0. -1.
         -2    1    5    5    0  503  0.13775781685E+03 -0.24490676165E+02 -0.98608296782E+02  0.17117419641E+03  0.00000000000E+00 0.  1.
         -3    1    6    6    0  502 -0.18955442398E+02 -0.52252554312E+01 -0.57133298992E+01  0.20475698508E+02  0.00000000000E+00 0.  1.
<mgrwt>
<rscale>  0 0.18525525E+04</rscale>
<asrwt>0</asrwt>
<pdfrwt beam="1">  1        2 0.17681168E+00 0.18525525E+04</pdfrwt>
<pdfrwt beam="2">  1       -2 0.11485328E+00 0.18525525E+04</pdfrwt>
<totfact> 0.11302795E+01</totfact>
</mgrwt>
</event>
<event>
12    1  0.2771840E-007  0.2123824E+04  0.7818608E-02  0.8550821E-01
          1   -1    0    0  501    0  0.00000000000E+00  0.00000000000E+00  0.32563118370E+04  0.32563118370E+04  0.00000000000E+00 0. -1.
         -1   -1    0    0    0  501 -0.00000000000E+00 -0.00000000000E+00 -0.34629877303E+03  0.34629877303E+03  0.00000000000E+00 0.  1.
         23    2    1    2    0    0  0.80843850686E+03  0.18461138748E+03  0.75739676369E+03  0.11264379780E+04  0.86939500810E+02 0.  0.
        254    2    1    2    0    0 -0.80843850686E+03 -0.18461138748E+03  0.21526163003E+04  0.24761726320E+04  0.90001099091E+03 0.  0.
        -24    2    4    4    0    0 -0.30581204581E+03 -0.52119657971E+03  0.11780385500E+04  0.13263694737E+04  0.79462402952E+02 0.  0.
         24    2    4    4    0    0 -0.50262646105E+03  0.33658519222E+03  0.97457775031E+03  0.11498031584E+04  0.79514530753E+02 0.  0.
         11    1    3    3    0    0  0.31285248077E+03  0.40432294092E+02  0.32754182406E+03  0.45474728327E+03  0.00000000000E+00 0. -1.
        -11    1    3    3    0    0  0.49558602609E+03  0.14417909339E+03  0.42985493963E+03  0.67169069470E+03  0.00000000000E+00 0.  1.
          4    1    6    6  502    0 -0.35733228507E+02  0.24791222082E+02  0.11672105594E+03  0.12456031957E+03  0.00000000000E+00 0. -1.
          3    1    5    5  503    0 -0.32502972209E+02 -0.46646158256E+02  0.68303752176E+02  0.88869060104E+02  0.00000000000E+00 0. -1.
         -4    1    5    5    0  503 -0.27330907360E+03 -0.47455042145E+03  0.11097347978E+04  0.12375004136E+04  0.00000000000E+00 0.  1.
         -3    1    6    6    0  502 -0.46689323255E+03  0.31179397014E+03  0.85785669437E+03  0.10252428388E+04  0.00000000000E+00 0.  1.
<mgrwt>
<rscale>  0 0.21238237E+04</rscale>
<asrwt>0</asrwt>
<pdfrwt beam="1">  1        1 0.50097103E+00 0.21238237E+04</pdfrwt>
<pdfrwt beam="2">  1       -1 0.53276737E-01 0.21238237E+04</pdfrwt>
<totfact> 0.12600102E+00</totfact>
</mgrwt>
</event>
<event>
12    1  0.1960998E-007  0.8093697E+04  0.7818608E-02  0.7474082E-01
          2   -1    0    0  501    0  0.00000000000E+00  0.00000000000E+00  0.36157273817E+04  0.36157273817E+04  0.00000000000E+00 0. -1.
         -2   -1    0    0    0  501 -0.00000000000E+00 -0.00000000000E+00 -0.45293742389E+04  0.45293742389E+04  0.00000000000E+00 0.  1.
         23    2    1    2    0    0  0.86708392724E+03  0.38693945080E+04  0.48139425340E+02  0.39666670202E+04  0.89896883571E+02 0.  0.
        254    2    1    2    0    0 -0.86708392724E+03 -0.38693945080E+04 -0.96178628257E+03  0.41784346005E+04  0.90013024709E+03 0.  0.
        -24    2    4    4    0    0 -0.83682743080E+03 -0.20476847948E+04 -0.77460607511E+03  0.23451549608E+04  0.80274844309E+02 0.  0.
         24    2    4    4    0    0 -0.30256496443E+02 -0.18217097131E+04 -0.18718020747E+03  0.18332796397E+04  0.79599450969E+02 0.  0.
         11    1    3    3    0    0  0.45605686013E+03  0.20170968551E+04  0.69840936140E+02  0.20691895367E+04  0.00000000000E+00 0. -1.
        -11    1    3    3    0    0  0.41102706711E+03  0.18522976529E+04 -0.21701510800E+02  0.18974774835E+04  0.00000000000E+00 0.  1.
          2    1    6    6  502    0  0.24280539452E+02 -0.73322347206E+03 -0.89335197169E+02  0.73904464143E+03  0.00000000000E+00 0. -1.
          3    1    5    5  503    0 -0.35711082952E+03 -0.86184748200E+03 -0.28502709414E+03  0.97547407510E+03  0.00000000000E+00 0. -1.
         -4    1    5    5    0  503 -0.47971660128E+03 -0.11858373128E+04 -0.48957898097E+03  0.13696808857E+04  0.00000000000E+00 0.  1.
         -1    1    6    6    0  502 -0.54537035895E+02 -0.10884862411E+04 -0.97845010297E+02  0.10942349982E+04  0.00000000000E+00 0.  1.
<mgrwt>
<rscale>  0 0.80936969E+04</rscale>
<asrwt>0</asrwt>
<pdfrwt beam="1">  1        2 0.55626575E+00 0.80936969E+04</pdfrwt>
<pdfrwt beam="2">  1       -2 0.69682681E+00 0.80936969E+04</pdfrwt>
<totfact> 0.93032965E-05</totfact>
</mgrwt>
</event>
<event>
12    1  0.1960998E-007  0.1884349E+04  0.7818608E-02  0.8662687E-01
         -1   -1    0    0    0  501 -0.00000000000E+00  0.00000000000E+00  0.92981488848E+03  0.92981488848E+03  0.00000000000E+00 0.  1.
          1   -1    0    0  501    0  0.00000000000E+00 -0.00000000000E+00 -0.95469802816E+03  0.95469802816E+03  0.00000000000E+00 0. -1.
         23    2    1    2    0    0  0.16566516390E+03 -0.69060907701E+03  0.13015182921E+03  0.72762295555E+03  0.90054555772E+02 0.  0.
        254    2    1    2    0    0 -0.16566516390E+03  0.69060907701E+03 -0.15503496888E+03  0.11568899611E+04  0.89998483138E+03 0.  0.
        -24    2    4    4    0    0 -0.31958585124E+03  0.71252237216E+03  0.15605570923E+03  0.80046866967E+03  0.81076874659E+02 0.  0.
         24    2    4    4    0    0  0.15392068734E+03 -0.21913295142E+02 -0.31109067811E+03  0.35642129142E+03  0.78018949482E+02 0.  0.
         11    1    3    3    0    0  0.87656967895E+02 -0.19242374343E+03  0.45978623135E+02  0.21639009876E+03  0.00000000000E+00 0. -1.
        -11    1    3    3    0    0  0.78008196006E+02 -0.49818533359E+03  0.84173206071E+02  0.51123285679E+03  0.00000000000E+00 0.  1.
          2    1    6    6  502    0  0.25085739419E+02 -0.34643869337E+02 -0.10043688130E+03  0.10916528354E+03  0.00000000000E+00 0. -1.
          3    1    5    5  503    0 -0.21509076780E+03  0.54727459387E+03  0.95053330550E+02  0.59565816970E+03  0.00000000000E+00 0. -1.
         -4    1    5    5    0  503 -0.10449508343E+03  0.16524777829E+03  0.61002378678E+02  0.20481049996E+03  0.00000000000E+00 0.  1.
         -1    1    6    6    0  502  0.12883494792E+03  0.12730574195E+02 -0.21065379681E+03  0.24725600788E+03  0.00000000000E+00 0.  1.
<mgrwt>
<rscale>  0 0.18843486E+04</rscale>
<asrwt>0</asrwt>
<pdfrwt beam="1">  1        1 0.14687662E+00 0.18843486E+04</pdfrwt>
<pdfrwt beam="2">  1       -1 0.14304844E+00 0.18843486E+04</pdfrwt>
<totfact> 0.60977983E+00</totfact>
</mgrwt>
</event>
<event>
12    1  0.1960998E-007  0.1337724E+04  0.7818608E-02  0.9000173E-01
          2   -1    0    0  501    0  0.00000000000E+00  0.00000000000E+00  0.82393294400E+03  0.82393294400E+03  0.00000000000E+00 0. -1.
         -2   -1    0    0    0  501 -0.00000000000E+00 -0.00000000000E+00 -0.54297652248E+03  0.54297652248E+03  0.00000000000E+00 0.  1.
         23    2    1    2    0    0 -0.31874078793E+03  0.14211376892E+02  0.26566875521E+03  0.42470627804E+03  0.89430878239E+02 0.  0.
        254    2    1    2    0    0  0.31874078793E+03 -0.14211376892E+02  0.15287666309E+02  0.94220318845E+03  0.88640593549E+03 0.  0.
        -24    2    4    4    0    0  0.15862082159E+03  0.38112089144E+03  0.20551393851E+03  0.46803600189E+03  0.80050116817E+02 0.  0.
         24    2    4    4    0    0  0.16011996634E+03 -0.39533226834E+03 -0.19022627220E+03  0.47416718656E+03  0.81990732214E+02 0.  0.
         13    1    3    3    0    0 -0.20512648840E+03  0.10251856654E+02  0.22328818264E+03  0.30338027180E+03  0.00000000000E+00 0. -1.
        -13    1    3    3    0    0 -0.11361429953E+03  0.39595202382E+01  0.42380572572E+02  0.12132600624E+03  0.00000000000E+00 0.  1.
          4    1    6    6  502    0  0.55485341547E+02 -0.22665931486E+03 -0.12798806340E+03  0.26614659966E+03  0.00000000000E+00 0. -1.
          1    1    5    5  503    0  0.15669018723E+03  0.29427450360E+03  0.16941241920E+03  0.37396505989E+03  0.00000000000E+00 0. -1.
         -2    1    5    5    0  503  0.19306343624E+01  0.86846387847E+02  0.36101519309E+02  0.94070941994E+02  0.00000000000E+00 0.  1.
         -3    1    6    6    0  502  0.10463462479E+03 -0.16867295348E+03 -0.62238208808E+02  0.20802058690E+03  0.00000000000E+00 0.  1.
<mgrwt>
<rscale>  0 0.13377238E+04</rscale>
<asrwt>0</asrwt>
<pdfrwt beam="1">  1        2 0.12675891E+00 0.13377238E+04</pdfrwt>
<pdfrwt beam="2">  1       -2 0.83534850E-01 0.13377238E+04</pdfrwt>
<totfact> 0.40591520E+01</totfact>
</mgrwt>
</event>
<event>
12    1  0.1960998E-007  0.3721251E+04  0.7818608E-02  0.8063269E-01
          2   -1    0    0  501    0  0.00000000000E+00  0.00000000000E+00  0.18667893555E+04  0.18667893555E+04  0.00000000000E+00 0. -1.
         -2   -1    0    0    0  501 -0.00000000000E+00 -0.00000000000E+00 -0.18544815986E+04  0.18544815986E+04  0.00000000000E+00 0.  1.
         23    2    1    2    0    0  0.45407113113E+03 -0.16799828534E+04  0.19589139791E+03  0.17536341864E+04  0.91304107959E+02 0.  0.
        254    2    1    2    0    0 -0.45407113113E+03  0.16799828534E+04 -0.18358364100E+03  0.19676367677E+04  0.89964910751E+03 0.  0.
        -24    2    4    4    0    0 -0.45233377889E+03  0.13048897586E+04  0.23162843613E+03  0.14027762996E+04  0.82380122111E+02 0.  0.
         24    2    4    4    0    0 -0.17373522383E+01  0.37509309478E+03 -0.41521207713E+03  0.56486046817E+03  0.77255623457E+02 0.  0.
         13    1    3    3    0    0  0.21411202014E+03 -0.90886683464E+03  0.70962748735E+02  0.93643931570E+03  0.00000000000E+00 0. -1.
        -13    1    3    3    0    0  0.23995911098E+03 -0.77111601876E+03  0.12492864918E+03  0.81719487071E+03  0.00000000000E+00 0.  1.
          2    1    6    6  502    0  0.89748865357E+01  0.33899317889E+03 -0.33715360326E+03  0.47819397331E+03  0.00000000000E+00 0. -1.
          1    1    5    5  503    0 -0.23361820626E+03  0.66213146849E+03  0.15932455710E+03  0.71998601539E+03  0.00000000000E+00 0. -1.
         -2    1    5    5    0  503 -0.21871557263E+03  0.64275829012E+03  0.72303879032E+02  0.68279028416E+03  0.00000000000E+00 0.  1.
         -1    1    6    6    0  502 -0.10712238774E+02  0.36099915894E+02 -0.78058473875E+02  0.86666494857E+02  0.00000000000E+00 0.  1.
<mgrwt>
<rscale>  0 0.37212506E+04</rscale>
<asrwt>0</asrwt>
<pdfrwt beam="1">  1        2 0.28719836E+00 0.37212506E+04</pdfrwt>
<pdfrwt beam="2">  1       -2 0.28530486E+00 0.37212506E+04</pdfrwt>
<totfact> 0.24991647E-01</totfact>
</mgrwt>
</event>
<event>
12    1  0.1960998E-007  0.1591657E+04  0.7818608E-02  0.8825690E-01
         -1   -1    0    0    0  501 -0.00000000000E+00  0.00000000000E+00  0.42189433265E+03  0.42189433265E+03  0.00000000000E+00 0.  1.
          1   -1    0    0  501    0  0.00000000000E+00 -0.00000000000E+00 -0.15011893918E+04  0.15011893918E+04  0.00000000000E+00 0. -1.
         23    2    1    2    0    0 -0.50790739115E+03 -0.34641651596E+02 -0.57262003931E+03  0.77158278578E+03  0.90974303392E+02 0.  0.
        254    2    1    2    0    0  0.50790739115E+03  0.34641651596E+02 -0.50667501980E+03  0.11515009386E+04  0.90003604036E+03 0.  0.
        -24    2    4    4    0    0  0.45725203117E+03 -0.14327138380E+03  0.11403030755E+03  0.49894034770E+03  0.79576693228E+02 0.  0.
         24    2    4    4    0    0  0.50655359988E+02  0.17791303540E+03 -0.62070532735E+03  0.65256059092E+03  0.79631700720E+02 0.  0.
         11    1    3    3    0    0 -0.15439517381E+03 -0.26020660974E+02 -0.12035718978E+03  0.19748619604E+03  0.00000000000E+00 0.  1.
        -11    1    3    3    0    0 -0.35351221735E+03 -0.86209906230E+01 -0.45226284952E+03  0.57409658974E+03  0.00000000000E+00 0. -1.
          2    1    6    6  502    0  0.10703337443E+02  0.11593317084E+03 -0.26747851938E+03  0.29171873416E+03  0.00000000000E+00 0. -1.
          3    1    5    5  503    0  0.21083760259E+03 -0.78101836796E+02  0.14484632506E+02  0.22530467407E+03  0.00000000000E+00 0. -1.
         -4    1    5    5    0  503  0.24641442858E+03 -0.65169547004E+02  0.99545675048E+02  0.27363567364E+03  0.00000000000E+00 0.  1.
         -1    1    6    6    0  502  0.39952022545E+02  0.61979864556E+02 -0.35322680797E+03  0.36084185676E+03  0.00000000000E+00 0.  1.
<mgrwt>
<rscale>  0 0.15916574E+04</rscale>
<asrwt>0</asrwt>
<pdfrwt beam="1">  1        1 0.23095221E+00 0.15916574E+04</pdfrwt>
<pdfrwt beam="2">  1       -1 0.64906822E-01 0.15916574E+04</pdfrwt>
<totfact> 0.15087279E+01</totfact>
</mgrwt>
</event>
<event>
12    1  0.1960998E-007  0.2474333E+04  0.7818608E-02  0.8412187E-01
          2   -1    0    0  501    0  0.00000000000E+00  0.00000000000E+00  0.85807800893E+03  0.85807800893E+03  0.00000000000E+00 0. -1.
         -2   -1    0    0    0  501 -0.00000000000E+00 -0.00000000000E+00 -0.17837310029E+04  0.17837310029E+04  0.00000000000E+00 0.  1.
         23    2    1    2    0    0  0.80935732722E+03  0.94984352966E+02  0.33887157068E+03  0.88729113351E+03  0.91489364233E+02 0.  0.
        254    2    1    2    0    0 -0.80935732722E+03 -0.94984352966E+02 -0.12645245646E+04  0.17545178783E+04  0.90290049302E+03 0.  0.
        -24    2    4    4    0    0 -0.27799784719E+03 -0.43776062527E+03 -0.31903104151E+03  0.61433040389E+03  0.81877173965E+02 0.  0.
         24    2    4    4    0    0 -0.53135948002E+03  0.34277627231E+03 -0.94549352311E+03  0.11401874744E+04  0.78936713029E+02 0.  0.
         11    1    3    3    0    0  0.56406442323E+03  0.26543831286E+02  0.25017421284E+03  0.61762479331E+03  0.00000000000E+00 0.  1.
        -11    1    3    3    0    0  0.24529290398E+03  0.68440521680E+02  0.88697357840E+02  0.26966634021E+03  0.00000000000E+00 0. -1.
          2    1    6    6  502    0 -0.16660661560E+03  0.67466146844E+02 -0.24695944284E+03  0.30544788711E+03  0.00000000000E+00 0. -1.
          3    1    5    5  503    0 -0.24942310553E+02 -0.32195153919E+02 -0.54327692715E+02  0.67898048479E+02  0.00000000000E+00 0. -1.
         -4    1    5    5    0  503 -0.25305553664E+03 -0.40556547135E+03 -0.26470334879E+03  0.54643235541E+03  0.00000000000E+00 0.  1.
         -1    1    6    6    0  502 -0.36475286442E+03  0.27531012546E+03 -0.69853408027E+03  0.83473958729E+03  0.00000000000E+00 0.  1.
<mgrwt>
<rscale>  0 0.24743325E+04</rscale>
<asrwt>0</asrwt>
<pdfrwt beam="1">  1        2 0.13201200E+00 0.24743325E+04</pdfrwt>
<pdfrwt beam="2">  1       -2 0.27442015E+00 0.24743325E+04</pdfrwt>
<totfact> 0.12753669E+00</totfact>
</mgrwt>
</event>
<event>
12    1  0.1960998E-007  0.1941032E+04  0.7818608E-02  0.8634698E-01
          2   -1    0    0  501    0  0.00000000000E+00  0.00000000000E+00  0.15854846828E+04  0.15854846828E+04  0.00000000000E+00 0. -1.
         -2   -1    0    0    0  501 -0.00000000000E+00 -0.00000000000E+00 -0.59407769238E+03  0.59407769238E+03  0.00000000000E+00 0.  1.
         23    2    1    2    0    0  0.27790673001E+03  0.70310467481E+03  0.45778255874E+03  0.88852958724E+03  0.91277719059E+02 0.  0.
        254    2    1    2    0    0 -0.27790673001E+03 -0.70310467481E+03  0.53362443172E+03  0.12910327880E+04  0.90023457565E+03 0.  0.
        -24    2    4    4    0    0 -0.23884168356E+03 -0.15497597960E+03 -0.21033264971E+03  0.36265108239E+03  0.78823092826E+02 0.  0.
         24    2    4    4    0    0 -0.39065046444E+02 -0.54812869520E+03  0.74395708143E+03  0.92838170559E+03  0.80307583106E+02 0.  0.
         13    1    3    3    0    0  0.18694743979E+03  0.36053727631E+03  0.26669570254E+03  0.48586322212E+03  0.00000000000E+00 0. -1.
        -13    1    3    3    0    0  0.90959290218E+02  0.34256739849E+03  0.19108685620E+03  0.40266636512E+03  0.00000000000E+00 0.  1.
          4    1    6    6  502    0 -0.57487092462E+02 -0.47074843067E+03  0.66012331609E+03  0.81281710318E+03  0.00000000000E+00 0. -1.
          1    1    5    5  503    0 -0.22314086027E+03 -0.16435182974E+03 -0.19687496790E+03  0.33994576104E+03  0.00000000000E+00 0. -1.
         -2    1    5    5    0  503 -0.15700823294E+02  0.93758501408E+01 -0.13457681808E+02  0.22705321350E+02  0.00000000000E+00 0.  1.
         -3    1    6    6    0  502  0.18422046018E+02 -0.77380264536E+02  0.83833765343E+02  0.11556460241E+03  0.00000000000E+00 0.  1.
<mgrwt>
<rscale>  0 0.19410318E+04</rscale>
<asrwt>0</asrwt>
<pdfrwt beam="1">  1        2 0.24392072E+00 0.19410318E+04</pdfrwt>
<pdfrwt beam="2">  1       -2 0.91396568E-01 0.19410318E+04</pdfrwt>
<totfact> 0.10817549E+01</totfact>
</mgrwt>
</event>
<event>
12    1  0.1960998E-007  0.2571273E+04  0.7818608E-02  0.8378025E-01
         -2   -1    0    0    0  501 -0.00000000000E+00  0.00000000000E+00  0.22610714190E+04  0.22610714190E+04  0.00000000000E+00 0.  1.
          2   -1    0    0  501    0  0.00000000000E+00 -0.00000000000E+00 -0.73100815824E+03  0.73100815824E+03  0.00000000000E+00 0. -1.
         23    2    1    2    0    0  0.10622532623E+04 -0.37432764289E+03  0.63849877651E+03  0.12978399856E+04  0.90580146934E+02 0.  0.
        254    2    1    2    0    0 -0.10622532623E+04  0.37432764289E+03  0.89156448424E+03  0.16942395917E+04  0.89836372752E+03 0.  0.
        -24    2    4    4    0    0 -0.23647953198E+03 -0.68549125597E+02 -0.14122074567E+03  0.29746368362E+03  0.88993215475E+02 0.  0.
         24    2    4    4    0    0 -0.82577373032E+03  0.44287676848E+03  0.10327852299E+04  0.13967759080E+04  0.79344315764E+02 0.  0.
         13    1    3    3    0    0  0.75341624858E+03 -0.24116061481E+03  0.48709628403E+03  0.92900875975E+03  0.00000000000E+00 0.  1.
        -13    1    3    3    0    0  0.30883701372E+03 -0.13316702807E+03  0.15140249248E+03  0.36883122582E+03  0.00000000000E+00 0. -1.
          4    1    6    6  502    0 -0.42194561184E+03  0.21677443846E+03  0.46512884425E+03  0.66435991621E+03  0.00000000000E+00 0. -1.
          1    1    5    5  503    0 -0.17037041601E+02 -0.45526872148E+01 -0.47041831938E+02  0.50238647468E+02  0.00000000000E+00 0. -1.
         -4    1    5    5    0  503 -0.21944249038E+03 -0.63996438382E+02 -0.94178913732E+02  0.24722503615E+03  0.00000000000E+00 0.  1.
         -3    1    6    6    0  502 -0.40382811849E+03  0.22610233003E+03  0.56765638566E+03  0.73241599184E+03  0.00000000000E+00 0.  1.
<mgrwt>
<rscale>  0 0.25712733E+04</rscale>
<asrwt>0</asrwt>
<pdfrwt beam="1">  1        2 0.11246279E+00 0.25712733E+04</pdfrwt>
<pdfrwt beam="2">  1       -2 0.34785714E+00 0.25712733E+04</pdfrwt>
<totfact> 0.55183105E-01</totfact>
</mgrwt>
</event>
<event>
12    1  0.1960998E-007  0.1462757E+04  0.7818608E-02  0.8909604E-01
         -3   -1    0    0    0  501 -0.00000000000E+00  0.00000000000E+00  0.19255238273E+03  0.19255238273E+03  0.00000000000E+00 0.  1.
          3   -1    0    0  501    0  0.00000000000E+00 -0.00000000000E+00 -0.27780221800E+04  0.27780221800E+04  0.00000000000E+00 0. -1.
         23    2    1    2    0    0  0.17357447901E+03 -0.20786411945E+03 -0.15440092525E+04  0.15699415195E+04  0.86117425338E+02 0.  0.
        254    2    1    2    0    0 -0.17357447901E+03  0.20786411945E+03 -0.10414605448E+04  0.14006330432E+04  0.89654741287E+03 0.  0.
        -24    2    4    4    0    0 -0.12133141870E+03  0.18131131727E+03 -0.11953472087E+04  0.12176546281E+04  0.78947684954E+02 0.  0.
         24    2    4    4    0    0 -0.52243060311E+02  0.26552802188E+02  0.15388666395E+03  0.18297841514E+03  0.79784750498E+02 0.  0.
         13    1    3    3    0    0  0.11624823114E+02 -0.41480277492E+02 -0.12883712345E+03  0.13584827681E+03  0.00000000000E+00 0.  1.
        -13    1    3    3    0    0  0.16194965589E+03 -0.16638384196E+03 -0.14151721290E+04  0.14340932427E+04  0.00000000000E+00 0. -1.
          4    1    6    6  502    0 -0.29209045663E+02  0.35298244577E+02  0.25876465079E+02  0.52618683599E+02  0.00000000000E+00 0. -1.
          1    1    5    5  503    0  0.32557391178E+01  0.12738833976E+02 -0.20222488191E+03  0.20265187043E+03  0.00000000000E+00 0. -1.
         -4    1    5    5    0  503 -0.12458715781E+03  0.16857248329E+03 -0.99312232682E+03  0.10150027577E+04  0.00000000000E+00 0.  1.
         -3    1    6    6    0  502 -0.23034014648E+02 -0.87454423890E+01  0.12801019887E+03  0.13035973154E+03  0.00000000000E+00 0.  1.
<mgrwt>
<rscale>  0 0.14627574E+04</rscale>
<asrwt>0</asrwt>
<pdfrwt beam="1">  1        3 0.42738805E+00 0.14627574E+04</pdfrwt>
<pdfrwt beam="2">  1       -3 0.29623442E-01 0.14627574E+04</pdfrwt>
<totfact> 0.22801921E-01</totfact>
</mgrwt>
</event>
<event>
12    1  0.1960998E-007  0.1492940E+04  0.7818608E-02  0.8889161E-01
          1   -1    0    0  501    0  0.00000000000E+00  0.00000000000E+00  0.26409588304E+04  0.26409588304E+04  0.00000000000E+00 0.  1.
         -1   -1    0    0    0  501 -0.00000000000E+00 -0.00000000000E+00 -0.21099061961E+03  0.21099061961E+03  0.00000000000E+00 0. -1.
         23    2    1    2    0    0 -0.49687908410E+02 -0.35895735358E+03  0.20943262541E+03  0.42874073871E+03  0.92937218133E+02 0.  0.
        254    2    1    2    0    0  0.49687908410E+02  0.35895735358E+03  0.22205355854E+04  0.24232087113E+04  0.89991271950E+03 0.  0.
        -24    2    4    4    0    0 -0.35972695980E+03 -0.49409900085E+02  0.66455209205E+03  0.76136519287E+03  0.78756904687E+02 0.  0.
         24    2    4    4    0    0  0.40941486821E+03  0.40836725366E+03  0.15559834934E+04  0.16618435185E+04  0.79087926363E+02 0.  0.
         11    1    3    3    0    0  0.48004013912E+01 -0.26523140813E+03  0.15778452421E+03  0.30865304112E+03  0.00000000000E+00 0. -1.
        -11    1    3    3    0    0 -0.54488309801E+02 -0.93725945444E+02  0.51648101197E+02  0.12008769759E+03  0.00000000000E+00 0.  1.
          4    1    6    6  502    0  0.43960425843E+02  0.16332234392E+02  0.15056790903E+03  0.15770211206E+03  0.00000000000E+00 0. -1.
          3    1    5    5  503    0 -0.25866094168E+02  0.96112450656E+01  0.23779770014E+02  0.36426752821E+02  0.00000000000E+00 0. -1.
         -4    1    5    5    0  503 -0.33386086563E+03 -0.59021145150E+02  0.64077232203E+03  0.72493844005E+03  0.00000000000E+00 0.  1.
         -3    1    6    6    0  502  0.36545444237E+03  0.39203501927E+03  0.14054155843E+04  0.15041414064E+04  0.00000000000E+00 0.  1.
<mgrwt>
<rscale>  0 0.14929401E+04</rscale>
<asrwt>0</asrwt>
<pdfrwt beam="1">  1        1 0.40630133E+00 0.14929401E+04</pdfrwt>
<pdfrwt beam="2">  1       -1 0.32460097E-01 0.14929401E+04</pdfrwt>
<totfact> 0.93128097E+00</totfact>
</mgrwt>
</event>
<event>
12    1  0.2507291E-007  0.1868471E+04  0.7818608E-02  0.8670712E-01
         -2   -1    0    0    0  501 -0.00000000000E+00  0.00000000000E+00  0.56243681508E+03  0.56243681508E+03  0.00000000000E+00 0.  1.
          2   -1    0    0  501    0  0.00000000000E+00 -0.00000000000E+00 -0.15518109038E+04  0.15518109038E+04  0.00000000000E+00 0. -1.
         23    2    1    2    0    0 -0.65837978551E+03 -0.51882451524E+02 -0.68650007070E+03  0.95697775748E+03  0.91478688781E+02 0.  0.
        254    2    1    2    0    0  0.65837978551E+03  0.51882451524E+02 -0.30287401807E+03  0.11572699614E+04  0.90076931681E+03 0.  0.
        -24    2    4    4    0    0  0.31135424318E+03 -0.22783603849E+03 -0.52185057637E+03  0.65400449525E+03  0.80889619691E+02 0.  0.
         24    2    4    4    0    0  0.34702554233E+03  0.27971849001E+03  0.21897655829E+03  0.50326546620E+03  0.81585756731E+02 0.  0.
         11    1    3    3    0    0 -0.45545410399E+03 -0.56557377553E+02 -0.52697536404E+03  0.69881343155E+03  0.00000000000E+00 0. -1.
        -11    1    3    3    0    0 -0.20292568152E+03  0.46749260289E+01 -0.15952470665E+03  0.25816432593E+03  0.00000000000E+00 0.  1.
          2    1    6    6  502    0  0.34861777920E+03  0.27598226277E+03  0.20669513331E+03  0.49032993328E+03  0.00000000000E+00 0. -1.
          1    1    5    5  503    0  0.31170518959E+03 -0.20992859345E+03 -0.50431559791E+03  0.62893907643E+03  0.00000000000E+00 0. -1.
         -2    1    5    5    0  503 -0.35094641298E+00 -0.17907445035E+02 -0.17534978456E+02  0.25065418817E+02  0.00000000000E+00 0.  1.
         -1    1    6    6    0  502 -0.15922368629E+01  0.37362272388E+01  0.12281424989E+02  0.12935532922E+02  0.00000000000E+00 0.  1.
<mgrwt>
<rscale>  0 0.18684706E+04</rscale>
<asrwt>0</asrwt>
<pdfrwt beam="1">  1        2 0.23874014E+00 0.18684706E+04</pdfrwt>
<pdfrwt beam="2">  1       -2 0.86528740E-01 0.18684706E+04</pdfrwt>
<totfact> 0.12891218E+01</totfact>
</mgrwt>
</event>
<event>
12    1  0.1960998E-007  0.1468177E+04  0.7818608E-02  0.8905895E-01
         -1   -1    0    0    0  501 -0.00000000000E+00  0.00000000000E+00  0.37021633908E+03  0.37021633908E+03  0.00000000000E+00 0. -1.
          1   -1    0    0  501    0  0.00000000000E+00 -0.00000000000E+00 -0.14555980653E+04  0.14555980653E+04  0.00000000000E+00 0.  1.
         23    2    1    2    0    0 -0.36442307458E+03 -0.24367077779E+03 -0.47631549065E+03  0.65467337008E+03  0.97678808475E+02 0.  0.
        254    2    1    2    0    0  0.36442307458E+03  0.24367077779E+03 -0.60906623558E+03  0.11711410343E+04  0.89912736456E+03 0.  0.
        -24    2    4    4    0    0 -0.10333668220E+03 -0.42042816463E+02  0.16719248051E+03  0.21744181558E+03  0.82955104233E+02 0.  0.
         24    2    4    4    0    0  0.46775975678E+03  0.28571359425E+03 -0.77625871609E+03  0.95369921874E+03  0.80827950114E+02 0.  0.
         11    1    3    3    0    0 -0.27121478783E+03 -0.19368438635E+03 -0.41558467427E+03  0.53271167074E+03  0.00000000000E+00 0.  1.
        -11    1    3    3    0    0 -0.93208286752E+02 -0.49986391436E+02 -0.60730816378E+02  0.12196169934E+03  0.00000000000E+00 0. -1.
          4    1    6    6  502    0  0.32530589107E+03  0.22324961751E+03 -0.50305758995E+03  0.63932093137E+03  0.00000000000E+00 0. -1.
          3    1    5    5  503    0 -0.84871761865E+02 -0.65587411112E+02  0.11483033919E+03  0.15713348229E+03  0.00000000000E+00 0. -1.
         -4    1    5    5    0  503 -0.18464920336E+02  0.23544594649E+02  0.52362141319E+02  0.60308333285E+02  0.00000000000E+00 0.  1.
         -3    1    6    6    0  502  0.14245386572E+03  0.62463976743E+02 -0.27320112614E+03  0.31437828737E+03  0.00000000000E+00 0.  1.
<mgrwt>
<rscale>  0 0.14681774E+04</rscale>
<asrwt>0</asrwt>
<pdfrwt beam="1">  1        1 0.22393816E+00 0.14681774E+04</pdfrwt>
<pdfrwt beam="2">  1       -1 0.56956360E-01 0.14681774E+04</pdfrwt>
<totfact> 0.21258015E+01</totfact>
</mgrwt>
</event>
<event>
12    1  0.1960998E-007  0.1394265E+04  0.7818608E-02  0.8957981E-01
         -1   -1    0    0    0  501 -0.00000000000E+00  0.00000000000E+00  0.26145317753E+03  0.26145317753E+03  0.00000000000E+00 0.  1.
          1   -1    0    0  501    0  0.00000000000E+00 -0.00000000000E+00 -0.18588162423E+04  0.18588162423E+04  0.00000000000E+00 0. -1.
         23    2    1    2    0    0  0.14154303760E+03 -0.35472818397E+02  0.95039788157E+02  0.19657459344E+03  0.91193514657E+02 0.  0.
        254    2    1    2    0    0 -0.14154303760E+03  0.35472818397E+02 -0.16924028529E+04  0.19236948264E+04  0.90281870615E+03 0.  0.
        -24    2    4    4    0    0 -0.36407144167E+03 -0.57224456729E+02 -0.16148954085E+04  0.16583078832E+04  0.79216173735E+02 0.  0.
         24    2    4    4    0    0  0.22252840407E+03  0.92697275126E+02 -0.77507444431E+02  0.26538694315E+03  0.79442748048E+02 0.  0.
         11    1    3    3    0    0  0.76729680312E+02 -0.65267302130E+02  0.56409869003E+02  0.11545275176E+03  0.00000000000E+00 0.  1.
        -11    1    3    3    0    0  0.64813357284E+02  0.29794483733E+02  0.38629919154E+02  0.81121841678E+02  0.00000000000E+00 0. -1.
          4    1    6    6  502    0  0.65782288500E+02 -0.91404964588E+01 -0.13217007494E+02  0.67716670347E+02  0.00000000000E+00 0. -1.
          1    1    5    5  503    0 -0.30648323662E+03 -0.37186299374E+02 -0.12059364365E+04  0.12448282950E+04  0.00000000000E+00 0. -1.
         -2    1    5    5    0  503 -0.57588205045E+02 -0.20038157355E+02 -0.40895897200E+03  0.41347958824E+03  0.00000000000E+00 0.  1.
         -3    1    6    6    0  502  0.15674611557E+03  0.10183777158E+03 -0.64290436937E+02  0.19767027280E+03  0.00000000000E+00 0.  1.
<mgrwt>
<rscale>  0 0.13942646E+04</rscale>
<asrwt>0</asrwt>
<pdfrwt beam="1">  1        1 0.28597174E+00 0.13942646E+04</pdfrwt>
<pdfrwt beam="2">  1       -1 0.40223565E-01 0.13942646E+04</pdfrwt>
<totfact> 0.21864284E+01</totfact>
</mgrwt>
</event>
<event>
12    1  0.1960998E-007  0.2184858E+04  0.7818608E-02  0.8524757E-01
          1   -1    0    0  501    0  0.00000000000E+00  0.00000000000E+00  0.16216901508E+04  0.16216901508E+04  0.00000000000E+00 0. -1.
         -1   -1    0    0    0  501 -0.00000000000E+00 -0.00000000000E+00 -0.73589952088E+03  0.73589952088E+03  0.00000000000E+00 0.  1.
         23    2    1    2    0    0 -0.71398616646E+03  0.37352884852E+03 -0.71169976400E+02  0.81379890634E+03  0.88901337737E+02 0.  0.
        254    2    1    2    0    0  0.71398616646E+03 -0.37352884852E+03  0.95696060636E+03  0.15437907654E+04  0.90455308224E+03 0.  0.
        -24    2    4    4    0    0  0.22262904887E+03  0.18356985996E+03  0.68681422950E+03  0.74919818573E+03  0.79514456386E+02 0.  0.
         24    2    4    4    0    0  0.49135711759E+03 -0.55709870847E+03  0.27014637687E+03  0.79459257966E+03  0.81286620797E+02 0.  0.
         11    1    3    3    0    0 -0.28011946884E+03  0.18205439664E+03  0.11063371711E+01  0.33408373822E+03  0.00000000000E+00 0. -1.
        -11    1    3    3    0    0 -0.43386669762E+03  0.19147445187E+03 -0.72276313571E+02  0.47971516812E+03  0.00000000000E+00 0.  1.
          4    1    6    6  502    0  0.49337634146E+03 -0.55281400400E+03  0.27227040113E+03  0.78940148762E+03  0.00000000000E+00 0. -1.
          3    1    5    5  503    0  0.12518633496E+03  0.14460815571E+03  0.49287911082E+03  0.52868984768E+03  0.00000000000E+00 0. -1.
         -4    1    5    5    0  503  0.97442713914E+02  0.38961704250E+02  0.19393511868E+03  0.22050833805E+03  0.00000000000E+00 0.  1.
         -3    1    6    6    0  502 -0.20192238642E+01 -0.42847044785E+01 -0.21240242640E+01  0.51910920389E+01  0.00000000000E+00 0.  1.
<mgrwt>
<rscale>  0 0.21848579E+04</rscale>
<asrwt>0</asrwt>
<pdfrwt beam="1">  1        1 0.24949079E+00 0.21848579E+04</pdfrwt>
<pdfrwt beam="2">  1       -1 0.11321531E+00 0.21848579E+04</pdfrwt>
<totfact> 0.35076436E+00</totfact>
</mgrwt>
</event>
<event>
12    1  0.1960998E-007  0.1398840E+04  0.7818608E-02  0.8954658E-01
          2   -1    0    0  501    0  0.00000000000E+00  0.00000000000E+00  0.63040106520E+03  0.63040106520E+03  0.00000000000E+00 0. -1.
         -2   -1    0    0    0  501 -0.00000000000E+00 -0.00000000000E+00 -0.77599567106E+03  0.77599567106E+03  0.00000000000E+00 0.  1.
         23    2    1    2    0    0 -0.38598019397E+03 -0.87629253768E+02  0.22507340245E+02  0.40668860410E+03  0.90716283444E+02 0.  0.
        254    2    1    2    0    0  0.38598019397E+03  0.87629253768E+02 -0.16810194611E+03  0.99970813216E+03  0.90249570025E+03 0.  0.
        -24    2    4    4    0    0 -0.17000204405E+03 -0.19140361692E+03  0.13859737247E+03  0.30174312627E+03  0.79395485036E+02 0.  0.
         24    2    4    4    0    0  0.55598223802E+03  0.27903287069E+03 -0.30669931858E+03  0.69796500589E+03  0.78199012170E+02 0.  0.
         13    1    3    3    0    0 -0.33045686479E+03 -0.40933821617E+02  0.26462034733E+02  0.33403226868E+03  0.00000000000E+00 0. -1.
        -13    1    3    3    0    0 -0.55523329182E+02 -0.46695432151E+02 -0.39546944876E+01  0.72656335413E+02  0.00000000000E+00 0.  1.
          4    1    6    6  502    0  0.27955358349E+02  0.15246779580E+02  0.19204705706E+01  0.31900698350E+02  0.00000000000E+00 0. -1.
          1    1    5    5  503    0 -0.17533676119E+02 -0.14804698270E+01 -0.58923834867E+01  0.18556448268E+02  0.00000000000E+00 0. -1.
         -2    1    5    5    0  503 -0.15246836793E+03 -0.18992314709E+03  0.14448975596E+03  0.28318667800E+03  0.00000000000E+00 0.  1.
         -3    1    6    6    0  502  0.52802687968E+03  0.26378609111E+03 -0.30861978915E+03  0.66606430754E+03  0.00000000000E+00 0.  1.
<mgrwt>
<rscale>  0 0.13988402E+04</rscale>
<asrwt>0</asrwt>
<pdfrwt beam="1">  1        2 0.96984780E-01 0.13988402E+04</pdfrwt>
<pdfrwt beam="2">  1       -2 0.11938395E+00 0.13988402E+04</pdfrwt>
<totfact> 0.24441121E+01</totfact>
</mgrwt>
</event>
<event>
12    1  0.1960998E-007  0.1550352E+04  0.7818608E-02  0.8851643E-01
         -1   -1    0    0    0  501 -0.00000000000E+00  0.00000000000E+00  0.46607877101E+03  0.46607877101E+03  0.00000000000E+00 0.  1.
          1   -1    0    0  501    0  0.00000000000E+00 -0.00000000000E+00 -0.12892622916E+04  0.12892622916E+04  0.00000000000E+00 0. -1.
         23    2    1    2    0    0  0.26940459813E+03 -0.42113611897E+03 -0.37157619574E+03  0.63064927319E+03  0.98565553540E+02 0.  0.
        254    2    1    2    0    0 -0.26940459813E+03  0.42113611897E+03 -0.45160732485E+03  0.11246917894E+04  0.90058202134E+03 0.  0.
        -24    2    4    4    0    0 -0.59716862886E+03  0.28681375390E+03 -0.30259213503E+03  0.73219724014E+03  0.75354479330E+02 0.  0.
         24    2    4    4    0    0  0.32776403074E+03  0.13432236506E+03 -0.14901518982E+03  0.39249454929E+03  0.79841635922E+02 0.  0.
         13    1    3    3    0    0  0.14514226802E+03 -0.13966630697E+03 -0.16006841664E+03  0.25728360475E+03  0.00000000000E+00 0.  1.
        -13    1    3    3    0    0  0.12426233011E+03 -0.28146981200E+03 -0.21150777910E+03  0.37336566844E+03  0.00000000000E+00 0. -1.
          2    1    6    6  502    0  0.37583986231E+02  0.45394549177E+02 -0.33237808103E+02  0.67660719797E+02  0.00000000000E+00 0. -1.
          3    1    5    5  503    0 -0.55560360689E+02  0.20700825980E+02 -0.51701054154E+02  0.78666872805E+02  0.00000000000E+00 0. -1.
         -4    1    5    5    0  503 -0.54160826817E+03  0.26611292792E+03 -0.25089108088E+03  0.65353036733E+03  0.00000000000E+00 0.  1.
         -1    1    6    6    0  502  0.29018004451E+03  0.88927815887E+02 -0.11577738172E+03  0.32483382950E+03  0.00000000000E+00 0.  1.
<mgrwt>
<rscale>  0 0.15503519E+04</rscale>
<asrwt>0</asrwt>
<pdfrwt beam="1">  1        1 0.19834804E+00 0.15503519E+04</pdfrwt>
<pdfrwt beam="2">  1       -1 0.71704428E-01 0.15503519E+04</pdfrwt>
<totfact> 0.17415684E+01</totfact>
</mgrwt>
</event>
<event>
12    1  0.1960998E-007  0.2170854E+04  0.7818608E-02  0.8530658E-01
         -2   -1    0    0    0  501 -0.00000000000E+00  0.00000000000E+00  0.46386318569E+03  0.46386318569E+03  0.00000000000E+00 0.  1.
          2   -1    0    0  501    0  0.00000000000E+00 -0.00000000000E+00 -0.25398695810E+04  0.25398695810E+04  0.00000000000E+00 0. -1.
         23    2    1    2    0    0 -0.68832705106E+03 -0.54201713118E+03 -0.11209969705E+04  0.14255902301E+04  0.89981090314E+02 0.  0.
        254    2    1    2    0    0  0.68832705106E+03  0.54201713118E+03 -0.95500942486E+03  0.15781425366E+04  0.90050772602E+03 0.  0.
        -24    2    4    4    0    0 -0.18965940066E+02 -0.19942803330E+03 -0.25784804151E+03  0.33634160028E+03  0.80677210038E+02 0.  0.
         24    2    4    4    0    0  0.70729299112E+03  0.74144516449E+03 -0.69716138336E+03  0.12418009363E+04  0.77661211889E+02 0.  0.
         13    1    3    3    0    0 -0.18990362463E+03 -0.19866479114E+03 -0.32494079051E+03  0.42557913861E+03  0.00000000000E+00 0. -1.
        -13    1    3    3    0    0 -0.49842342642E+03 -0.34335234005E+03 -0.79605617999E+03  0.10000110915E+04  0.00000000000E+00 0.  1.
          4    1    6    6  502    0  0.22354664234E+03  0.19708876601E+03 -0.17370097229E+03  0.34494798269E+03  0.00000000000E+00 0. -1.
          3    1    5    5  503    0 -0.72654236677E+01  0.64331821013E+01 -0.13378305123E+02  0.16527288373E+02  0.00000000000E+00 0. -1.
         -4    1    5    5    0  503 -0.11700516398E+02 -0.20586121541E+03 -0.24446973638E+03  0.31981431191E+03  0.00000000000E+00 0.  1.
         -3    1    6    6    0  502  0.48374634879E+03  0.54435639847E+03 -0.52346041107E+03  0.89685295365E+03  0.00000000000E+00 0.  1.
<mgrwt>
<rscale>  0 0.21708542E+04</rscale>
<asrwt>0</asrwt>
<pdfrwt beam="1">  1        2 0.39074916E+00 0.21708542E+04</pdfrwt>
<pdfrwt beam="2">  1       -2 0.71363568E-01 0.21708542E+04</pdfrwt>
<totfact> 0.53892884E+00</totfact>
</mgrwt>
</event>
<event>
12    1  0.1960998E-007  0.3491787E+04  0.7818608E-02  0.8115739E-01
          4   -1    0    0  501    0  0.00000000000E+00  0.00000000000E+00  0.20628849973E+04  0.20628849973E+04  0.00000000000E+00 0.  1.
         -4   -1    0    0    0  501 -0.00000000000E+00 -0.00000000000E+00 -0.14776121146E+04  0.14776121146E+04  0.00000000000E+00 0. -1.
         23    2    1    2    0    0  0.71683672202E+03  0.80223379199E+03  0.15104247490E+04  0.18566842093E+04  0.91974929269E+02 0.  0.
        254    2    1    2    0    0 -0.71683672202E+03 -0.80223379199E+03 -0.92515186628E+03  0.16838129027E+04  0.90657926981E+03 0.  0.
        -24    2    4    4    0    0 -0.32835601124E+03 -0.32609549900E+03 -0.95427775765E+03  0.10634180983E+04  0.77820745441E+02 0.  0.
         24    2    4    4    0    0 -0.38848071078E+03 -0.47613829299E+03  0.29125891364E+02  0.62039480439E+03  0.80102803132E+02 0.  0.
         11    1    3    3    0    0  0.38406299564E+03  0.42986582709E+03  0.73003149366E+03  0.93018008776E+03  0.00000000000E+00 0. -1.
        -11    1    3    3    0    0  0.33277372638E+03  0.37236796489E+03  0.78039325535E+03  0.92650412155E+03  0.00000000000E+00 0.  1.
          4    1    6    6  502    0 -0.24494995472E+03 -0.23990654978E+03  0.46419000883E+01  0.34289529041E+03  0.00000000000E+00 0. -1.
          3    1    5    5  503    0 -0.19768009126E+03 -0.24433379873E+03 -0.66945617192E+03  0.73955932136E+03  0.00000000000E+00 0. -1.
         -4    1    5    5    0  503 -0.13067591998E+03 -0.81761700266E+02 -0.28482158572E+03  0.32385877692E+03  0.00000000000E+00 0.  1.
         -3    1    6    6    0  502 -0.14353075605E+03 -0.23623174320E+03  0.24483991276E+02  0.27749951398E+03  0.00000000000E+00 0.  1.
<mgrwt>
<rscale>  0 0.34917869E+04</rscale>
<asrwt>0</asrwt>
<pdfrwt beam="1">  1        4 0.31736692E+00 0.34917869E+04</pdfrwt>
<pdfrwt beam="2">  1       -4 0.22732494E+00 0.34917869E+04</pdfrwt>
<totfact> 0.34130001E-03</totfact>
</mgrwt>
</event>
<event>
12    1  0.1960998E-007  0.2456921E+04  0.7818608E-02  0.8418495E-01
          2   -1    0    0  501    0  0.00000000000E+00  0.00000000000E+00  0.86418821251E+03  0.86418821251E+03  0.00000000000E+00 0. -1.
         -2   -1    0    0    0  501 -0.00000000000E+00 -0.00000000000E+00 -0.17462802627E+04  0.17462802627E+04  0.00000000000E+00 0.  1.
         23    2    1    2    0    0 -0.45846501889E+03  0.84152495944E+03 -0.86443156835E+03  0.12939678155E+04  0.93575319516E+02 0.  0.
        254    2    1    2    0    0  0.45846501889E+03 -0.84152495944E+03 -0.17660481863E+02  0.13165006597E+04  0.90250078305E+03 0.  0.
        -24    2    4    4    0    0  0.51200897283E+03 -0.98081230946E+03  0.95545002978E+02  0.11134978744E+04  0.81256963408E+02 0.  0.
         24    2    4    4    0    0 -0.53543953941E+02  0.13928735002E+03 -0.11320548484E+03  0.20300278525E+03  0.78273419137E+02 0.  0.
         11    1    3    3    0    0 -0.18075630865E+03  0.32924080822E+03 -0.27829994539E+03  0.46746466446E+03  0.00000000000E+00 0. -1.
        -11    1    3    3    0    0 -0.27770871024E+03  0.51228415121E+03 -0.58613162296E+03  0.82650315109E+03  0.00000000000E+00 0.  1.
          4    1    6    6  502    0 -0.53205870568E+02  0.14928261587E+03 -0.10730291057E+03  0.19138986044E+03  0.00000000000E+00 0. -1.
          1    1    5    5  503    0  0.49972126498E+03 -0.95999188663E+03  0.10540292558E+03  0.10873893239E+04  0.00000000000E+00 0. -1.
         -2    1    5    5    0  503  0.12287707857E+02 -0.20820422828E+02 -0.98579225989E+01  0.26108550498E+02  0.00000000000E+00 0.  1.
         -3    1    6    6    0  502 -0.33808337306E+00 -0.99952658455E+01 -0.59025742699E+01  0.11612924812E+02  0.00000000000E+00 0.  1.
<mgrwt>
<rscale>  0 0.24569207E+04</rscale>
<asrwt>0</asrwt>
<pdfrwt beam="1">  1        2 0.13295203E+00 0.24569207E+04</pdfrwt>
<pdfrwt beam="2">  1       -2 0.26865850E+00 0.24569207E+04</pdfrwt>
<totfact> 0.13714682E+00</totfact>
</mgrwt>
</event>
<event>
12    1  0.1960998E-007  0.2241908E+04  0.7818608E-02  0.8501185E-01
          1   -1    0    0  501    0  0.00000000000E+00  0.00000000000E+00  0.11132197104E+04  0.11132197104E+04  0.00000000000E+00 0. -1.
         -1   -1    0    0    0  501 -0.00000000000E+00 -0.00000000000E+00 -0.11287421745E+04  0.11287421745E+04  0.00000000000E+00 0.  1.
         23    2    1    2    0    0  0.76391064744E+03  0.18889824422E+03 -0.51467175687E+03  0.94462578646E+03  0.90492183058E+02 0.  0.
        254    2    1    2    0    0 -0.76391064744E+03 -0.18889824422E+03  0.49914929276E+03  0.12973360985E+04  0.90260119216E+03 0.  0.
        -24    2    4    4    0    0  0.54020059467E+02 -0.36555873256E+02  0.44836365003E+03  0.46000439933E+03  0.79495824059E+02 0.  0.
         24    2    4    4    0    0 -0.81793070691E+03 -0.15234237096E+03  0.50785642730E+02  0.83733169918E+03  0.79538378476E+02 0.  0.
         11    1    3    3    0    0  0.29562096772E+03  0.11740255893E+03 -0.19385990920E+03  0.37250071381E+03  0.00000000000E+00 0.  1.
        -11    1    3    3    0    0  0.46828967972E+03  0.71495685286E+02 -0.32081184767E+03  0.57212507265E+03  0.00000000000E+00 0. -1.
          2    1    6    6  502    0 -0.90131279703E+02  0.27749610992E+01  0.21014821984E+02  0.92590338227E+02  0.00000000000E+00 0. -1.
          3    1    5    5  503    0  0.20772791722E+02 -0.50169402000E+02  0.15077015682E+03  0.16025017305E+03  0.00000000000E+00 0. -1.
         -4    1    5    5    0  503  0.33247267745E+02  0.13613528744E+02  0.29759349320E+03  0.29975422628E+03  0.00000000000E+00 0.  1.
         -1    1    6    6    0  502 -0.72779942720E+03 -0.15511733206E+03  0.29770820746E+02  0.74474136095E+03  0.00000000000E+00 0.  1.
<mgrwt>
<rscale>  0 0.22419081E+04</rscale>
<asrwt>0</asrwt>
<pdfrwt beam="1">  1        1 0.17126457E+00 0.22419081E+04</pdfrwt>
<pdfrwt beam="2">  1       -1 0.17365264E+00 0.22419081E+04</pdfrwt>
<totfact> 0.26045435E+00</totfact>
</mgrwt>
</event>
<event>
12    1  0.1960998E-007  0.1467085E+04  0.7818608E-02  0.8906641E-01
         -1   -1    0    0    0  501 -0.00000000000E+00  0.00000000000E+00  0.22170380665E+03  0.22170380665E+03  0.00000000000E+00 0.  1.
          1   -1    0    0  501    0  0.00000000000E+00 -0.00000000000E+00 -0.24270439169E+04  0.24270439169E+04  0.00000000000E+00 0. -1.
         23    2    1    2    0    0 -0.19902956110E+03 -0.37130901219E+03 -0.35746686820E+03  0.55968811934E+03  0.89359276814E+02 0.  0.
        254    2    1    2    0    0  0.19902956110E+03  0.37130901219E+03 -0.18478732421E+04  0.20890596042E+04  0.87866453356E+03 0.  0.
        -24    2    4    4    0    0 -0.22663032260E+03 -0.14576793239E+03 -0.37065426611E+03  0.46512773141E+03  0.79684554986E+02 0.  0.
         24    2    4    4    0    0  0.42565988370E+03  0.51707694458E+03 -0.14772189759E+04  0.16239318728E+04  0.80149369503E+02 0.  0.
         11    1    3    3    0    0 -0.17644817486E+03 -0.30578471525E+03 -0.33537993700E+03  0.48694758715E+03  0.00000000000E+00 0. -1.
        -11    1    3    3    0    0 -0.22581386236E+02 -0.65524296940E+02 -0.22086931199E+02  0.72740532192E+02  0.00000000000E+00 0.  1.
          4    1    6    6  502    0  0.28573344683E+03  0.29164372611E+03 -0.93599674329E+03  0.10211706856E+04  0.00000000000E+00 0. -1.
          3    1    5    5  503    0 -0.19185511303E+03 -0.84232168040E+02 -0.29173318480E+03  0.35918197845E+03  0.00000000000E+00 0. -1.
         -4    1    5    5    0  503 -0.34775209566E+02 -0.61535764349E+02 -0.78921081313E+02  0.10594575296E+03  0.00000000000E+00 0.  1.
         -3    1    6    6    0  502  0.13992643687E+03  0.22543321847E+03 -0.54122223266E+03  0.60276118724E+03  0.00000000000E+00 0.  1.
<mgrwt>
<rscale>  0 0.14670854E+04</rscale>
<asrwt>0</asrwt>
<pdfrwt beam="1">  1        1 0.37339135E+00 0.14670854E+04</pdfrwt>
<pdfrwt beam="2">  1       -1 0.34108280E-01 0.14670854E+04</pdfrwt>
<totfact> 0.12026235E+01</totfact>
</mgrwt>
</event>
<event>
12    1  0.1960998E-007  0.2186478E+04  0.7818608E-02  0.8524077E-01
          2   -1    0    0  501    0  0.00000000000E+00  0.00000000000E+00  0.10187599685E+04  0.10187599685E+04  0.00000000000E+00 0. -1.
         -2   -1    0    0    0  501 -0.00000000000E+00 -0.00000000000E+00 -0.11731632337E+04  0.11731632337E+04  0.00000000000E+00 0.  1.
         23    2    1    2    0    0 -0.33774276452E+03 -0.56624709912E+03  0.55937804553E+03  0.86931082931E+03  0.89953142736E+02 0.  0.
        254    2    1    2    0    0  0.33774276452E+03  0.56624709912E+03 -0.71378131074E+03  0.13226123728E+04  0.89728132541E+03 0.  0.
        -24    2    4    4    0    0  0.37086257398E+03  0.55992296679E+03 -0.78494145042E+02  0.68075587206E+03  0.78831776800E+02 0.  0.
         24    2    4    4    0    0 -0.33119809456E+02  0.63241323288E+01 -0.63528716570E+03  0.64185650076E+03  0.85164947217E+02 0.  0.
         11    1    3    3    0    0 -0.28208826002E+03 -0.43676651877E+03  0.47962712931E+03  0.70737611038E+03  0.00000000000E+00 0.  1.
        -11    1    3    3    0    0 -0.55654504495E+02 -0.12948058034E+03  0.79750916217E+02  0.16193471892E+03  0.00000000000E+00 0. -1.
          4    1    6    6  502    0  0.54757557611E+01 -0.33775164611E+02 -0.30496013229E+03  0.30687363512E+03  0.00000000000E+00 0. -1.
          1    1    5    5  503    0  0.19593975499E+03  0.35857827189E+03 -0.64429125922E+02  0.41366880101E+03  0.00000000000E+00 0. -1.
         -2    1    5    5    0  503  0.17492281898E+03  0.20134469489E+03 -0.14065019120E+02  0.26708707106E+03  0.00000000000E+00 0.  1.
         -3    1    6    6    0  502 -0.38595565217E+02  0.40099296940E+02 -0.33032703341E+03  0.33498286564E+03  0.00000000000E+00 0.  1.
<mgrwt>
<rscale>  0 0.21864782E+04</rscale>
<asrwt>0</asrwt>
<pdfrwt beam="1">  1        2 0.15673230E+00 0.21864782E+04</pdfrwt>
<pdfrwt beam="2">  1       -2 0.18048665E+00 0.21864782E+04</pdfrwt>
<totfact> 0.40331728E+00</totfact>
</mgrwt>
</event>
<event>
12    1  0.1960998E-007  0.1567190E+04  0.7818608E-02  0.8840962E-01
          2   -1    0    0  501    0  0.00000000000E+00  0.00000000000E+00  0.77624166550E+03  0.77624166550E+03  0.00000000000E+00 0. -1.
         -2   -1    0    0    0  501 -0.00000000000E+00 -0.00000000000E+00 -0.79101840045E+03  0.79101840045E+03  0.00000000000E+00 0.  1.
         23    2    1    2    0    0 -0.35047161860E+03  0.82923237258E+02  0.36872843729E+03  0.52311220959E+03  0.89325834094E+02 0.  0.
        254    2    1    2    0    0  0.35047161860E+03 -0.82923237258E+02 -0.38350517223E+03  0.10441478564E+04  0.90192123275E+03 0.  0.
        -24    2    4    4    0    0  0.34518345360E+02 -0.45506074593E+03 -0.10104389218E+03  0.47455526041E+03  0.81981878356E+02 0.  0.
         24    2    4    4    0    0  0.31595327324E+03  0.37213750868E+03 -0.28246128005E+03  0.56959259595E+03  0.79615038792E+02 0.  0.
         13    1    3    3    0    0 -0.28240856727E+03  0.94933746745E+02  0.32700932629E+03  0.44238231725E+03  0.00000000000E+00 0. -1.
        -13    1    3    3    0    0 -0.68063051326E+02 -0.12010509487E+02  0.41719111003E+02  0.80729892337E+02  0.00000000000E+00 0.  1.
          4    1    6    6  502    0  0.24370601405E+03  0.32023930224E+03 -0.20496810060E+03  0.45161682237E+03  0.00000000000E+00 0. -1.
          1    1    5    5  503    0  0.49724166182E+02 -0.38383196937E+03 -0.10677124828E+03  0.40149666608E+03  0.00000000000E+00 0. -1.
         -2    1    5    5    0  503 -0.15205820823E+02 -0.71228776566E+02  0.57273560985E+01  0.73058594333E+02  0.00000000000E+00 0.  1.
         -3    1    6    6    0  502  0.72247259188E+02  0.51898206439E+02 -0.77493179444E+02  0.11797577358E+03  0.00000000000E+00 0.  1.
<mgrwt>
<rscale>  0 0.15671904E+04</rscale>
<asrwt>0</asrwt>
<pdfrwt beam="1">  1        2 0.11942179E+00 0.15671904E+04</pdfrwt>
<pdfrwt beam="2">  1       -2 0.12169514E+00 0.15671904E+04</pdfrwt>
<totfact> 0.17669854E+01</totfact>
</mgrwt>
</event>
<event>
12    1  0.1960998E-007  0.1448232E+04  0.7818608E-02  0.8919627E-01
          1   -1    0    0  501    0  0.00000000000E+00  0.00000000000E+00  0.10773928109E+04  0.10773928109E+04  0.00000000000E+00 0. -1.
         -1   -1    0    0    0  501 -0.00000000000E+00 -0.00000000000E+00 -0.48667869296E+03  0.48667869296E+03  0.00000000000E+00 0.  1.
         23    2    1    2    0    0  0.43905453963E+03 -0.90961897700E+01  0.19807663388E+03  0.49013848037E+03  0.90275952546E+02 0.  0.
        254    2    1    2    0    0 -0.43905453963E+03  0.90961897700E+01  0.39263748410E+03  0.10739330235E+04  0.89795117667E+03 0.  0.
        -24    2    4    4    0    0 -0.25367399412E+03  0.99097054177E+02  0.66375988222E+03  0.72194891991E+03  0.80388682576E+02 0.  0.
         24    2    4    4    0    0 -0.18538054551E+03 -0.90000864407E+02 -0.27112239812E+03  0.35198410362E+03  0.88990742155E+02 0.  0.
         13    1    3    3    0    0  0.24964733886E+03  0.39437038929E+02  0.11572798240E+03  0.27797848793E+03  0.00000000000E+00 0. -1.
        -13    1    3    3    0    0  0.18940720076E+03 -0.48533228699E+02  0.82348651485E+02  0.21215999244E+03  0.00000000000E+00 0.  1.
          4    1    6    6  502    0 -0.13229188607E+03 -0.51149564476E+02 -0.24097686771E+03  0.27961987025E+03  0.00000000000E+00 0. -1.
          1    1    5    5  503    0 -0.20016066947E+03  0.93459238235E+02  0.59468389507E+03  0.63438778194E+03  0.00000000000E+00 0. -1.
         -2    1    5    5    0  503 -0.53513324652E+02  0.56378159419E+01  0.69075987145E+02  0.87561137978E+02  0.00000000000E+00 0.  1.
         -3    1    6    6    0  502 -0.53088659437E+02 -0.38851299932E+02 -0.30145530408E+02  0.72364233367E+02  0.00000000000E+00 0.  1.
<mgrwt>
<rscale>  0 0.14482322E+04</rscale>
<asrwt>0</asrwt>
<pdfrwt beam="1">  1        1 0.16575274E+00 0.14482322E+04</pdfrwt>
<pdfrwt beam="2">  1       -1 0.74873645E-01 0.14482322E+04</pdfrwt>
<totfact> 0.22988932E+01</totfact>
</mgrwt>
</event>
<event>
12    1  0.1960998E-007  0.3315058E+04  0.7818608E-02  0.8159074E-01
         -2   -1    0    0    0  501 -0.00000000000E+00  0.00000000000E+00  0.94138906823E+03  0.94138906823E+03  0.00000000000E+00 0.  1.
          2   -1    0    0  501    0  0.00000000000E+00 -0.00000000000E+00 -0.29184555227E+04  0.29184555227E+04  0.00000000000E+00 0. -1.
         23    2    1    2    0    0  0.14242392866E+03 -0.15046572904E+04 -0.12229402860E+04  0.19462250029E+04  0.89054374335E+02 0.  0.
        254    2    1    2    0    0 -0.14242392866E+03  0.15046572904E+04 -0.75412616847E+03  0.19136195880E+04  0.89941954201E+03 0.  0.
        -24    2    4    4    0    0 -0.14664611298E+03  0.22215598515E+02 -0.32834385899E+03  0.36923683675E+03  0.80793171795E+02 0.  0.
         24    2    4    4    0    0  0.42221843150E+01  0.14824416919E+04 -0.42578230947E+03  0.15443827513E+04  0.78589506536E+02 0.  0.
         13    1    3    3    0    0  0.84556882777E+02 -0.56291627960E+03 -0.49882126344E+03  0.75686673670E+03  0.00000000000E+00 0. -1.
        -13    1    3    3    0    0  0.57867045884E+02 -0.94174101085E+03 -0.72411902254E+03  0.11893582662E+04  0.00000000000E+00 0.  1.
          2    1    6    6  502    0 -0.36082494566E+02  0.54895236220E+03 -0.16279798073E+03  0.57371929104E+03  0.00000000000E+00 0. -1.
          1    1    5    5  503    0  0.82811963236E+01  0.10508624007E+02 -0.30466360386E+02  0.33274742767E+02  0.00000000000E+00 0. -1.
         -4    1    5    5    0  503 -0.15492730930E+03  0.11706974508E+02 -0.29787749861E+03  0.33596209399E+03  0.00000000000E+00 0.  1.
         -1    1    6    6    0  502  0.40304678881E+02  0.93348932974E+03 -0.26298432874E+03  0.97066346023E+03  0.00000000000E+00 0.  1.
<mgrwt>
<rscale>  0 0.33150578E+04</rscale>
<asrwt>0</asrwt>
<pdfrwt beam="1">  1        2 0.44899315E+00 0.33150578E+04</pdfrwt>
<pdfrwt beam="2">  1       -2 0.14482909E+00 0.33150578E+04</pdfrwt>
<totfact> 0.53627956E-01</totfact>
</mgrwt>
</event>
<event>
12    1  0.1960998E-007  0.1519426E+04  0.7818608E-02  0.8871637E-01
         -1   -1    0    0    0  501 -0.00000000000E+00  0.00000000000E+00  0.57989506550E+03  0.57989506550E+03  0.00000000000E+00 0.  1.
          1   -1    0    0  501    0  0.00000000000E+00 -0.00000000000E+00 -0.99528960362E+03  0.99528960362E+03  0.00000000000E+00 0. -1.
         23    2    1    2    0    0 -0.27961690786E+03  0.20610212991E+02  0.27718439184E+03  0.40689116791E+03  0.10059244209E+03 0.  0.
        254    2    1    2    0    0  0.27961690786E+03 -0.20610212991E+02 -0.69257892996E+03  0.11682935012E+04  0.89812790554E+03 0.  0.
        -24    2    4    4    0    0 -0.28408811619E+03 -0.18295071579E+03 -0.22559366607E+03  0.41432528385E+03  0.81215247913E+02 0.  0.
         24    2    4    4    0    0  0.56370502404E+03  0.16234050280E+03 -0.46698526389E+03  0.75396821736E+03  0.79215169786E+02 0.  0.
         13    1    3    3    0    0 -0.17323654710E+03 -0.24176962514E+02  0.21012599791E+03  0.27340146629E+03  0.00000000000E+00 0.  1.
        -13    1    3    3    0    0 -0.10638036075E+03  0.44787175504E+02  0.67058393931E+02  0.13348970163E+03  0.00000000000E+00 0. -1.
          4    1    6    6  502    0  0.22571783958E+03  0.25503640247E+02 -0.18751539313E+03  0.29455220493E+03  0.00000000000E+00 0. -1.
          1    1    5    5  503    0 -0.42973997440E+02  0.97720594129E+00 -0.16855973431E+02  0.46171887851E+02  0.00000000000E+00 0. -1.
         -2    1    5    5    0  503 -0.24111411875E+03 -0.18392792174E+03 -0.20873769264E+03  0.36815339600E+03  0.00000000000E+00 0.  1.
         -3    1    6    6    0  502  0.33798718446E+03  0.13683686256E+03 -0.27946987076E+03  0.45941601243E+03  0.00000000000E+00 0.  1.
<mgrwt>
<rscale>  0 0.15194256E+04</rscale>
<asrwt>0</asrwt>
<pdfrwt beam="1">  1        1 0.15312148E+00 0.15194256E+04</pdfrwt>
<pdfrwt beam="2">  1       -1 0.89214627E-01 0.15194256E+04</pdfrwt>
<totfact> 0.18155870E+01</totfact>
</mgrwt>
</event>
<event>
12    1  0.1960998E-007  0.2565683E+04  0.7818608E-02  0.8379952E-01
         -2   -1    0    0    0  501 -0.00000000000E+00  0.00000000000E+00  0.38402685191E+03  0.38402685191E+03  0.00000000000E+00 0.  1.
          2   -1    0    0  501    0  0.00000000000E+00 -0.00000000000E+00 -0.42853309506E+04  0.42853309506E+04  0.00000000000E+00 0. -1.
         23    2    1    2    0    0 -0.94674096881E+03  0.60275770104E+03 -0.17825870862E+04  0.21084269529E+04  0.90621120920E+02 0.  0.
        254    2    1    2    0    0  0.94674096881E+03 -0.60275770104E+03 -0.21187170125E+04  0.25609308496E+04  0.89987206278E+03 0.  0.
        -24    2    4    4    0    0  0.70975714533E+03 -0.12921229062E+03 -0.17924735064E+04  0.19338959895E+04  0.80878956442E+02 0.  0.
         24    2    4    4    0    0  0.23698382348E+03 -0.47354541042E+03 -0.32624350609E+03  0.62703486015E+03  0.79569480640E+02 0.  0.
         11    1    3    3    0    0 -0.61691276423E+03  0.38319365345E+03 -0.10720045203E+04  0.12948406953E+04  0.00000000000E+00 0. -1.
        -11    1    3    3    0    0 -0.32982820458E+03  0.21956404759E+03 -0.71058256586E+03  0.81358625753E+03  0.00000000000E+00 0.  1.
          2    1    6    6  502    0  0.20824317887E+03 -0.36233917335E+03 -0.28090711635E+03  0.50355109583E+03  0.00000000000E+00 0. -1.
          1    1    5    5  503    0  0.47771536463E+03 -0.10715748150E+03 -0.11257358846E+04  0.12275894987E+04  0.00000000000E+00 0. -1.
         -2    1    5    5    0  503  0.23204178070E+03 -0.22054809120E+02 -0.66673762181E+03  0.70630649079E+03  0.00000000000E+00 0.  1.
         -1    1    6    6    0  502  0.28740644604E+02 -0.11120623707E+03 -0.45336389744E+02  0.12348376432E+03  0.00000000000E+00 0.  1.
<mgrwt>
<rscale>  0 0.25656829E+04</rscale>
<asrwt>0</asrwt>
<pdfrwt beam="1">  1        2 0.65928166E+00 0.25656829E+04</pdfrwt>
<pdfrwt beam="2">  1       -2 0.59081057E-01 0.25656829E+04</pdfrwt>
<totfact> 0.46592651E-01</totfact>
</mgrwt>
</event>
<event>
12    1  0.1960998E-007  0.2942021E+04  0.7818608E-02  0.8260484E-01
          1   -1    0    0  501    0  0.00000000000E+00  0.00000000000E+00  0.15063153993E+04  0.15063153993E+04  0.00000000000E+00 0. -1.
         -1   -1    0    0    0  501 -0.00000000000E+00 -0.00000000000E+00 -0.14365328714E+04  0.14365328714E+04  0.00000000000E+00 0.  1.
         23    2    1    2    0    0  0.49371053520E+03 -0.81529278813E+03 -0.89830741812E+03  0.13127674391E+04  0.89161139977E+02 0.  0.
        254    2    1    2    0    0 -0.49371053520E+03  0.81529278813E+03  0.96808994608E+03  0.16300808316E+04  0.90084013607E+03 0.  0.
        -24    2    4    4    0    0 -0.32113105766E+03  0.74251892366E+03  0.20247150222E+03  0.83789278129E+03  0.81302494121E+02 0.  0.
         24    2    4    4    0    0 -0.17257947754E+03  0.72773864467E+02  0.76561844386E+03  0.79218805026E+03  0.79439247047E+02 0.  0.
         11    1    3    3    0    0  0.15961333923E+03 -0.19068251783E+03 -0.21984745949E+03  0.33191737844E+03  0.00000000000E+00 0. -1.
        -11    1    3    3    0    0  0.33409719597E+03 -0.62461027029E+03 -0.67845995864E+03  0.98085006070E+03  0.00000000000E+00 0.  1.
          2    1    6    6  502    0 -0.51365952442E+02  0.62354438631E+02  0.26788109179E+03  0.27979781348E+03  0.00000000000E+00 0. -1.
          3    1    5    5  503    0 -0.21368222957E+02  0.90860219438E+02  0.44505196694E+02  0.10340644545E+03  0.00000000000E+00 0. -1.
         -4    1    5    5    0  503 -0.29976283470E+03  0.65165870422E+03  0.15796630552E+03  0.73448633584E+03  0.00000000000E+00 0.  1.
         -1    1    6    6    0  502 -0.12121352510E+03  0.10419425836E+02  0.49773735207E+03  0.51239023678E+03  0.00000000000E+00 0.  1.
<mgrwt>
<rscale>  0 0.29420208E+04</rscale>
<asrwt>0</asrwt>
<pdfrwt beam="1">  1        1 0.23174083E+00 0.29420208E+04</pdfrwt>
<pdfrwt beam="2">  1       -1 0.22100506E+00 0.29420208E+04</pdfrwt>
<totfact> 0.60019306E-01</totfact>
</mgrwt>
</event>
<event>
12    1  0.1960998E-007  0.1991289E+04  0.7818608E-02  0.8610704E-01
          1   -1    0    0  501    0  0.00000000000E+00  0.00000000000E+00  0.11754640514E+04  0.11754640514E+04  0.00000000000E+00 0. -1.
         -1   -1    0    0    0  501 -0.00000000000E+00 -0.00000000000E+00 -0.84333342078E+03  0.84333342078E+03  0.00000000000E+00 0.  1.
         23    2    1    2    0    0 -0.59023260294E+03  0.45810574187E+03 -0.11834999732E+03  0.76203301473E+03  0.91935832875E+02 0.  0.
        254    2    1    2    0    0  0.59023260294E+03 -0.45810574187E+03  0.45048062793E+03  0.12567644574E+04  0.90459311794E+03 0.  0.
        -24    2    4    4    0    0  0.31523719541E+03  0.54200628782E+02  0.56943254647E+03  0.65793020759E+03  0.79413698764E+02 0.  0.
         24    2    4    4    0    0  0.27499540753E+03 -0.51230637066E+03 -0.11895191853E+03  0.59883424985E+03  0.79828618258E+02 0.  0.
         11    1    3    3    0    0 -0.24205441501E+03  0.14859157906E+03 -0.77362342026E+02  0.29437175332E+03  0.00000000000E+00 0.  1.
        -11    1    3    3    0    0 -0.34817818793E+03  0.30951416282E+03 -0.40987655299E+02  0.46766126141E+03  0.00000000000E+00 0. -1.
          2    1    6    6  502    0  0.11770339051E+03 -0.21893780201E+03 -0.91315311038E+02  0.26481377479E+03  0.00000000000E+00 0. -1.
          3    1    5    5  503    0  0.29821520667E+03  0.34906759476E+02  0.49248340914E+03  0.57679346358E+03  0.00000000000E+00 0. -1.
         -4    1    5    5    0  503  0.17021988737E+02  0.19293869306E+02  0.76949137322E+02  0.81136744006E+02  0.00000000000E+00 0.  1.
         -1    1    6    6    0  502  0.15729201703E+03 -0.29336856865E+03 -0.27636607493E+02  0.33402047506E+03  0.00000000000E+00 0.  1.
<mgrwt>
<rscale>  0 0.19912891E+04</rscale>
<asrwt>0</asrwt>
<pdfrwt beam="1">  1        1 0.18084062E+00 0.19912891E+04</pdfrwt>
<pdfrwt beam="2">  1       -1 0.12974360E+00 0.19912891E+04</pdfrwt>
<totfact> 0.52708306E+00</totfact>
</mgrwt>
</event>
<event>
12    1  0.1960998E-007  0.2356799E+04  0.7818608E-02  0.8455857E-01
         -1   -1    0    0    0  501 -0.00000000000E+00  0.00000000000E+00  0.10115732005E+04  0.10115732005E+04  0.00000000000E+00 0.  1.
          1   -1    0    0  501    0  0.00000000000E+00 -0.00000000000E+00 -0.13727378436E+04  0.13727378436E+04  0.00000000000E+00 0. -1.
         23    2    1    2    0    0  0.53192652822E+03 -0.76190372541E+03 -0.53921839029E+03  0.10783191401E+04  0.92588213400E+02 0.  0.
        254    2    1    2    0    0 -0.53192652822E+03  0.76190372541E+03  0.17805374716E+03  0.13059919040E+04  0.90026029475E+03 0.  0.
        -24    2    4    4    0    0 -0.58081249990E+03  0.82654658564E+02 -0.19104560963E+02  0.59230043877E+03  0.79245649031E+02 0.  0.
         24    2    4    4    0    0  0.48885971684E+02  0.67924906684E+03  0.19715830812E+03  0.71369146526E+03  0.81944957666E+02 0.  0.
         13    1    3    3    0    0  0.27426880508E+03 -0.42994451038E+03 -0.24820045082E+03  0.56716763239E+03  0.00000000000E+00 0. -1.
        -13    1    3    3    0    0  0.25765772314E+03 -0.33195921502E+03 -0.29101793948E+03  0.51115150771E+03  0.00000000000E+00 0.  1.
          4    1    6    6  502    0  0.50238491125E+02  0.25964294762E+03  0.10186409313E+03  0.28339841162E+03  0.00000000000E+00 0. -1.
          1    1    5    5  503    0 -0.32559433152E+03  0.68362898615E+02  0.21902997860E+02  0.33341400082E+03  0.00000000000E+00 0. -1.
         -2    1    5    5    0  503 -0.25521816838E+03  0.14291759949E+02 -0.41007558823E+02  0.25888643795E+03  0.00000000000E+00 0.  1.
         -3    1    6    6    0  502 -0.13525194402E+01  0.41960611923E+03  0.95294214985E+02  0.43029305364E+03  0.00000000000E+00 0.  1.
<mgrwt>
<rscale>  0 0.23567985E+04</rscale>
<asrwt>0</asrwt>
<pdfrwt beam="1">  1        1 0.21119044E+00 0.23567985E+04</pdfrwt>
<pdfrwt beam="2">  1       -1 0.15562665E+00 0.23567985E+04</pdfrwt>
<totfact> 0.22797658E+00</totfact>
</mgrwt>
</event>
<event>
12    1  0.1960998E-007  0.1916569E+04  0.7818608E-02  0.8646652E-01
          1   -1    0    0  501    0  0.00000000000E+00  0.00000000000E+00  0.73284704654E+03  0.73284704654E+03  0.00000000000E+00 0. -1.
         -1   -1    0    0    0  501 -0.00000000000E+00 -0.00000000000E+00 -0.12530711086E+04  0.12530711086E+04  0.00000000000E+00 0.  1.
         23    2    1    2    0    0  0.52815135605E+03 -0.48557686020E+03 -0.40511376780E+03  0.82894378350E+03  0.91114703950E+02 0.  0.
        254    2    1    2    0    0 -0.52815135605E+03  0.48557686020E+03 -0.11511029430E+03  0.11569743717E+04  0.90033914432E+03 0.  0.
        -24    2    4    4    0    0 -0.11861898459E+02  0.52124745772E+03 -0.29359364870E+03  0.60383395403E+03  0.81108548670E+02 0.  0.
         24    2    4    4    0    0 -0.51628945760E+03 -0.35670597522E+02  0.17848335440E+03  0.55314041765E+03  0.79251613777E+02 0.  0.
         13    1    3    3    0    0  0.81910032158E+02 -0.11634117213E+03 -0.57642391443E+02  0.15351601542E+03  0.00000000000E+00 0. -1.
        -13    1    3    3    0    0  0.44624132390E+03 -0.36923568807E+03 -0.34747137636E+03  0.67542776808E+03  0.00000000000E+00 0.  1.
          2    1    6    6  502    0 -0.29115439100E+03 -0.19020966276E+02  0.14188120281E+03  0.32444252537E+03  0.00000000000E+00 0. -1.
          1    1    5    5  503    0 -0.40260686634E+02  0.41994490865E+03 -0.24607189506E+03  0.48839126397E+03  0.00000000000E+00 0. -1.
         -2    1    5    5    0  503  0.28398788175E+02  0.10130254907E+03 -0.47521753641E+02  0.11544269006E+03  0.00000000000E+00 0.  1.
         -1    1    6    6    0  502 -0.22513506659E+03 -0.16649631246E+02  0.36602151584E+02  0.22869789228E+03  0.00000000000E+00 0.  1.
<mgrwt>
<rscale>  0 0.19165693E+04</rscale>
<asrwt>0</asrwt>
<pdfrwt beam="1">  1        1 0.11274570E+00 0.19165693E+04</pdfrwt>
<pdfrwt beam="2">  1       -1 0.19278017E+00 0.19165693E+04</pdfrwt>
<totfact> 0.40072738E+00</totfact>
</mgrwt>
</event>
<event>
12    1  0.1960998E-007  0.3307277E+04  0.7818608E-02  0.8161046E-01
         -2   -1    0    0    0  501 -0.00000000000E+00  0.00000000000E+00  0.68276737669E+03  0.68276737669E+03  0.00000000000E+00 0.  1.
          2   -1    0    0  501    0  0.00000000000E+00 -0.00000000000E+00 -0.40050541687E+04  0.40050541687E+04  0.00000000000E+00 0. -1.
         23    2    1    2    0    0  0.76417590106E+03  0.11416462834E+04 -0.58673269470E+03  0.14968561950E+04  0.94879762167E+02 0.  0.
        254    2    1    2    0    0 -0.76417590106E+03 -0.11416462834E+04 -0.27355540973E+04  0.31909653504E+04  0.90093429500E+03 0.  0.
        -24    2    4    4    0    0 -0.33854545142E+03 -0.30768825793E+03 -0.18231599082E+04  0.18812840871E+04  0.77670322488E+02 0.  0.
         24    2    4    4    0    0 -0.42563044965E+03 -0.83395802548E+03 -0.91239418910E+03  0.13096812632E+04  0.78451176032E+02 0.  0.
         13    1    3    3    0    0  0.44978969374E+03  0.59950804333E+03 -0.34631055355E+03  0.82562198499E+03  0.00000000000E+00 0. -1.
        -13    1    3    3    0    0  0.31438620733E+03  0.54213824009E+03 -0.24042214115E+03  0.67123421000E+03  0.00000000000E+00 0.  1.
          2    1    6    6  502    0  0.79288683184E+00 -0.22709837130E+02 -0.27981226490E+02  0.36046004049E+02  0.00000000000E+00 0. -1.
          3    1    5    5  503    0 -0.12778899165E+03 -0.11961988371E+03 -0.85631479435E+03  0.87402172169E+03  0.00000000000E+00 0. -1.
         -4    1    5    5    0  503 -0.21075645976E+03 -0.18806837423E+03 -0.96684511381E+03  0.10072623654E+04  0.00000000000E+00 0.  1.
         -1    1    6    6    0  502 -0.42642333648E+03 -0.81124818835E+03 -0.88441296261E+03  0.12736352592E+04  0.00000000000E+00 0.  1.
<mgrwt>
<rscale>  0 0.33072770E+04</rscale>
<asrwt>0</asrwt>
<pdfrwt beam="1">  1        2 0.61616216E+00 0.33072770E+04</pdfrwt>
<pdfrwt beam="2">  1       -2 0.10504114E+00 0.33072770E+04</pdfrwt>
<totfact> 0.20731349E-01</totfact>
</mgrwt>
</event>
<event>
12    1  0.1960998E-007  0.2133866E+04  0.7818608E-02  0.8546470E-01
         -1   -1    0    0    0  501 -0.00000000000E+00  0.00000000000E+00  0.65967111977E+03  0.65967111977E+03  0.00000000000E+00 0.  1.
          1   -1    0    0  501    0  0.00000000000E+00 -0.00000000000E+00 -0.17256260306E+04  0.17256260306E+04  0.00000000000E+00 0. -1.
         23    2    1    2    0    0  0.69537588375E+03  0.52709770165E+03 -0.42498516433E+03  0.97478825267E+03  0.90664992431E+02 0.  0.
        254    2    1    2    0    0 -0.69537588375E+03 -0.52709770165E+03 -0.64096974655E+03  0.14105088977E+04  0.90405394079E+03 0.  0.
        -24    2    4    4    0    0 -0.56717338220E+03  0.36908078205E+02 -0.59268140587E+03  0.82501247466E+03  0.79539190129E+02 0.  0.
         24    2    4    4    0    0 -0.12820250155E+03 -0.56400577985E+03 -0.48288340677E+02  0.58549642309E+03  0.77044769414E+02 0.  0.
         11    1    3    3    0    0  0.51824497785E+03  0.43499828358E+03 -0.30822500913E+03  0.74350791525E+03  0.00000000000E+00 0.  1.
        -11    1    3    3    0    0  0.17713090590E+03  0.92099418066E+02 -0.11676015520E+03  0.23128033742E+03  0.00000000000E+00 0. -1.
          4    1    6    6  502    0 -0.10477450682E+03 -0.41903522328E+03 -0.68250896655E+02  0.43729440944E+03  0.00000000000E+00 0. -1.
          1    1    5    5  503    0 -0.32716626313E+03 -0.87187760523E+01 -0.30232157925E+03  0.44554698749E+03  0.00000000000E+00 0. -1.
         -2    1    5    5    0  503 -0.24000711907E+03  0.45626854258E+02 -0.29035982662E+03  0.37946548716E+03  0.00000000000E+00 0.  1.
         -3    1    6    6    0  502 -0.23427994728E+02 -0.14497055657E+03  0.19962555978E+02  0.14820201365E+03  0.00000000000E+00 0.  1.
<mgrwt>
<rscale>  0 0.21338657E+04</rscale>
<asrwt>0</asrwt>
<pdfrwt beam="1">  1        1 0.26548092E+00 0.21338657E+04</pdfrwt>
<pdfrwt beam="2">  1       -1 0.10148787E+00 0.21338657E+04</pdfrwt>
<totfact> 0.38669794E+00</totfact>
</mgrwt>
</event>
<event>
12    1  0.1960998E-007  0.1968030E+04  0.7818608E-02  0.8621715E-01
          2   -1    0    0  501    0  0.00000000000E+00  0.00000000000E+00  0.81509058262E+03  0.81509058262E+03  0.00000000000E+00 0. -1.
         -2   -1    0    0    0  501 -0.00000000000E+00 -0.00000000000E+00 -0.11879489192E+04  0.11879489192E+04  0.00000000000E+00 0.  1.
         23    2    1    2    0    0 -0.63726420564E+03 -0.43865303599E+03 -0.18979679811E+03  0.80219649077E+03  0.94732420300E+02 0.  0.
        254    2    1    2    0    0  0.63726420564E+03  0.43865303599E+03 -0.18306153843E+03  0.12008430110E+04  0.89999458690E+03 0.  0.
        -24    2    4    4    0    0 -0.20086321892E+01 -0.68659099694E+02  0.24951934679E+03  0.27355575659E+03  0.88626976518E+02 0.  0.
         24    2    4    4    0    0  0.63927283783E+03  0.50731213568E+03 -0.43258088522E+03  0.92728725441E+03  0.81853929313E+02 0.  0.
         11    1    3    3    0    0 -0.18118381149E+03 -0.11969713829E+03 -0.10200657323E+02  0.21739142548E+03  0.00000000000E+00 0.  1.
        -11    1    3    3    0    0 -0.45608039415E+03 -0.31895589770E+03 -0.17959614079E+03  0.58480506529E+03  0.00000000000E+00 0. -1.
          2    1    6    6  502    0  0.55276802743E+03  0.46591880083E+03 -0.39864941283E+03  0.82556294458E+03  0.00000000000E+00 0. -1.
          3    1    5    5  503    0 -0.34156274541E+02 -0.73263772951E+01  0.13743956986E+03  0.14180959861E+03  0.00000000000E+00 0. -1.
         -4    1    5    5    0  503  0.32147642352E+02 -0.61332722399E+02  0.11207977693E+03  0.13174615798E+03  0.00000000000E+00 0.  1.
         -1    1    6    6    0  502  0.86504810401E+02  0.41393334853E+02 -0.33931472391E+02  0.10172430984E+03  0.00000000000E+00 0.  1.
<mgrwt>
<rscale>  0 0.19680305E+04</rscale>
<asrwt>0</asrwt>
<pdfrwt beam="1">  1        2 0.12539855E+00 0.19680305E+04</pdfrwt>
<pdfrwt beam="2">  1       -2 0.18276137E+00 0.19680305E+04</pdfrwt>
<totfact> 0.54284575E+00</totfact>
</mgrwt>
</event>
<event>
12    1  0.1960998E-007  0.4243975E+04  0.7818608E-02  0.7957060E-01
          2   -1    0    0  501    0  0.00000000000E+00  0.00000000000E+00  0.35827665798E+04  0.35827665798E+04  0.00000000000E+00 0. -1.
         -2   -1    0    0    0  501 -0.00000000000E+00 -0.00000000000E+00 -0.12568025160E+04  0.12568025160E+04  0.00000000000E+00 0.  1.
         23    2    1    2    0    0  0.17285303944E+04 -0.87060548917E+03  0.42955416424E+03  0.19845102661E+04  0.89403432733E+02 0.  0.
        254    2    1    2    0    0 -0.17285303944E+04  0.87060548917E+03  0.18964098995E+04  0.28550588297E+04  0.89956610206E+03 0.  0.
        -24    2    4    4    0    0 -0.58172476188E+03 -0.12339496070E+03  0.39273198165E+03  0.71711663753E+03  0.79924010816E+02 0.  0.
         24    2    4    4    0    0 -0.11468056326E+04  0.99400044987E+03  0.15036779178E+04  0.21379421922E+04  0.80928877996E+02 0.  0.
         11    1    3    3    0    0  0.26415276365E+03 -0.12510413482E+03  0.97175350255E+02  0.30801099946E+03  0.00000000000E+00 0.  1.
        -11    1    3    3    0    0  0.14643776308E+04 -0.74550135435E+03  0.33237881399E+03  0.16764992666E+04  0.00000000000E+00 0. -1.
          4    1    6    6  502    0 -0.57567704173E+03  0.45092147403E+03  0.74875394137E+03  0.10465976767E+04  0.00000000000E+00 0. -1.
          3    1    5    5  503    0 -0.43787428431E+03 -0.89898728051E+02  0.33470005145E+03  0.55842617651E+03  0.00000000000E+00 0. -1.
         -4    1    5    5    0  503 -0.14385047757E+03 -0.33496232652E+02  0.58031930204E+02  0.15869046103E+03  0.00000000000E+00 0.  1.
         -3    1    6    6    0  502 -0.57112859082E+03  0.54307897584E+03  0.75492397647E+03  0.10913445155E+04  0.00000000000E+00 0.  1.
<mgrwt>
<rscale>  0 0.42439746E+04</rscale>
<asrwt>0</asrwt>
<pdfrwt beam="1">  1        2 0.55119485E+00 0.42439746E+04</pdfrwt>
<pdfrwt beam="2">  1       -2 0.19335423E+00 0.42439746E+04</pdfrwt>
<totfact> 0.80700755E-02</totfact>
</mgrwt>
</event>
<event>
12    1  0.1960998E-007  0.1902780E+04  0.7818608E-02  0.8653474E-01
          1   -1    0    0  501    0  0.00000000000E+00  0.00000000000E+00  0.95058632015E+03  0.95058632015E+03  0.00000000000E+00 0. -1.
         -1   -1    0    0    0  501 -0.00000000000E+00 -0.00000000000E+00 -0.95219433664E+03  0.95219433664E+03  0.00000000000E+00 0.  1.
         23    2    1    2    0    0  0.55787119468E+03  0.40464727863E+03 -0.25837578267E+03  0.74086005579E+03  0.84592477424E+02 0.  0.
        254    2    1    2    0    0 -0.55787119468E+03 -0.40464727863E+03  0.25676776617E+03  0.11619206010E+04  0.89953883036E+03 0.  0.
        -24    2    4    4    0    0 -0.13282610546E+03  0.22838432415E+03  0.28284889640E+03  0.39498510396E+03  0.78788072336E+02 0.  0.
         24    2    4    4    0    0 -0.42504508922E+03 -0.63303160278E+03 -0.26081130228E+02  0.76693549705E+03  0.78214405879E+02 0.  0.
         11    1    3    3    0    0  0.66867227319E+02  0.19758880153E+02 -0.15879650800E+02  0.71510857524E+02  0.00000000000E+00 0.  1.
        -11    1    3    3    0    0  0.49100396736E+03  0.38488839848E+03 -0.24249613187E+03  0.66934919827E+03  0.00000000000E+00 0. -1.
          2    1    6    6  502    0 -0.32418208530E+03 -0.53178367466E+03 -0.34606283860E+02  0.62376718088E+03  0.00000000000E+00 0. -1.
          3    1    5    5  503    0 -0.13806588389E+03  0.22547500188E+03  0.25795708799E+03  0.36938194868E+03  0.00000000000E+00 0. -1.
         -4    1    5    5    0  503  0.52397784267E+01  0.29093222678E+01  0.24891808412E+02  0.25603155275E+02  0.00000000000E+00 0.  1.
         -1    1    6    6    0  502 -0.10086300393E+03 -0.10124792812E+03  0.85251536317E+01  0.14316831617E+03  0.00000000000E+00 0.  1.
<mgrwt>
<rscale>  0 0.19027800E+04</rscale>
<asrwt>0</asrwt>
<pdfrwt beam="1">  1        1 0.14624405E+00 0.19027800E+04</pdfrwt>
<pdfrwt beam="2">  1       -1 0.14649144E+00 0.19027800E+04</pdfrwt>
<totfact> 0.57586782E+00</totfact>
</mgrwt>
</event>
<event>
12    1  0.1960998E-007  0.1604047E+04  0.7818608E-02  0.8818065E-01
          1   -1    0    0  501    0  0.00000000000E+00  0.00000000000E+00  0.29661904627E+04  0.29661904627E+04  0.00000000000E+00 0. -1.
         -1   -1    0    0    0  501 -0.00000000000E+00 -0.00000000000E+00 -0.21685796328E+03  0.21685796328E+03  0.00000000000E+00 0.  1.
         23    2    1    2    0    0 -0.33195293197E+03  0.25698801076E+03  0.16114823601E+04  0.16677723358E+04  0.91397922847E+02 0.  0.
        254    2    1    2    0    0  0.33195293197E+03 -0.25698801076E+03  0.11378501393E+04  0.15152760902E+04  0.90836286985E+03 0.  0.
        -24    2    4    4    0    0  0.19933416622E+03 -0.49962694272E+03  0.10975506585E+04  0.12245506190E+04  0.74468643750E+02 0.  0.
         24    2    4    4    0    0  0.13261876575E+03  0.24263893197E+03  0.40299480818E+02  0.29072547118E+03  0.80223831284E+02 0.  0.
         13    1    3    3    0    0 -0.10065668090E+03  0.75456742106E+02  0.33440193579E+03  0.35728160042E+03  0.00000000000E+00 0.  1.
        -13    1    3    3    0    0 -0.23129625107E+03  0.18153126865E+03  0.12770804243E+04  0.13104907354E+04  0.00000000000E+00 0. -1.
          4    1    6    6  502    0  0.28938682325E+02  0.63953833165E+01  0.22189421382E+00  0.29637771500E+02  0.00000000000E+00 0. -1.
          1    1    5    5  503    0  0.96312000903E+02 -0.20336306713E+03  0.38342420826E+03  0.44457469796E+03  0.00000000000E+00 0. -1.
         -2    1    5    5    0  503  0.10302216532E+03 -0.29626387560E+03  0.71412645021E+03  0.77997592105E+03  0.00000000000E+00 0.  1.
         -3    1    6    6    0  502  0.10368008342E+03  0.23624354865E+03  0.40077586604E+02  0.26108769968E+03  0.00000000000E+00 0.  1.
<mgrwt>
<rscale>  0 0.16040474E+04</rscale>
<asrwt>0</asrwt>
<pdfrwt beam="1">  1        1 0.45633696E+00 0.16040474E+04</pdfrwt>
<pdfrwt beam="2">  1       -1 0.33362766E-01 0.16040474E+04</pdfrwt>
<totfact> 0.51545551E+00</totfact>
</mgrwt>
</event>
<event>
12    1  0.1960998E-007  0.1459075E+04  0.7818608E-02  0.8912133E-01
         -1   -1    0    0    0  501 -0.00000000000E+00  0.00000000000E+00  0.24721694153E+03  0.24721694153E+03  0.00000000000E+00 0.  1.
          1   -1    0    0  501    0  0.00000000000E+00 -0.00000000000E+00 -0.21528665611E+04  0.21528665611E+04  0.00000000000E+00 0. -1.
         23    2    1    2    0    0 -0.30751957194E+02  0.42345979025E+03 -0.47087880436E+03  0.64065091520E+03  0.91885090868E+02 0.  0.
        254    2    1    2    0    0  0.30751957194E+02 -0.42345979025E+03 -0.14347708152E+04  0.17594325874E+04  0.92561971712E+03 0.  0.
        -24    2    4    4    0    0 -0.39531729830E+02 -0.41491485690E+02 -0.13501755590E+04  0.13537845223E+04  0.80462362069E+02 0.  0.
         24    2    4    4    0    0  0.70283687024E+02 -0.38196830456E+03 -0.84595256206E+02  0.40564806511E+03  0.80959329316E+02 0.  0.
         11    1    3    3    0    0 -0.26289395484E+02  0.11617354232E+03 -0.19036941149E+03  0.22456165541E+03  0.00000000000E+00 0. -1.
        -11    1    3    3    0    0 -0.44625617101E+01  0.30728624793E+03 -0.28050939287E+03  0.41608925979E+03  0.00000000000E+00 0.  1.
          2    1    6    6  502    0  0.29728306677E+02 -0.22135764591E+03 -0.87754023567E+02  0.23996613985E+03  0.00000000000E+00 0. -1.
          3    1    5    5  503    0 -0.37677855411E+02  0.15398173536E+02 -0.66769403353E+03  0.66893351459E+03  0.00000000000E+00 0. -1.
         -4    1    5    5    0  503 -0.18538744188E+01 -0.56889659226E+02 -0.68248152547E+03  0.68485100773E+03  0.00000000000E+00 0.  1.
         -1    1    6    6    0  502  0.40555380347E+02 -0.16061065865E+03  0.31587673610E+01  0.16568192526E+03  0.00000000000E+00 0.  1.
<mgrwt>
<rscale>  0 0.14590752E+04</rscale>
<asrwt>0</asrwt>
<pdfrwt beam="1">  1        1 0.33121025E+00 0.14590752E+04</pdfrwt>
<pdfrwt beam="2">  1       -1 0.38033374E-01 0.14590752E+04</pdfrwt>
<totfact> 0.15223096E+01</totfact>
</mgrwt>
</event>
<event>
12    1  0.1960998E-007  0.2700023E+04  0.7818608E-02  0.8334998E-01
          1   -1    0    0  501    0  0.00000000000E+00  0.00000000000E+00  0.38563310971E+04  0.38563310971E+04  0.00000000000E+00 0. -1.
         -1   -1    0    0    0  501 -0.00000000000E+00 -0.00000000000E+00 -0.47260734859E+03  0.47260734859E+03  0.00000000000E+00 0.  1.
         23    2    1    2    0    0  0.11273620481E+04 -0.19934876484E+03  0.20788057671E+04  0.23749619471E+04  0.91245357035E+02 0.  0.
        254    2    1    2    0    0 -0.11273620481E+04  0.19934876484E+03  0.13049179814E+04  0.19539764986E+04  0.89695490481E+03 0.  0.
        -24    2    4    4    0    0 -0.65470534521E+03 -0.17826997565E+03  0.11277572602E+04  0.13184935424E+04  0.78546228757E+02 0.  0.
         24    2    4    4    0    0 -0.47265670293E+03  0.37761874050E+03  0.17716072121E+03  0.63548295624E+03  0.80326798289E+02 0.  0.
         13    1    3    3    0    0  0.38263706255E+03 -0.27828150487E+02  0.65856546272E+03  0.76216402191E+03  0.00000000000E+00 0.  1.
        -13    1    3    3    0    0  0.74472498560E+03 -0.17152061436E+03  0.14202403043E+04  0.16127979252E+04  0.00000000000E+00 0. -1.
          4    1    6    6  502    0 -0.39297310451E+03  0.32693920384E+03  0.17724613330E+03  0.54104833023E+03  0.00000000000E+00 0. -1.
          3    1    5    5  503    0 -0.22180844279E+03 -0.98809856143E+02  0.38909022176E+03  0.45864318771E+03  0.00000000000E+00 0. -1.
         -4    1    5    5    0  503 -0.43289690242E+03 -0.79460119511E+02  0.73866703847E+03  0.85985035468E+03  0.00000000000E+00 0.  1.
         -3    1    6    6    0  502 -0.79683598418E+02  0.50679536663E+02 -0.85412091756E-01  0.94434626003E+02  0.00000000000E+00 0.  1.
<mgrwt>
<rscale>  0 0.27000225E+04</rscale>
<asrwt>0</asrwt>
<pdfrwt beam="1">  1        1 0.59328168E+00 0.27000225E+04</pdfrwt>
<pdfrwt beam="2">  1       -1 0.72708826E-01 0.27000225E+04</pdfrwt>
<totfact> 0.21288710E-01</totfact>
</mgrwt>
</event>
<event>
12    1  0.1960998E-007  0.1442198E+04  0.7818608E-02  0.8923828E-01
         -2   -1    0    0    0  501 -0.00000000000E+00  0.00000000000E+00  0.32673183314E+03  0.32673183314E+03  0.00000000000E+00 0. -1.
          2   -1    0    0  501    0  0.00000000000E+00 -0.00000000000E+00 -0.15914685604E+04  0.15914685604E+04  0.00000000000E+00 0.  1.
         23    2    1    2    0    0  0.10781250097E+02  0.43146653156E+03 -0.34363392968E+03  0.55918789357E+03  0.91253599775E+02 0.  0.
        254    2    1    2    0    0 -0.10781250097E+02 -0.43146653156E+03 -0.92110279760E+03  0.13590125000E+04  0.90122417201E+03 0.  0.
        -24    2    4    4    0    0 -0.20814256743E+03 -0.28026566420E+03  0.42930216629E+02  0.36049301411E+03  0.78993916370E+02 0.  0.
         24    2    4    4    0    0  0.19736131733E+03 -0.15120086736E+03 -0.96403301423E+03  0.99851948589E+03  0.76604956160E+02 0.  0.
         13    1    3    3    0    0  0.33589064129E+02  0.27164957127E+03 -0.17055600926E+03  0.32250746828E+03  0.00000000000E+00 0. -1.
        -13    1    3    3    0    0 -0.22807814033E+02  0.15981696029E+03 -0.17307792042E+03  0.23668042529E+03  0.00000000000E+00 0.  1.
          4    1    6    6  502    0  0.72860601517E+02 -0.75395367710E+02 -0.54132202379E+03  0.55138250078E+03  0.00000000000E+00 0. -1.
          3    1    5    5  503    0 -0.53257267151E+02 -0.90418603790E+02  0.48075991674E+02  0.11542599963E+03  0.00000000000E+00 0. -1.
         -2    1    5    5    0  503 -0.15488530028E+03 -0.18984706041E+03 -0.51457750448E+01  0.24506701448E+03  0.00000000000E+00 0.  1.
         -3    1    6    6    0  502  0.12450071581E+03 -0.75805499652E+02 -0.42271099044E+03  0.44713698511E+03  0.00000000000E+00 0.  1.
<mgrwt>
<rscale>  0 0.14421975E+04</rscale>
<asrwt>0</asrwt>
<pdfrwt beam="1">  1        2 0.24484132E+00 0.14421975E+04</pdfrwt>
<pdfrwt beam="2">  1       -2 0.50266436E-01 0.14421975E+04</pdfrwt>
<totfact> 0.40947600E+01</totfact>
</mgrwt>
</event>
<event>
12    1  0.1960998E-007  0.2883428E+04  0.7818608E-02  0.8277825E-01
          2   -1    0    0  501    0  0.00000000000E+00  0.00000000000E+00  0.34562200547E+04  0.34562200547E+04  0.00000000000E+00 0. -1.
         -2   -1    0    0    0  501 -0.00000000000E+00 -0.00000000000E+00 -0.60139080318E+03  0.60139080318E+03  0.00000000000E+00 0.  1.
         23    2    1    2    0    0 -0.42442758556E+02 -0.20298072617E+03 -0.51574092072E+03  0.56279451475E+03  0.88013667019E+02 0.  0.
        254    2    1    2    0    0  0.42442758556E+02  0.20298072617E+03  0.33705701722E+04  0.34948163431E+04  0.89999745734E+03 0.  0.
        -24    2    4    4    0    0  0.89702091020E+02  0.35229448815E+03  0.32678187568E+04  0.32889337381E+04  0.79295869234E+02 0.  0.
         24    2    4    4    0    0 -0.47259332463E+02 -0.14931376197E+03  0.10275141543E+03  0.20588260500E+03  0.85450275883E+02 0.  0.
         11    1    3    3    0    0 -0.63460377054E+02 -0.14877120921E+03 -0.31927195822E+03  0.35790316491E+03  0.00000000000E+00 0. -1.
        -11    1    3    3    0    0  0.21017618498E+02 -0.54209516967E+02 -0.19646896250E+03  0.20489134985E+03  0.00000000000E+00 0.  1.
          4    1    6    6  502    0 -0.22776140008E+02  0.16239143246E+01  0.26608908725E+02  0.35063138407E+02  0.00000000000E+00 0. -1.
          3    1    5    5  503    0 -0.75015685228E+01  0.11371648344E+02  0.24867835066E+03  0.24905121963E+03  0.00000000000E+00 0. -1.
         -4    1    5    5    0  503  0.97203659542E+02  0.34092283980E+03  0.30191404062E+04  0.30398825185E+04  0.00000000000E+00 0.  1.
         -3    1    6    6    0  502 -0.24483192455E+02 -0.15093767630E+03  0.76142506700E+02  0.17081946659E+03  0.00000000000E+00 0.  1.
<mgrwt>
<rscale>  0 0.28834278E+04</rscale>
<asrwt>0</asrwt>
<pdfrwt beam="1">  1        2 0.53172615E+00 0.28834278E+04</pdfrwt>
<pdfrwt beam="2">  1       -2 0.92521665E-01 0.28834278E+04</pdfrwt>
<totfact> 0.74679429E-01</totfact>
</mgrwt>
</event>
<event>
12    1  0.1960998E-007  0.3471615E+04  0.7818608E-02  0.8120550E-01
         -2   -1    0    0    0  501 -0.00000000000E+00  0.00000000000E+00  0.11781734778E+04  0.11781734778E+04  0.00000000000E+00 0.  1.
          2   -1    0    0  501    0  0.00000000000E+00 -0.00000000000E+00 -0.25573714309E+04  0.25573714309E+04  0.00000000000E+00 0. -1.
         23    2    1    2    0    0 -0.71873057407E+03 -0.34344173376E+03 -0.21594599800E+04  0.23034879302E+04  0.90903115234E+02 0.  0.
        254    2    1    2    0    0  0.71873057407E+03  0.34344173376E+03  0.78026202701E+03  0.14320569786E+04  0.89858360575E+03 0.  0.
        -24    2    4    4    0    0  0.77831211937E+03  0.90735376826E+02  0.84237716835E+03  0.11531702099E+04  0.78737382596E+02 0.  0.
         24    2    4    4    0    0 -0.59581545301E+02  0.25270635694E+03 -0.62115141347E+02  0.27888676870E+03  0.80678842310E+02 0.  0.
         11    1    3    3    0    0 -0.14106579477E+03 -0.54341379432E+02 -0.32023472726E+03  0.35412261226E+03  0.00000000000E+00 0.  1.
        -11    1    3    3    0    0 -0.57766477930E+03 -0.28910035433E+03 -0.18392252528E+04  0.19493653179E+04  0.00000000000E+00 0. -1.
          2    1    6    6  502    0  0.11494049353E+02  0.67473090006E+02 -0.39950074688E+02  0.79251116794E+02  0.00000000000E+00 0. -1.
          3    1    5    5  503    0  0.25497077706E+03  0.59724255636E+02  0.24873331956E+03  0.36117218626E+03  0.00000000000E+00 0. -1.
         -4    1    5    5    0  503  0.52334134230E+03  0.31011121190E+02  0.59364384879E+03  0.79199802361E+03  0.00000000000E+00 0.  1.
         -1    1    6    6    0  502 -0.71075594654E+02  0.18523326693E+03 -0.22165066659E+02  0.19963565191E+03  0.00000000000E+00 0.  1.
<mgrwt>
<rscale>  0 0.34716147E+04</rscale>
<asrwt>0</asrwt>
<pdfrwt beam="1">  1        2 0.39344175E+00 0.34716147E+04</pdfrwt>
<pdfrwt beam="2">  1       -2 0.18125746E+00 0.34716147E+04</pdfrwt>
<totfact> 0.47179273E-01</totfact>
</mgrwt>
</event>
<event>
12    1  0.1960998E-007  0.1950952E+04  0.7818608E-02  0.8629902E-01
          2   -1    0    0  501    0  0.00000000000E+00  0.00000000000E+00  0.96141880250E+03  0.96141880250E+03  0.00000000000E+00 0.  1.
         -2   -1    0    0    0  501 -0.00000000000E+00 -0.00000000000E+00 -0.98973900613E+03  0.98973900613E+03  0.00000000000E+00 0. -1.
         23    2    1    2    0    0 -0.10813567994E+03  0.45557625721E+03 -0.61506353864E+03  0.77901577541E+03  0.96536885996E+02 0.  0.
        254    2    1    2    0    0  0.10813567994E+03 -0.45557625721E+03  0.58674333501E+03  0.11721420332E+04  0.90022561254E+03 0.  0.
        -24    2    4    4    0    0 -0.36110028564E+03 -0.16838676907E+03  0.68320041205E+02  0.41216477396E+03  0.80403063209E+02 0.  0.
         24    2    4    4    0    0  0.46923596558E+03 -0.28718948814E+03  0.51842329381E+03  0.75997725927E+03  0.78374291387E+02 0.  0.
         11    1    3    3    0    0 -0.72445118793E+02  0.23890831784E+03 -0.25208823158E+03  0.35478719829E+03  0.00000000000E+00 0.  1.
        -11    1    3    3    0    0 -0.35690561151E+02  0.21666793938E+03 -0.36297530707E+03  0.42422857713E+03  0.00000000000E+00 0. -1.
          2    1    6    6  502    0  0.13917182449E+03 -0.11015097358E+03  0.20864066235E+03  0.27392144804E+03  0.00000000000E+00 0. -1.
          1    1    5    5  503    0 -0.55977898163E+02 -0.31299021894E+02 -0.18174456370E+02  0.66659318318E+02  0.00000000000E+00 0. -1.
         -2    1    5    5    0  503 -0.30512238748E+03 -0.13708774718E+03  0.86494497575E+02  0.34550545564E+03  0.00000000000E+00 0.  1.
         -1    1    6    6    0  502  0.33006414110E+03 -0.17703851457E+03  0.30978263145E+03  0.48605581123E+03  0.00000000000E+00 0.  1.
<mgrwt>
<rscale>  0 0.19509523E+04</rscale>
<asrwt>0</asrwt>
<pdfrwt beam="1">  1        2 0.14791058E+00 0.19509523E+04</pdfrwt>
<pdfrwt beam="2">  1       -2 0.15226754E+00 0.19509523E+04</pdfrwt>
<totfact> 0.71644908E+00</totfact>
</mgrwt>
</event>
<event>
12    1  0.1960998E-007  0.2073907E+04  0.7818608E-02  0.8572825E-01
         -1   -1    0    0    0  501 -0.00000000000E+00  0.00000000000E+00  0.14777549610E+04  0.14777549610E+04  0.00000000000E+00 0.  1.
          1   -1    0    0  501    0  0.00000000000E+00 -0.00000000000E+00 -0.72763930846E+03  0.72763930846E+03  0.00000000000E+00 0. -1.
         23    2    1    2    0    0 -0.76224545577E+03  0.33206991500E+03  0.42452856107E+03  0.93784350176E+03  0.89651387867E+02 0.  0.
        254    2    1    2    0    0  0.76224545577E+03 -0.33206991500E+03  0.32558709143E+03  0.12675507677E+04  0.89966073117E+03 0.  0.
        -24    2    4    4    0    0  0.19212740586E+03  0.28684272083E+03 -0.17719987021E+02  0.35514246247E+03  0.81366357541E+02 0.  0.
         24    2    4    4    0    0  0.57011804991E+03 -0.61891263583E+03  0.34330707845E+03  0.91240830519E+03  0.80880922656E+02 0.  0.
         13    1    3    3    0    0 -0.67376067647E+03  0.26896441650E+03  0.39091812023E+03  0.82408269198E+03  0.00000000000E+00 0. -1.
        -13    1    3    3    0    0 -0.88484779299E+02  0.63105498496E+02  0.33610440835E+02  0.11376080978E+03  0.00000000000E+00 0.  1.
          4    1    6    6  502    0  0.39735533007E+03 -0.38702753080E+03  0.25126122065E+03  0.60894479958E+03  0.00000000000E+00 0. -1.
          1    1    5    5  503    0  0.10143426030E+03  0.15971425105E+03 -0.49957318156E+02  0.19568670059E+03  0.00000000000E+00 0. -1.
         -2    1    5    5    0  503  0.90693145556E+02  0.12712846978E+03  0.32237331135E+02  0.15945576188E+03  0.00000000000E+00 0.  1.
         -3    1    6    6    0  502  0.17276271983E+03 -0.23188510503E+03  0.92045857798E+02  0.30346350561E+03  0.00000000000E+00 0.  1.
<mgrwt>
<rscale>  0 0.20739070E+04</rscale>
<asrwt>0</asrwt>
<pdfrwt beam="1">  1        1 0.11194451E+00 0.20739070E+04</pdfrwt>
<pdfrwt beam="2">  1       -1 0.22734692E+00 0.20739070E+04</pdfrwt>
<totfact> 0.23259028E+00</totfact>
</mgrwt>
</event>
<event>
12    1  0.1960998E-007  0.1800651E+04  0.7818608E-02  0.8705953E-01
         -2   -1    0    0    0  501 -0.00000000000E+00  0.00000000000E+00  0.81169189482E+03  0.81169189482E+03  0.00000000000E+00 0.  1.
          2   -1    0    0  501    0  0.00000000000E+00 -0.00000000000E+00 -0.99863801564E+03  0.99863801564E+03  0.00000000000E+00 0. -1.
         23    2    1    2    0    0  0.26036689388E+03 -0.60016581107E+03 -0.22238072085E+03  0.69688897726E+03  0.90615348650E+02 0.  0.
        254    2    1    2    0    0 -0.26036689388E+03  0.60016581107E+03  0.35434600027E+02  0.11134409332E+04  0.90028061215E+03 0.  0.
        -24    2    4    4    0    0  0.20452989790E+03  0.56540106108E+03 -0.11470928280E+03  0.61712460276E+03  0.78573002774E+02 0.  0.
         24    2    4    4    0    0 -0.46489679179E+03  0.34764749998E+02  0.15014388283E+03  0.49631633044E+03  0.80306285226E+02 0.  0.
         11    1    3    3    0    0  0.95492579887E+02 -0.30098669818E+03 -0.73266161126E+02  0.32416007721E+03  0.00000000000E+00 0.  1.
        -11    1    3    3    0    0  0.16487431400E+03 -0.29917911290E+03 -0.14911455972E+03  0.37272890005E+03  0.00000000000E+00 0. -1.
          4    1    6    6  502    0 -0.46309642822E+02  0.87611312062E+01  0.42178158727E+02  0.63248221413E+02  0.00000000000E+00 0. -1.
          1    1    5    5  503    0  0.98970813216E+01  0.11865578998E+03 -0.22677475497E+02  0.12120815406E+03  0.00000000000E+00 0. -1.
         -2    1    5    5    0  503  0.19463281658E+03  0.44674527109E+03 -0.92031807307E+02  0.49591644870E+03  0.00000000000E+00 0.  1.
         -3    1    6    6    0  502 -0.41858714897E+03  0.26003618792E+02  0.10796572410E+03  0.43306810902E+03  0.00000000000E+00 0.  1.
<mgrwt>
<rscale>  0 0.18006514E+04</rscale>
<asrwt>0</asrwt>
<pdfrwt beam="1">  1        2 0.15363662E+00 0.18006514E+04</pdfrwt>
<pdfrwt beam="2">  1       -2 0.12487568E+00 0.18006514E+04</pdfrwt>
<totfact> 0.11453343E+01</totfact>
</mgrwt>
</event>
<event>
12    1  0.1960998E-007  0.3292382E+04  0.7818608E-02  0.8164837E-01
          1   -1    0    0  501    0  0.00000000000E+00  0.00000000000E+00  0.29846566216E+04  0.29846566216E+04  0.00000000000E+00 0. -1.
         -1   -1    0    0    0  501 -0.00000000000E+00 -0.00000000000E+00 -0.90795856548E+03  0.90795856548E+03  0.00000000000E+00 0.  1.
         23    2    1    2    0    0  0.62439738704E+03 -0.50991417011E+03  0.24887782188E+04  0.26176867093E+04  0.91553962022E+02 0.  0.
        254    2    1    2    0    0 -0.62439738704E+03  0.50991417011E+03 -0.41208016267E+03  0.12749284778E+04  0.89763467243E+03 0.  0.
        -24    2    4    4    0    0 -0.24561427923E+02  0.46485717704E+03 -0.46923305894E+03  0.66582372330E+03  0.80287658583E+02 0.  0.
         24    2    4    4    0    0 -0.59983595911E+03  0.45056993067E+02  0.57152896269E+02  0.60910475447E+03  0.76868965721E+02 0.  0.
         13    1    3    3    0    0  0.33670361226E+03 -0.21676040915E+03  0.12030826041E+04  0.12679756108E+04  0.00000000000E+00 0. -1.
        -13    1    3    3    0    0  0.28769377478E+03 -0.29315376096E+03  0.12856956148E+04  0.13497110985E+04  0.00000000000E+00 0.  1.
          2    1    6    6  502    0 -0.56317774063E+03  0.56475426888E+02  0.41112649857E+02  0.56749351658E+03  0.00000000000E+00 0. -1.
          1    1    5    5  503    0 -0.88296131890E+01  0.31836308201E+03 -0.36996103088E+03  0.48816408966E+03  0.00000000000E+00 0. -1.
         -2    1    5    5    0  503 -0.15731814734E+02  0.14649409502E+03 -0.99272028062E+02  0.17765963365E+03  0.00000000000E+00 0.  1.
         -1    1    6    6    0  502 -0.36658218482E+02 -0.11418433822E+02  0.16040246412E+02  0.41611237883E+02  0.00000000000E+00 0.  1.
<mgrwt>
<rscale>  0 0.32923818E+04</rscale>
<asrwt>0</asrwt>
<pdfrwt beam="1">  1        1 0.45917794E+00 0.32923818E+04</pdfrwt>
<pdfrwt beam="2">  1       -1 0.13968593E+00 0.32923818E+04</pdfrwt>
<totfact> 0.21451026E-01</totfact>
</mgrwt>
</event>
<event>
12    1  0.1960998E-007  0.1324988E+04  0.7818608E-02  0.9009981E-01
         -2   -1    0    0    0  501 -0.00000000000E+00  0.00000000000E+00  0.18442828649E+03  0.18442828649E+03  0.00000000000E+00 0.  1.
          2   -1    0    0  501    0  0.00000000000E+00 -0.00000000000E+00 -0.23797788926E+04  0.23797788926E+04  0.00000000000E+00 0. -1.
         23    2    1    2    0    0  0.19435250183E+03  0.13575003022E+03 -0.10874655039E+04  0.11167385180E+04  0.91228995811E+02 0.  0.
        254    2    1    2    0    0 -0.19435250183E+03 -0.13575003022E+03 -0.11078851022E+04  0.14474686611E+04  0.90086356322E+03 0.  0.
        -24    2    4    4    0    0 -0.22033779114E+03 -0.36485498946E+03 -0.14887646088E+03  0.45788422388E+03  0.76327297464E+02 0.  0.
         24    2    4    4    0    0  0.25985289308E+02  0.22910495924E+03 -0.95900864133E+03  0.98958443723E+03  0.80096608255E+02 0.  0.
         11    1    3    3    0    0  0.11127749434E+03  0.12937175998E+03 -0.72015547829E+03  0.74009705170E+03  0.00000000000E+00 0. -1.
        -11    1    3    3    0    0  0.83075007486E+02  0.63782702446E+01 -0.36731002561E+03  0.37664146627E+03  0.00000000000E+00 0.  1.
          4    1    6    6  502    0 -0.31770040420E+01  0.18710881817E+03 -0.65108132688E+03  0.67744128705E+03  0.00000000000E+00 0. -1.
          3    1    5    5  503    0 -0.21883309082E+03 -0.31860054786E+03 -0.12847878427E+03  0.40730949994E+03  0.00000000000E+00 0. -1.
         -4    1    5    5    0  503 -0.15047003217E+01 -0.46254441601E+02 -0.20397676611E+02  0.50574723944E+02  0.00000000000E+00 0.  1.
         -3    1    6    6    0  502  0.29162293350E+02  0.41996141067E+02 -0.30792731445E+03  0.31214315018E+03  0.00000000000E+00 0.  1.
<mgrwt>
<rscale>  0 0.13249884E+04</rscale>
<asrwt>0</asrwt>
<pdfrwt beam="1">  1        2 0.36611981E+00 0.13249884E+04</pdfrwt>
<pdfrwt beam="2">  1       -2 0.28373584E-01 0.13249884E+04</pdfrwt>
<totfact> 0.45595745E+01</totfact>
</mgrwt>
</event>
<event>
12    1  0.1960998E-007  0.2257674E+04  0.7818608E-02  0.8494799E-01
         -1   -1    0    0    0  501 -0.00000000000E+00  0.00000000000E+00  0.64728166493E+03  0.64728166493E+03  0.00000000000E+00 0.  1.
          1   -1    0    0  501    0  0.00000000000E+00 -0.00000000000E+00 -0.19686527958E+04  0.19686527958E+04  0.00000000000E+00 0. -1.
         23    2    1    2    0    0  0.22494496158E+03  0.79735003881E+03 -0.10691046286E+04  0.13572624079E+04  0.11317781128E+03 0.  0.
        254    2    1    2    0    0 -0.22494496158E+03 -0.79735003881E+03 -0.25226650225E+03  0.12586720528E+04  0.91337266664E+03 0.  0.
        -24    2    4    4    0    0 -0.29496251333E+03 -0.88965090470E+03  0.32347555785E+02  0.94109164216E+03  0.78265561251E+02 0.  0.
         24    2    4    4    0    0  0.70017551748E+02  0.92300865892E+02 -0.28461405804E+03  0.31758041062E+03  0.80188825766E+02 0.  0.
         13    1    3    3    0    0  0.12649731314E+03  0.39418970506E+03 -0.44521322078E+03  0.60794893352E+03  0.00000000000E+00 0.  1.
        -13    1    3    3    0    0  0.98447648440E+02  0.40316033375E+03 -0.62389140780E+03  0.74931347440E+03  0.00000000000E+00 0. -1.
          4    1    6    6  502    0  0.61940471254E+02  0.65216748516E+02 -0.27226592694E+03  0.28673782667E+03  0.00000000000E+00 0. -1.
          1    1    5    5  503    0 -0.21899834991E+03 -0.57770518051E+03  0.47721743202E+02  0.61966193818E+03  0.00000000000E+00 0. -1.
         -2    1    5    5    0  503 -0.75964163416E+02 -0.31194572419E+03 -0.15374187416E+02  0.32142970398E+03  0.00000000000E+00 0.  1.
         -3    1    6    6    0  502  0.80770804938E+01  0.27084117375E+02 -0.12348131094E+02  0.30842583952E+02  0.00000000000E+00 0.  1.
<mgrwt>
<rscale>  0 0.22576739E+04</rscale>
<asrwt>0</asrwt>
<pdfrwt beam="1">  1        1 0.30286966E+00 0.22576739E+04</pdfrwt>
<pdfrwt beam="2">  1       -1 0.99581795E-01 0.22576739E+04</pdfrwt>
<totfact> 0.27316712E+00</totfact>
</mgrwt>
</event>
<event>
12    1  0.1960998E-007  0.3249585E+04  0.7818608E-02  0.8175843E-01
          1   -1    0    0  501    0  0.00000000000E+00  0.00000000000E+00  0.14470634550E+04  0.14470634550E+04  0.00000000000E+00 0. -1.
         -1   -1    0    0    0  501 -0.00000000000E+00 -0.00000000000E+00 -0.18243506553E+04  0.18243506553E+04  0.00000000000E+00 0.  1.
         23    2    1    2    0    0  0.12142547265E+04 -0.59079264231E+03  0.47984931524E+03  0.14358903869E+04  0.89862956074E+02 0.  0.
        254    2    1    2    0    0 -0.12142547265E+04  0.59079264231E+03 -0.85713651560E+03  0.18355237234E+04  0.90056307148E+03 0.  0.
        -24    2    4    4    0    0 -0.10339093337E+04  0.43223280379E+03 -0.21343539749E+03  0.11436412612E+04  0.81036771943E+02 0.  0.
         24    2    4    4    0    0 -0.18034539278E+03  0.15855983852E+03 -0.64370111811E+03  0.69188246218E+03  0.81758968450E+02 0.  0.
         13    1    3    3    0    0  0.43024540631E+03 -0.16438401293E+03  0.14919534862E+03  0.48414095614E+03  0.00000000000E+00 0.  1.
        -13    1    3    3    0    0  0.78400932020E+03 -0.42640862939E+03  0.33065396663E+03  0.95174943080E+03  0.00000000000E+00 0. -1.
          4    1    6    6  502    0 -0.36830337570E+02  0.19074048592E+02 -0.47872917477E+02  0.63341213463E+02  0.00000000000E+00 0. -1.
          1    1    5    5  503    0 -0.48173041606E+03  0.22451309211E+03 -0.66176077249E+02  0.53558341599E+03  0.00000000000E+00 0. -1.
         -2    1    5    5    0  503 -0.55217891768E+03  0.20771971168E+03 -0.14725932024E+03  0.60805784523E+03  0.00000000000E+00 0.  1.
         -3    1    6    6    0  502 -0.14351505521E+03  0.13948578993E+03 -0.59582820063E+03  0.62854124871E+03  0.00000000000E+00 0.  1.
<mgrwt>
<rscale>  0 0.32495853E+04</rscale>
<asrwt>0</asrwt>
<pdfrwt beam="1">  1        1 0.22262515E+00 0.32495853E+04</pdfrwt>
<pdfrwt beam="2">  1       -1 0.28066933E+00 0.32495853E+04</pdfrwt>
<totfact> 0.26140660E-01</totfact>
</mgrwt>
</event>
<event>
12    1  0.1960998E-007  0.2755558E+04  0.7818608E-02  0.8317200E-01
          1   -1    0    0  501    0  0.00000000000E+00  0.00000000000E+00  0.13854771790E+04  0.13854771790E+04  0.00000000000E+00 0. -1.
         -1   -1    0    0    0  501 -0.00000000000E+00 -0.00000000000E+00 -0.13701236801E+04  0.13701236801E+04  0.00000000000E+00 0.  1.
         23    2    1    2    0    0 -0.51718555467E+02 -0.56239894276E+03 -0.10841824714E+04  0.12259621188E+04  0.92542452917E+02 0.  0.
        254    2    1    2    0    0  0.51718555467E+02  0.56239894276E+03  0.10995359703E+04  0.15296387404E+04  0.90102605201E+03 0.  0.
        -24    2    4    4    0    0  0.93752852514E+02  0.36310844736E+03  0.12205390917E+04  0.12793406808E+04  0.79746856970E+02 0.  0.
         24    2    4    4    0    0 -0.42034297048E+02  0.19929049540E+03 -0.12100312143E+03  0.25029805963E+03  0.80769917488E+02 0.  0.
         11    1    3    3    0    0 -0.26358866107E+02 -0.70610112195E+02 -0.97650204506E+02  0.12335371987E+03  0.00000000000E+00 0. -1.
        -11    1    3    3    0    0 -0.25359689360E+02 -0.49178883057E+03 -0.98653226688E+03  0.11026083989E+04  0.00000000000E+00 0.  1.
          4    1    6    6  502    0 -0.10468937732E+01  0.36900524896E+02  0.93325892556E+01  0.38076790127E+02  0.00000000000E+00 0. -1.
          3    1    5    5  503    0  0.60705766087E+02  0.97601786448E+02  0.32760690316E+03  0.34718522687E+03  0.00000000000E+00 0. -1.
         -4    1    5    5    0  503  0.33047086427E+02  0.26550666091E+03  0.89293218856E+03  0.93215545392E+03  0.00000000000E+00 0.  1.
         -3    1    6    6    0  502 -0.40987403275E+02  0.16238997051E+03 -0.13033571068E+03  0.21222126950E+03  0.00000000000E+00 0.  1.
<mgrwt>
<rscale>  0 0.27555581E+04</rscale>
<asrwt>0</asrwt>
<pdfrwt beam="1">  1        1 0.21315034E+00 0.27555581E+04</pdfrwt>
<pdfrwt beam="2">  1       -1 0.21078826E+00 0.27555581E+04</pdfrwt>
<totfact> 0.86804570E-01</totfact>
</mgrwt>
</event>
<event>
12    1  0.1960998E-007  0.3041013E+04  0.7818608E-02  0.8232116E-01
         -1   -1    0    0    0  501 -0.00000000000E+00  0.00000000000E+00  0.13392267817E+04  0.13392267817E+04  0.00000000000E+00 0.  1.
          1   -1    0    0  501    0  0.00000000000E+00 -0.00000000000E+00 -0.17263240343E+04  0.17263240343E+04  0.00000000000E+00 0. -1.
         23    2    1    2    0    0  0.40934304841E+03 -0.12609506423E+04  0.22873057273E+03  0.13483728162E+04  0.90737660029E+02 0.  0.
        254    2    1    2    0    0 -0.40934304841E+03  0.12609506423E+04 -0.61582782536E+03  0.17171779998E+04  0.90105389360E+03 0.  0.
        -24    2    4    4    0    0 -0.38859112295E+03  0.70187006063E+03  0.91962565202E+02  0.81150286712E+03  0.80343930072E+02 0.  0.
         24    2    4    4    0    0 -0.20751925465E+02  0.55908058163E+03 -0.70779039056E+03  0.90567513273E+03  0.79236796385E+02 0.  0.
         11    1    3    3    0    0  0.31713073173E+03 -0.86295211128E+03  0.13526588564E+03  0.92927665805E+03  0.00000000000E+00 0. -1.
        -11    1    3    3    0    0  0.92212316683E+02 -0.39799853098E+03  0.93464687093E+02  0.41909615811E+03  0.00000000000E+00 0.  1.
          2    1    6    6  502    0  0.25627449847E+02  0.98049047393E+02 -0.13949195142E+03  0.17241921700E+03  0.00000000000E+00 0. -1.
          1    1    5    5  503    0 -0.34887888039E+03  0.60089685249E+03  0.55534719719E+02  0.69704921318E+03  0.00000000000E+00 0. -1.
         -2    1    5    5    0  503 -0.39712242563E+02  0.10097320814E+03  0.36427845483E+02  0.11445365393E+03  0.00000000000E+00 0.  1.
         -1    1    6    6    0  502 -0.46379375312E+02  0.46103153424E+03 -0.56829843914E+03  0.73325591573E+03  0.00000000000E+00 0.  1.
<mgrwt>
<rscale>  0 0.30410126E+04</rscale>
<asrwt>0</asrwt>
<pdfrwt beam="1">  1        1 0.26558831E+00 0.30410126E+04</pdfrwt>
<pdfrwt beam="2">  1       -1 0.20603489E+00 0.30410126E+04</pdfrwt>
<totfact> 0.53059084E-01</totfact>
</mgrwt>
</event>
<event>
12    1  0.1960998E-007  0.1314246E+04  0.7818608E-02  0.9018344E-01
         -2   -1    0    0    0  501 -0.00000000000E+00  0.00000000000E+00  0.45032468060E+03  0.45032468060E+03  0.00000000000E+00 0.  1.
          2   -1    0    0  501    0  0.00000000000E+00 -0.00000000000E+00 -0.95888725684E+03  0.95888725684E+03  0.00000000000E+00 0. -1.
         23    2    1    2    0    0  0.31973674885E+03 -0.13176199225E+03 -0.80517998420E+02  0.36872929998E+03  0.99425034183E+02 0.  0.
        254    2    1    2    0    0 -0.31973674885E+03  0.13176199225E+03 -0.42804457782E+03  0.10404826375E+04  0.88305670661E+03 0.  0.
        -24    2    4    4    0    0 -0.16992299277E+03  0.48326711281E+03 -0.39008198669E+03  0.64828387466E+03  0.75412863706E+02 0.  0.
         24    2    4    4    0    0 -0.14981375609E+03 -0.35150512056E+03 -0.37962591130E+02  0.39219876279E+03  0.79866763552E+02 0.  0.
         13    1    3    3    0    0  0.26921601585E+03 -0.98642959254E+02 -0.26936111057E+02  0.28798133738E+03  0.00000000000E+00 0.  1.
        -13    1    3    3    0    0  0.50520733000E+02 -0.33119032998E+02 -0.53581887364E+02  0.80747962594E+02  0.00000000000E+00 0. -1.
          4    1    6    6  502    0 -0.11783797233E+03 -0.33191852413E+03 -0.40920263113E+02  0.35458449250E+03  0.00000000000E+00 0. -1.
          3    1    5    5  503    0 -0.85644824636E+02  0.17170330690E+03 -0.18059448573E+03  0.26349844376E+03  0.00000000000E+00 0. -1.
         -4    1    5    5    0  503 -0.84278168132E+02  0.31156380591E+03 -0.20948750096E+03  0.38478543090E+03  0.00000000000E+00 0.  1.
         -3    1    6    6    0  502 -0.31975783758E+02 -0.19586596424E+02  0.29576719830E+01  0.37614270297E+02  0.00000000000E+00 0.  1.
<mgrwt>
<rscale>  0 0.13142459E+04</rscale>
<asrwt>0</asrwt>
<pdfrwt beam="1">  1        2 0.14752112E+00 0.13142459E+04</pdfrwt>
<pdfrwt beam="2">  1       -2 0.69280720E-01 0.13142459E+04</pdfrwt>
<totfact> 0.49885578E+01</totfact>
</mgrwt>
</event>
<event>
12    1  0.1960998E-007  0.2985329E+04  0.7818608E-02  0.8247933E-01
         -2   -1    0    0    0  501 -0.00000000000E+00  0.00000000000E+00  0.12077603574E+04  0.12077603574E+04  0.00000000000E+00 0.  1.
          2   -1    0    0  501    0  0.00000000000E+00 -0.00000000000E+00 -0.18447760742E+04  0.18447760742E+04  0.00000000000E+00 0. -1.
         23    2    1    2    0    0 -0.69077065663E+03  0.10847445541E+04  0.15139024731E+03  0.12981745366E+04  0.92213192486E+02 0.  0.
        254    2    1    2    0    0  0.69077065663E+03 -0.10847445541E+04 -0.78840596420E+03  0.17543618950E+04  0.89574932116E+03 0.  0.
        -24    2    4    4    0    0  0.56258999732E+03 -0.38614286660E+03 -0.78034373713E+03  0.10398038971E+04  0.81498330544E+02 0.  0.
         24    2    4    4    0    0  0.12818065931E+03 -0.69860168752E+03 -0.80622270696E+01  0.71455799784E+03  0.77804457106E+02 0.  0.
         13    1    3    3    0    0 -0.20706887703E+03  0.34177464709E+03  0.51414145508E+01  0.39964216916E+03  0.00000000000E+00 0. -1.
        -13    1    3    3    0    0 -0.48370177959E+03  0.74296990703E+03  0.14624883276E+03  0.89853236748E+03  0.00000000000E+00 0.  1.
          2    1    6    6  502    0  0.16704043270E+01 -0.10434645986E+03 -0.22739124450E+02  0.10680843467E+03  0.00000000000E+00 0. -1.
          3    1    5    5  503    0  0.29785134159E+03 -0.17753342086E+03 -0.34393281372E+03  0.48838849041E+03  0.00000000000E+00 0. -1.
         -4    1    5    5    0  503  0.26473865573E+03 -0.20860944575E+03 -0.43641092341E+03  0.55141540672E+03  0.00000000000E+00 0.  1.
         -1    1    6    6    0  502  0.12651025498E+03 -0.59425522765E+03  0.14676897381E+02  0.60774956316E+03  0.00000000000E+00 0.  1.
<mgrwt>
<rscale>  0 0.29853291E+04</rscale>
<asrwt>0</asrwt>
<pdfrwt beam="1">  1        2 0.28381170E+00 0.29853291E+04</pdfrwt>
<pdfrwt beam="2">  1       -2 0.18580929E+00 0.29853291E+04</pdfrwt>
<totfact> 0.11555649E+00</totfact>
</mgrwt>
</event>
<event>
12    1  0.1960998E-007  0.2433458E+04  0.7818608E-02  0.8427083E-01
         -2   -1    0    0    0  501 -0.00000000000E+00  0.00000000000E+00  0.20642756382E+04  0.20642756382E+04  0.00000000000E+00 0.  1.
          2   -1    0    0  501    0  0.00000000000E+00 -0.00000000000E+00 -0.71716630675E+03  0.71716630675E+03  0.00000000000E+00 0. -1.
         23    2    1    2    0    0 -0.22634132555E+03 -0.99562939873E+03  0.31117828854E+03  0.10712517381E+04  0.90774796890E+02 0.  0.
        254    2    1    2    0    0  0.22634132555E+03  0.99562939873E+03  0.10359310429E+04  0.17101902069E+04  0.89949381475E+03 0.  0.
        -24    2    4    4    0    0  0.46846591071E+03  0.68410770623E+03  0.32748688904E+03  0.89534477019E+03  0.83252217966E+02 0.  0.
         24    2    4    4    0    0 -0.24212458516E+03  0.31152169250E+03  0.70844415383E+03  0.81484543666E+03  0.80061769389E+02 0.  0.
         13    1    3    3    0    0 -0.18353928747E+03 -0.62369268902E+03  0.21402295504E+03  0.68445968886E+03  0.00000000000E+00 0. -1.
        -13    1    3    3    0    0 -0.42802038077E+02 -0.37193670971E+03  0.97155333499E+02  0.38679204920E+03  0.00000000000E+00 0.  1.
          4    1    6    6  502    0 -0.21466774261E+03  0.22141295941E+03  0.54270483076E+03  0.62420707432E+03  0.00000000000E+00 0. -1.
          1    1    5    5  503    0  0.35133242493E+03  0.45542192802E+03  0.24815295697E+03  0.62643714400E+03  0.00000000000E+00 0. -1.
         -2    1    5    5    0  503  0.11713348578E+03  0.22868577822E+03  0.79333932065E+02  0.26890762619E+03  0.00000000000E+00 0.  1.
         -3    1    6    6    0  502 -0.27456842552E+02  0.90108733091E+02  0.16573932308E+03  0.19063836234E+03  0.00000000000E+00 0.  1.
<mgrwt>
<rscale>  0 0.24334576E+04</rscale>
<asrwt>0</asrwt>
<pdfrwt beam="1">  1        2 0.11033328E+00 0.24334576E+04</pdfrwt>
<pdfrwt beam="2">  1       -2 0.31758087E+00 0.24334576E+04</pdfrwt>
<totfact> 0.88326647E-01</totfact>
</mgrwt>
</event>
<event>
12    1  0.1960998E-007  0.4057288E+04  0.7818608E-02  0.7993089E-01
         -1   -1    0    0    0  501 -0.00000000000E+00  0.00000000000E+00  0.20484885207E+04  0.20484885207E+04  0.00000000000E+00 0.  1.
          1   -1    0    0  501    0  0.00000000000E+00 -0.00000000000E+00 -0.20089912598E+04  0.20089912598E+04  0.00000000000E+00 0. -1.
         23    2    1    2    0    0  0.75988254485E+02  0.14175953778E+04  0.13226652105E+04  0.19426241253E+04  0.94838616133E+02 0.  0.
        254    2    1    2    0    0 -0.75988254485E+02 -0.14175953778E+04 -0.12831679496E+04  0.21148556552E+04  0.90041300824E+03 0.  0.
        -24    2    4    4    0    0 -0.40891861143E+03 -0.60669097452E+03 -0.87662574201E+03  0.11450532267E+04  0.85940858459E+02 0.  0.
         24    2    4    4    0    0  0.33293035694E+03 -0.81090440332E+03 -0.40654220757E+03  0.96980242847E+03  0.82653553042E+02 0.  0.
         13    1    3    3    0    0  0.22160266026E+02  0.82248659425E+03  0.82235361173E+03  0.11632887594E+04  0.00000000000E+00 0.  1.
        -13    1    3    3    0    0  0.53827988459E+02  0.59510878359E+03  0.50031159877E+03  0.77933536588E+03  0.00000000000E+00 0. -1.
          2    1    6    6  502    0  0.46507643520E+02 -0.55329199600E+02 -0.28424961297E+02  0.77667622977E+02  0.00000000000E+00 0. -1.
          1    1    5    5  503    0 -0.18054925383E+03 -0.27573981793E+03 -0.32934885526E+03  0.46594114297E+03  0.00000000000E+00 0. -1.
         -2    1    5    5    0  503 -0.22836935759E+03 -0.33095115659E+03 -0.54727688675E+03  0.67911208376E+03  0.00000000000E+00 0.  1.
         -1    1    6    6    0  502  0.28642271342E+03 -0.75557520372E+03 -0.37811724627E+03  0.89213480549E+03  0.00000000000E+00 0.  1.
<mgrwt>
<rscale>  0 0.40572875E+04</rscale>
<asrwt>0</asrwt>
<pdfrwt beam="1">  1        1 0.30907558E+00 0.40572875E+04</pdfrwt>
<pdfrwt beam="2">  1       -1 0.31515208E+00 0.40572875E+04</pdfrwt>
<totfact> 0.60249165E-02</totfact>
</mgrwt>
</event>
<event>
12    1  0.1960998E-007  0.2690202E+04  0.7818608E-02  0.8338191E-01
          2   -1    0    0  501    0  0.00000000000E+00  0.00000000000E+00  0.43312630168E+04  0.43312630168E+04  0.00000000000E+00 0. -1.
         -2   -1    0    0    0  501 -0.00000000000E+00 -0.00000000000E+00 -0.41772954589E+03  0.41772954589E+03  0.00000000000E+00 0.  1.
         23    2    1    2    0    0  0.11548043079E+04 -0.19481076840E+02  0.22638127574E+04  0.25430717446E+04  0.91723474377E+02 0.  0.
        254    2    1    2    0    0 -0.11548043079E+04  0.19481076840E+02  0.16497207135E+04  0.22059208181E+04  0.90030868115E+03 0.  0.
        -24    2    4    4    0    0 -0.12260668544E+04  0.18560222975E+03  0.12723310628E+04  0.17784766427E+04  0.80403459343E+02 0.  0.
         24    2    4    4    0    0  0.71262546535E+02 -0.16612115291E+03  0.37738965075E+03  0.42744417539E+03  0.87240968618E+02 0.  0.
         13    1    3    3    0    0  0.50810605762E+03  0.13690383668E+02  0.90900641202E+03  0.10414662018E+04  0.00000000000E+00 0. -1.
        -13    1    3    3    0    0  0.64669825023E+03 -0.33171460508E+02  0.13548063454E+04  0.15016055428E+04  0.00000000000E+00 0.  1.
          2    1    6    6  502    0  0.39346209125E+00 -0.15274942924E+02  0.43174003957E+00  0.15286107851E+02  0.00000000000E+00 0. -1.
          3    1    5    5  503    0 -0.30813846578E+03  0.28460547265E+02  0.36095131272E+03  0.47544207533E+03  0.00000000000E+00 0. -1.
         -4    1    5    5    0  503 -0.91792838862E+03  0.15714168248E+03  0.91137975007E+03  0.13030345674E+04  0.00000000000E+00 0.  1.
         -1    1    6    6    0  502  0.70869084444E+02 -0.15084620998E+03  0.37695791071E+03  0.41215806754E+03  0.00000000000E+00 0.  1.
<mgrwt>
<rscale>  0 0.26902019E+04</rscale>
<asrwt>0</asrwt>
<pdfrwt beam="1">  1        2 0.66634812E+00 0.26902019E+04</pdfrwt>
<pdfrwt beam="2">  1       -2 0.64266087E-01 0.26902019E+04</pdfrwt>
<totfact> 0.34985548E-01</totfact>
</mgrwt>
</event>
<event>
12    1  0.1960998E-007  0.1366857E+04  0.7818608E-02  0.8978165E-01
          2   -1    0    0  501    0  0.00000000000E+00  0.00000000000E+00  0.15388606578E+04  0.15388606578E+04  0.00000000000E+00 0. -1.
         -2   -1    0    0    0  501 -0.00000000000E+00 -0.00000000000E+00 -0.30351982750E+03  0.30351982750E+03  0.00000000000E+00 0.  1.
         23    2    1    2    0    0 -0.20058705048E+03 -0.75180075819E+02  0.77513977188E+03  0.80950386263E+03  0.92561487841E+02 0.  0.
        254    2    1    2    0    0  0.20058705048E+03  0.75180075819E+02  0.46020105842E+03  0.10328766227E+04  0.89953426555E+03 0.  0.
        -24    2    4    4    0    0  0.52176805996E+03 -0.98435983333E+02  0.35812602523E+03  0.64542369948E+03  0.79912143578E+02 0.  0.
         24    2    4    4    0    0 -0.32118100948E+03  0.17361605915E+03  0.10207503319E+03  0.38745292321E+03  0.80004240222E+02 0.  0.
         11    1    3    3    0    0 -0.54632321800E+02 -0.39274069891E+02  0.12232065716E+03  0.13960475035E+03  0.00000000000E+00 0.  1.
        -11    1    3    3    0    0 -0.14595472868E+03 -0.35906005928E+02  0.65281911472E+03  0.66989911228E+03  0.00000000000E+00 0. -1.
          2    1    6    6  502    0 -0.18391123841E+03  0.63014914679E+02  0.78262329695E+02  0.20956911828E+03  0.00000000000E+00 0. -1.
          3    1    5    5  503    0  0.49800368777E+03 -0.75658929118E+02  0.34130267718E+03  0.60845662462E+03  0.00000000000E+00 0. -1.
         -4    1    5    5    0  503  0.23764372189E+02 -0.22777054215E+02  0.16823348054E+02  0.36967074864E+02  0.00000000000E+00 0.  1.
         -1    1    6    6    0  502 -0.13726977107E+03  0.11060114447E+03  0.23812703492E+02  0.17788380493E+03  0.00000000000E+00 0.  1.
<mgrwt>
<rscale>  0 0.13668573E+04</rscale>
<asrwt>0</asrwt>
<pdfrwt beam="1">  1        2 0.23674779E+00 0.13668573E+04</pdfrwt>
<pdfrwt beam="2">  1       -2 0.46695359E-01 0.13668573E+04</pdfrwt>
<totfact> 0.51179518E+01</totfact>
</mgrwt>
</event>
<event>
12    1  0.1960998E-007  0.3137742E+04  0.7818608E-02  0.8205456E-01
         -2   -1    0    0    0  501 -0.00000000000E+00  0.00000000000E+00  0.11677358283E+04  0.11677358283E+04  0.00000000000E+00 0.  1.
          2   -1    0    0  501    0  0.00000000000E+00 -0.00000000000E+00 -0.21078026777E+04  0.21078026777E+04  0.00000000000E+00 0. -1.
         23    2    1    2    0    0 -0.13555244598E+04 -0.48019283635E+03 -0.45156137099E+03  0.15100541599E+04  0.91236905322E+02 0.  0.
        254    2    1    2    0    0  0.13555244598E+04  0.48019283635E+03 -0.48850547843E+03  0.17654843461E+04  0.90014757276E+03 0.  0.
        -24    2    4    4    0    0  0.12156231354E+04  0.31781375030E+02 -0.31852957316E+03  0.12596608856E+04  0.80838077415E+02 0.  0.
         24    2    4    4    0    0  0.13990132441E+03  0.44841146132E+03 -0.16997590527E+03  0.50582346048E+03  0.79500601178E+02 0.  0.
         11    1    3    3    0    0 -0.59054577656E+03 -0.24713915038E+03 -0.17160130939E+03  0.66277377984E+03  0.00000000000E+00 0.  1.
        -11    1    3    3    0    0 -0.76497868321E+03 -0.23305368597E+03 -0.27996006160E+03  0.84728038004E+03  0.00000000000E+00 0. -1.
          4    1    6    6  502    0  0.31521477029E+02  0.35977169415E+02 -0.32284621841E+02  0.57708379293E+02  0.00000000000E+00 0. -1.
          3    1    5    5  503    0  0.98480712947E+03  0.87293359527E+01 -0.22976339110E+03  0.10112924896E+04  0.00000000000E+00 0. -1.
         -4    1    5    5    0  503  0.23081600589E+03  0.23052039078E+02 -0.88766182064E+02  0.24836839605E+03  0.00000000000E+00 0.  1.
         -3    1    6    6    0  502  0.10837984738E+03  0.41243429190E+03 -0.13769128343E+03  0.44811508119E+03  0.00000000000E+00 0.  1.
<mgrwt>
<rscale>  0 0.31377423E+04</rscale>
<asrwt>0</asrwt>
<pdfrwt beam="1">  1        2 0.32427733E+00 0.31377423E+04</pdfrwt>
<pdfrwt beam="2">  1       -2 0.17965167E+00 0.31377423E+04</pdfrwt>
<totfact> 0.89777761E-01</totfact>
</mgrwt>
</event>
<event>
12    1  0.1960998E-007  0.2074650E+04  0.7818608E-02  0.8572493E-01
          1   -1    0    0  501    0  0.00000000000E+00  0.00000000000E+00  0.25383237377E+04  0.25383237377E+04  0.00000000000E+00 0. -1.
         -1   -1    0    0    0  501 -0.00000000000E+00 -0.00000000000E+00 -0.42391897618E+03  0.42391897618E+03  0.00000000000E+00 0.  1.
         23    2    1    2    0    0 -0.14767601989E+03 -0.81416029962E+03  0.10457648992E+04  0.13367519013E+04  0.92823601821E+02 0.  0.
        254    2    1    2    0    0  0.14767601989E+03  0.81416029962E+03  0.10686398623E+04  0.16254908125E+04  0.90308583530E+03 0.  0.
        -24    2    4    4    0    0 -0.26773572770E+03  0.68847002324E+03  0.46001438661E+03  0.87365725080E+03  0.77397436718E+02 0.  0.
         24    2    4    4    0    0  0.41541174759E+03  0.12569027638E+03  0.60862547573E+03  0.75183356172E+03  0.80397569699E+02 0.  0.
         11    1    3    3    0    0 -0.10578387005E+03 -0.40735528412E+03  0.58521996531E+03  0.72084045562E+03  0.00000000000E+00 0. -1.
        -11    1    3    3    0    0 -0.41892149835E+02 -0.40680501550E+03  0.46054493385E+03  0.61591144570E+03  0.00000000000E+00 0.  1.
          2    1    6    6  502    0  0.41501194458E+03  0.12682772897E+03  0.61084903441E+03  0.74930416376E+03  0.00000000000E+00 0. -1.
          1    1    5    5  503    0 -0.15383422786E+03  0.48228654028E+03  0.29302973936E+03  0.58492025503E+03  0.00000000000E+00 0. -1.
         -2    1    5    5    0  503 -0.11390149984E+03  0.20618348295E+03  0.16698464725E+03  0.28873699577E+03  0.00000000000E+00 0.  1.
         -1    1    6    6    0  502  0.39980300837E+00 -0.11374525874E+01 -0.22235586853E+01  0.25293979642E+01  0.00000000000E+00 0.  1.
<mgrwt>
<rscale>  0 0.20746504E+04</rscale>
<asrwt>0</asrwt>
<pdfrwt beam="1">  1        1 0.39051134E+00 0.20746504E+04</pdfrwt>
<pdfrwt beam="2">  1       -1 0.65218306E-01 0.20746504E+04</pdfrwt>
<totfact> 0.28000472E+00</totfact>
</mgrwt>
</event>
<event>
12    1  0.1960998E-007  0.2964993E+04  0.7818608E-02  0.8253799E-01
         -2   -1    0    0    0  501 -0.00000000000E+00  0.00000000000E+00  0.84231867886E+03  0.84231867886E+03  0.00000000000E+00 0.  1.
          2   -1    0    0  501    0  0.00000000000E+00 -0.00000000000E+00 -0.26092204701E+04  0.26092204701E+04  0.00000000000E+00 0. -1.
         23    2    1    2    0    0 -0.89665444473E+03 -0.80717643670E+03 -0.14978348711E+04  0.19254159970E+04  0.90523296022E+02 0.  0.
        254    2    1    2    0    0  0.89665444473E+03  0.80717643670E+03 -0.26906692018E+03  0.15261231520E+04  0.89505970436E+03 0.  0.
        -24    2    4    4    0    0 -0.93052116474E+02  0.19106258345E+03 -0.27565924242E+03  0.35761353627E+03  0.82072018484E+02 0.  0.
         24    2    4    4    0    0  0.98970656120E+03  0.61611385325E+03  0.65923222366E+01  0.11685096157E+04  0.79094285016E+02 0.  0.
         11    1    3    3    0    0 -0.31626591234E+03 -0.25548832716E+03 -0.44673978886E+03  0.60404871623E+03  0.00000000000E+00 0.  1.
        -11    1    3    3    0    0 -0.58038853239E+03 -0.55168810954E+03 -0.10510950822E+04  0.13213672807E+04  0.00000000000E+00 0. -1.
          4    1    6    6  502    0  0.59348230344E+03  0.40082454435E+03  0.31865556561E+02  0.71686607783E+03  0.00000000000E+00 0. -1.
          1    1    5    5  503    0 -0.56777514349E+01 -0.43333294529E+01  0.16273714622E+01  0.73254995311E+01  0.00000000000E+00 0. -1.
         -2    1    5    5    0  503 -0.87374365039E+02  0.19539591290E+03 -0.27728661388E+03  0.35028803674E+03  0.00000000000E+00 0.  1.
         -3    1    6    6    0  502  0.39622425776E+03  0.21528930890E+03 -0.25273234324E+02  0.45164353791E+03  0.00000000000E+00 0.  1.
<mgrwt>
<rscale>  0 0.29649925E+04</rscale>
<asrwt>0</asrwt>
<pdfrwt beam="1">  1        2 0.40141853E+00 0.29649925E+04</pdfrwt>
<pdfrwt beam="2">  1       -2 0.12958749E+00 0.29649925E+04</pdfrwt>
<totfact> 0.11292784E+00</totfact>
</mgrwt>
</event>
<event>
12    1  0.1960998E-007  0.2665896E+04  0.7818608E-02  0.8346156E-01
          2   -1    0    0  501    0  0.00000000000E+00  0.00000000000E+00  0.33564806328E+04  0.33564806328E+04  0.00000000000E+00 0.  1.
         -2   -1    0    0    0  501 -0.00000000000E+00 -0.00000000000E+00 -0.52934911888E+03  0.52934911888E+03  0.00000000000E+00 0. -1.
         23    2    1    2    0    0  0.28048375381E+03  0.11122931554E+04  0.85656113718E+03  0.14345556354E+04  0.91573411578E+02 0.  0.
        254    2    1    2    0    0 -0.28048375381E+03 -0.11122931554E+04  0.19705703767E+04  0.24512741163E+04  0.89984997842E+03 0.  0.
        -24    2    4    4    0    0  0.14837942667E+03  0.41489229637E+02  0.73240321900E+02  0.18812284644E+03  0.79298487805E+02 0.  0.
         24    2    4    4    0    0 -0.42886318047E+03 -0.11537823850E+04  0.18973300548E+04  0.22631512698E+04  0.82794404838E+02 0.  0.
         11    1    3    3    0    0  0.20853819176E+03  0.89906691115E+03  0.72707627940E+03  0.11749252760E+04  0.00000000000E+00 0.  1.
        -11    1    3    3    0    0  0.71945562051E+02  0.21322624424E+03  0.12948485778E+03  0.25963035941E+03  0.00000000000E+00 0. -1.
          4    1    6    6  502    0 -0.33767156404E+03 -0.94886072067E+03  0.16022458343E+04  0.18924984718E+04  0.00000000000E+00 0. -1.
          3    1    5    5  503    0  0.99243545402E+02 -0.18558688620E+01  0.71937951600E+02  0.12258790492E+03  0.00000000000E+00 0. -1.
         -4    1    5    5    0  503  0.49135881266E+02  0.43345098499E+02  0.13023702997E+01  0.65534941521E+02  0.00000000000E+00 0.  1.
         -3    1    6    6    0  502 -0.91191616436E+02 -0.20492166436E+03  0.29508422059E+03  0.37065279801E+03  0.00000000000E+00 0.  1.
<mgrwt>
<rscale>  0 0.26658958E+04</rscale>
<asrwt>0</asrwt>
<pdfrwt beam="1">  1        2 0.51638162E+00 0.26658958E+04</pdfrwt>
<pdfrwt beam="2">  1       -2 0.81438328E-01 0.26658958E+04</pdfrwt>
<totfact> 0.11924282E+00</totfact>
</mgrwt>
</event>
<event>
12    1  0.1960998E-007  0.2104606E+04  0.7818608E-02  0.8559217E-01
          1   -1    0    0  501    0  0.00000000000E+00  0.00000000000E+00  0.53786344776E+03  0.53786344776E+03  0.00000000000E+00 0. -1.
         -1   -1    0    0    0  501 -0.00000000000E+00 -0.00000000000E+00 -0.20587787283E+04  0.20587787283E+04  0.00000000000E+00 0.  1.
         23    2    1    2    0    0  0.64739686517E+03 -0.49027044986E+03 -0.28161839510E+03  0.86385669610E+03  0.86322974408E+02 0.  0.
        254    2    1    2    0    0 -0.64739686517E+03  0.49027044986E+03 -0.12392968855E+04  0.17327854800E+04  0.89844361774E+03 0.  0.
        -24    2    4    4    0    0  0.17771565196E+02  0.20168784283E+03  0.74471089034E+02  0.23009374297E+03  0.80021078348E+02 0.  0.
         24    2    4    4    0    0 -0.66516843037E+03  0.28858260703E+03 -0.13137679745E+04  0.15026917370E+04  0.79794760451E+02 0.  0.
         13    1    3    3    0    0  0.55847142652E+03 -0.40273220888E+03 -0.26586437322E+03  0.73808362077E+03  0.00000000000E+00 0.  1.
        -13    1    3    3    0    0  0.88925438655E+02 -0.87538240973E+02 -0.15754021877E+02  0.12577307533E+03  0.00000000000E+00 0. -1.
          4    1    6    6  502    0 -0.31361535196E+03  0.10263987005E+03 -0.64808346216E+03  0.72725628621E+03  0.00000000000E+00 0. -1.
          1    1    5    5  503    0 -0.18839346212E+02  0.26513232627E+02 -0.73053722355E+01  0.33335280612E+02  0.00000000000E+00 0. -1.
         -2    1    5    5    0  503  0.36610911408E+02  0.17517461020E+03  0.81776461269E+02  0.19675846236E+03  0.00000000000E+00 0.  1.
         -3    1    6    6    0  502 -0.35155307841E+03  0.18594273698E+03 -0.66568451235E+03  0.77543545080E+03  0.00000000000E+00 0.  1.
<mgrwt>
<rscale>  0 0.21046062E+04</rscale>
<asrwt>0</asrwt>
<pdfrwt beam="1">  1        1 0.82748222E-01 0.21046062E+04</pdfrwt>
<pdfrwt beam="2">  1       -1 0.31673519E+00 0.21046062E+04</pdfrwt>
<totfact> 0.94671366E-01</totfact>
</mgrwt>
</event>
<event>
12    1  0.1960998E-007  0.2115241E+04  0.7818608E-02  0.8554559E-01
         -2   -1    0    0    0  501 -0.00000000000E+00  0.00000000000E+00  0.29401014022E+03  0.29401014022E+03  0.00000000000E+00 0.  1.
          2   -1    0    0  501    0  0.00000000000E+00 -0.00000000000E+00 -0.38044997391E+04  0.38044997391E+04  0.00000000000E+00 0. -1.
         23    2    1    2    0    0 -0.40624207740E+03 -0.74318114840E+03 -0.11215539990E+04  0.14081272209E+04  0.87109430706E+02 0.  0.
        254    2    1    2    0    0  0.40624207740E+03  0.74318114840E+03 -0.23889355999E+04  0.26903826584E+04  0.90210570516E+03 0.  0.
        -24    2    4    4    0    0  0.58357849093E+02  0.13888420134E+02  0.55413198217E+02  0.11469855682E+03  0.80539491148E+02 0.  0.
         24    2    4    4    0    0  0.34788422830E+03  0.72929272826E+03 -0.24443487981E+04  0.25756841016E+04  0.80101338382E+02 0.  0.
         13    1    3    3    0    0 -0.19432571572E+03 -0.42125140266E+03 -0.56311460910E+03  0.72959803386E+03  0.00000000000E+00 0.  1.
        -13    1    3    3    0    0 -0.21191636168E+03 -0.32192974574E+03 -0.55843938986E+03  0.67852918706E+03  0.00000000000E+00 0. -1.
          2    1    6    6  502    0  0.89257143385E+02  0.13392494598E+03 -0.55983157685E+03  0.58250675810E+03  0.00000000000E+00 0. -1.
          3    1    5    5  503    0  0.20382207615E+02  0.14148676063E+02 -0.18935911723E+02  0.31211987671E+02  0.00000000000E+00 0. -1.
         -4    1    5    5    0  503  0.37975641479E+02 -0.26025592937E+00  0.74349109939E+02  0.83486569145E+02  0.00000000000E+00 0.  1.
         -1    1    6    6    0  502  0.25862708492E+03  0.59536778229E+03 -0.18845172213E+04  0.19931773435E+04  0.00000000000E+00 0.  1.
<mgrwt>
<rscale>  0 0.21152414E+04</rscale>
<asrwt>0</asrwt>
<pdfrwt beam="1">  1        2 0.58530762E+00 0.21152414E+04</pdfrwt>
<pdfrwt beam="2">  1       -2 0.45232332E-01 0.21152414E+04</pdfrwt>
<totfact> 0.20927868E+00</totfact>
</mgrwt>
</event>
<event>
12    1  0.1960998E-007  0.1737194E+04  0.7818608E-02  0.8740431E-01
          2   -1    0    0  501    0  0.00000000000E+00  0.00000000000E+00  0.11246261583E+04  0.11246261583E+04  0.00000000000E+00 0. -1.
         -2   -1    0    0    0  501 -0.00000000000E+00 -0.00000000000E+00 -0.67085437575E+03  0.67085437575E+03  0.00000000000E+00 0.  1.
         23    2    1    2    0    0  0.89149538574E+02  0.52778222766E+02 -0.47923386084E+03  0.49812084780E+03  0.87898262871E+02 0.  0.
        254    2    1    2    0    0 -0.89149538574E+02 -0.52778222766E+02  0.93300564335E+03  0.12973596862E+04  0.89549396639E+03 0.  0.
        -24    2    4    4    0    0 -0.32431262164E+03 -0.13949416506E+03  0.96804134430E+03  0.10327501751E+04  0.69509576289E+02 0.  0.
         24    2    4    4    0    0  0.23516308306E+03  0.86715942297E+02 -0.35035700953E+02  0.26460951113E+03  0.77261651268E+02 0.  0.
         11    1    3    3    0    0  0.83118588663E+02  0.32877861553E+02 -0.46351274241E+03  0.47205266226E+03  0.00000000000E+00 0.  1.
        -11    1    3    3    0    0  0.60309499102E+01  0.19900361213E+02 -0.15721118422E+02  0.26068185546E+02  0.00000000000E+00 0. -1.
          2    1    6    6  502    0  0.30647074857E+02 -0.14704828136E+02 -0.50825571005E+01  0.34370154996E+02  0.00000000000E+00 0. -1.
          1    1    5    5  503    0 -0.26405758909E+01 -0.10859314434E+02  0.15075893938E+02  0.18766457552E+02  0.00000000000E+00 0. -1.
         -2    1    5    5    0  503 -0.32167204575E+03 -0.12863485063E+03  0.95296545036E+03  0.10139837175E+04  0.00000000000E+00 0.  1.
         -1    1    6    6    0  502  0.20451600821E+03  0.10142077043E+03 -0.29953143853E+02  0.23023935614E+03  0.00000000000E+00 0.  1.
<mgrwt>
<rscale>  0 0.17371936E+04</rscale>
<asrwt>0</asrwt>
<pdfrwt beam="1">  1        2 0.17301941E+00 0.17371936E+04</pdfrwt>
<pdfrwt beam="2">  1       -2 0.10320837E+00 0.17371936E+04</pdfrwt>
<totfact> 0.15294427E+01</totfact>
</mgrwt>
</event>
<event>
12    1  0.1960998E-007  0.1236245E+04  0.7818608E-02  0.9081710E-01
         -1   -1    0    0    0  501 -0.00000000000E+00  0.00000000000E+00  0.11088213487E+03  0.11088213487E+03  0.00000000000E+00 0.  1.
          1   -1    0    0  501    0  0.00000000000E+00 -0.00000000000E+00 -0.34457775124E+04  0.34457775124E+04  0.00000000000E+00 0. -1.
         23    2    1    2    0    0  0.19398458947E+03 -0.39561497665E+02 -0.22371541299E+03  0.31243268834E+03  0.91490249115E+02 0.  0.
        254    2    1    2    0    0 -0.19398458947E+03  0.39561497665E+02 -0.31111799646E+04  0.32442269589E+04  0.89798254783E+03 0.  0.
        -24    2    4    4    0    0  0.17004050552E+03  0.24398428549E+03 -0.23702695757E+04  0.23901228775E+04  0.77893537285E+02 0.  0.
         24    2    4    4    0    0 -0.36402509500E+03 -0.20442278783E+03 -0.74091038884E+03  0.85410408139E+03  0.79010325799E+02 0.  0.
         11    1    3    3    0    0  0.17529521889E+03 -0.10972161370E+01 -0.17768591566E+03  0.24960349011E+03  0.00000000000E+00 0.  1.
        -11    1    3    3    0    0  0.18689370583E+02 -0.38464281528E+02 -0.46029497325E+02  0.62829198230E+02  0.00000000000E+00 0. -1.
          2    1    6    6  502    0 -0.29406688703E+03 -0.16243990474E+03 -0.52494470801E+03  0.62324072649E+03  0.00000000000E+00 0. -1.
          3    1    5    5  503    0  0.95100786951E+02  0.14248665611E+03 -0.16518432265E+04  0.16607024573E+04  0.00000000000E+00 0. -1.
         -4    1    5    5    0  503  0.74939718572E+02  0.10149762938E+03 -0.71842634921E+03  0.72942042022E+03  0.00000000000E+00 0.  1.
         -1    1    6    6    0  502 -0.69958207968E+02 -0.41982883086E+02 -0.21596568083E+03  0.23086335489E+03  0.00000000000E+00 0.  1.
<mgrwt>
<rscale>  0 0.12362446E+04</rscale>
<asrwt>0</asrwt>
<pdfrwt beam="1">  1        1 0.53011960E+00 0.12362446E+04</pdfrwt>
<pdfrwt beam="2">  1       -1 0.17058791E-01 0.12362446E+04</pdfrwt>
<totfact> 0.73938316E+00</totfact>
</mgrwt>
</event>
<event>
12    1  0.2493153E-007  0.2836968E+04  0.7818608E-02  0.8291882E-01
         -1   -1    0    0    0  501 -0.00000000000E+00  0.00000000000E+00  0.20492025913E+04  0.20492025913E+04  0.00000000000E+00 0.  1.
          1   -1    0    0  501    0  0.00000000000E+00 -0.00000000000E+00 -0.98189229650E+03  0.98189229650E+03  0.00000000000E+00 0. -1.
         23    2    1    2    0    0 -0.11154865370E+04 -0.57232595053E+03  0.22890614274E+03  0.12779647186E+04  0.94491227395E+02 0.  0.
        254    2    1    2    0    0  0.11154865370E+04  0.57232595053E+03  0.83840415207E+03  0.17531301692E+04  0.89368711535E+03 0.  0.
        -24    2    4    4    0    0 -0.78126069032E+02  0.89528018116E+02  0.34342366614E+03  0.37135861122E+03  0.76475191896E+02 0.  0.
         24    2    4    4    0    0  0.11936126060E+04  0.48279793241E+03  0.49498048594E+03  0.13817715580E+04  0.80511242950E+02 0.  0.
         11    1    3    3    0    0 -0.49720195544E+03 -0.21365917627E+03  0.12794688054E+03  0.55608491468E+03  0.00000000000E+00 0. -1.
        -11    1    3    3    0    0 -0.61828458152E+03 -0.35866677426E+03  0.10095926220E+03  0.72187980393E+03  0.00000000000E+00 0.  1.
          4    1    6    6  502    0  0.11789431130E+04  0.46581712082E+03  0.48644280621E+03  0.13577625188E+04  0.00000000000E+00 0. -1.
          1    1    5    5  503    0 -0.46416504911E+02  0.92739823670E+02  0.30052687794E+03  0.31791755407E+03  0.00000000000E+00 0. -1.
         -2    1    5    5    0  503 -0.31709564121E+02 -0.32118055544E+01  0.42896788193E+02  0.53441057146E+02  0.00000000000E+00 0.  1.
         -1    1    6    6    0  502  0.14669492991E+02  0.16980811593E+02  0.85376797220E+01  0.24009039173E+02  0.00000000000E+00 0.  1.
<mgrwt>
<rscale>  0 0.28369676E+04</rscale>
<asrwt>0</asrwt>
<pdfrwt beam="1">  1        1 0.15106035E+00 0.28369676E+04</pdfrwt>
<pdfrwt beam="2">  1       -1 0.31526194E+00 0.28369676E+04</pdfrwt>
<totfact> 0.35456092E-01</totfact>
</mgrwt>
</event>
<event>
12    1  0.1960998E-007  0.3433480E+04  0.7818608E-02  0.8129738E-01
          2   -1    0    0  501    0  0.00000000000E+00  0.00000000000E+00  0.21013689798E+04  0.21013689798E+04  0.00000000000E+00 0. -1.
         -2   -1    0    0    0  501 -0.00000000000E+00 -0.00000000000E+00 -0.14025120902E+04  0.14025120902E+04  0.00000000000E+00 0.  1.
         23    2    1    2    0    0 -0.83736329907E+03 -0.71903933638E+03 -0.85612478528E+03  0.13999050220E+04  0.92679882631E+02 0.  0.
        254    2    1    2    0    0  0.83736329907E+03  0.71903933638E+03  0.15549816749E+04  0.21039760480E+04  0.88913010267E+03 0.  0.
        -24    2    4    4    0    0  0.17468452282E+03  0.72354673893E+03  0.80279630699E+03  0.10976421724E+04  0.79384268913E+02 0.  0.
         24    2    4    4    0    0  0.66267877624E+03 -0.45074025535E+01  0.75218536795E+03  0.10063338757E+04  0.88099741111E+02 0.  0.
         13    1    3    3    0    0 -0.15578963716E+03 -0.14276098190E+03 -0.12030429634E+03  0.24315475056E+03  0.00000000000E+00 0.  1.
        -13    1    3    3    0    0 -0.68157366191E+03 -0.57627835447E+03 -0.73582048893E+03  0.11567502714E+04  0.00000000000E+00 0. -1.
          4    1    6    6  502    0  0.80788942589E+02  0.28503743511E+02  0.93272340988E+02  0.12664535614E+03  0.00000000000E+00 0. -1.
          1    1    5    5  503    0  0.11473501001E+03  0.45305387602E+03  0.55864758695E+03  0.72836053126E+03  0.00000000000E+00 0. -1.
         -2    1    5    5    0  503  0.59949512815E+02  0.27049286291E+03  0.24414872005E+03  0.36928164112E+03  0.00000000000E+00 0.  1.
         -3    1    6    6    0  502  0.58188983365E+03 -0.33011146064E+02  0.65891302696E+03  0.87968851952E+03  0.00000000000E+00 0.  1.
<mgrwt>
<rscale>  0 0.34334795E+04</rscale>
<asrwt>0</asrwt>
<pdfrwt beam="1">  1        2 0.32328753E+00 0.34334795E+04</pdfrwt>
<pdfrwt beam="2">  1       -2 0.21577109E+00 0.34334795E+04</pdfrwt>
<totfact> 0.50958777E-01</totfact>
</mgrwt>
</event>
<event>
12    1  0.1960998E-007  0.2478467E+04  0.7818608E-02  0.8410697E-01
         -1   -1    0    0    0  501 -0.00000000000E+00  0.00000000000E+00  0.88373472471E+03  0.88373472471E+03  0.00000000000E+00 0.  1.
          1   -1    0    0  501    0  0.00000000000E+00 -0.00000000000E+00 -0.17377379527E+04  0.17377379527E+04  0.00000000000E+00 0. -1.
         23    2    1    2    0    0 -0.21747786448E+03 -0.82379793760E+03 -0.10612580820E+04  0.13644996971E+04  0.98239723012E+02 0.  0.
        254    2    1    2    0    0  0.21747786448E+03  0.82379793760E+03  0.20725485403E+03  0.12569729803E+04  0.90060359493E+03 0.  0.
        -24    2    4    4    0    0  0.38914985946E+03  0.16729559938E+02 -0.16841762689E+02  0.39811100510E+03  0.80568207850E+02 0.  0.
         24    2    4    4    0    0 -0.17167199499E+03  0.80706837767E+03  0.22409661672E+03  0.85886197522E+03  0.81203194274E+02 0.  0.
         13    1    3    3    0    0 -0.11199081603E+03 -0.30040349779E+03 -0.34257574404E+03  0.46919329147E+03  0.00000000000E+00 0.  1.
        -13    1    3    3    0    0 -0.10548704844E+03 -0.52339443982E+03 -0.71868233798E+03  0.89530640562E+03  0.00000000000E+00 0. -1.
          2    1    6    6  502    0 -0.15941732853E+03  0.67532126033E+03  0.16121538628E+03  0.71236443627E+03  0.00000000000E+00 0. -1.
          1    1    5    5  503    0  0.24562897887E+03  0.19824227856E+02  0.27270685007E+02  0.24793201797E+03  0.00000000000E+00 0. -1.
         -2    1    5    5    0  503  0.14352088059E+03 -0.30946679181E+01 -0.44112447696E+02  0.15017898713E+03  0.00000000000E+00 0.  1.
         -1    1    6    6    0  502 -0.12254666458E+02  0.13174711733E+03  0.62881230440E+02  0.14649753895E+03  0.00000000000E+00 0.  1.
<mgrwt>
<rscale>  0 0.24784668E+04</rscale>
<asrwt>0</asrwt>
<pdfrwt beam="1">  1        1 0.26734430E+00 0.24784668E+04</pdfrwt>
<pdfrwt beam="2">  1       -1 0.13595919E+00 0.24784668E+04</pdfrwt>
<totfact> 0.18082855E+00</totfact>
</mgrwt>
</event>
<event>
12    1  0.1960998E-007  0.1990339E+04  0.7818608E-02  0.8611151E-01
          2   -1    0    0  501    0  0.00000000000E+00  0.00000000000E+00  0.11376385058E+04  0.11376385058E+04  0.00000000000E+00 0. -1.
         -2   -1    0    0    0  501 -0.00000000000E+00 -0.00000000000E+00 -0.87054204590E+03  0.87054204590E+03  0.00000000000E+00 0.  1.
         23    2    1    2    0    0 -0.78866435938E+03 -0.48843107514E+00  0.13100286721E+03  0.80597298708E+03  0.10217139698E+03 0.  0.
        254    2    1    2    0    0  0.78866435938E+03  0.48843107514E+00  0.13609359270E+03  0.12022075646E+04  0.89710080378E+03 0.  0.
        -24    2    4    4    0    0 -0.17030231298E+03  0.98664194428E+01  0.14961354431E+03  0.23976972591E+03  0.77492482117E+02 0.  0.
         24    2    4    4    0    0  0.95896667236E+03 -0.93779883676E+01 -0.13519951611E+02  0.96243783872E+03  0.79992367988E+02 0.  0.
         11    1    3    3    0    0 -0.26471460530E+03 -0.19502619644E+02 -0.52302692430E+00  0.26543256768E+03  0.00000000000E+00 0.  1.
        -11    1    3    3    0    0 -0.52394975409E+03  0.19014188569E+02  0.13152589413E+03  0.54054041940E+03  0.00000000000E+00 0. -1.
          4    1    6    6  502    0  0.79225926496E+03 -0.15680279980E+02 -0.40476429760E+02  0.79344751273E+03  0.00000000000E+00 0. -1.
          1    1    5    5  503    0 -0.47648921010E+02  0.11338797900E+02  0.92055210565E+02  0.10427439668E+03  0.00000000000E+00 0. -1.
         -2    1    5    5    0  503 -0.12265339197E+03 -0.14723784571E+01  0.57558333743E+02  0.13549532923E+03  0.00000000000E+00 0.  1.
         -3    1    6    6    0  502  0.16670740740E+03  0.63022916122E+01  0.26956478149E+02  0.16899032598E+03  0.00000000000E+00 0.  1.
<mgrwt>
<rscale>  0 0.19903388E+04</rscale>
<asrwt>0</asrwt>
<pdfrwt beam="1">  1        2 0.17502131E+00 0.19903388E+04</pdfrwt>
<pdfrwt beam="2">  1       -2 0.13392955E+00 0.19903388E+04</pdfrwt>
<totfact> 0.77337916E+00</totfact>
</mgrwt>
</event>
<event>
12    1  0.1960998E-007  0.1926444E+04  0.7818608E-02  0.8641804E-01
          2   -1    0    0  501    0  0.00000000000E+00  0.00000000000E+00  0.15940424548E+04  0.15940424548E+04  0.00000000000E+00 0. -1.
         -2   -1    0    0    0  501 -0.00000000000E+00 -0.00000000000E+00 -0.58204000687E+03  0.58204000687E+03  0.00000000000E+00 0.  1.
         23    2    1    2    0    0 -0.49983215022E+02 -0.43412763357E+03 -0.30033583677E+03  0.53791184584E+03  0.90456702549E+02 0.  0.
        254    2    1    2    0    0  0.49983215022E+02  0.43412763357E+03  0.13123382847E+04  0.16381706158E+04  0.87772778756E+03 0.  0.
        -24    2    4    4    0    0  0.27368375215E+03 -0.16870058486E+03  0.47340462638E+03  0.57813254978E+03  0.82235158626E+02 0.  0.
         24    2    4    4    0    0 -0.22370053713E+03  0.60282821843E+03  0.83893365833E+03  0.10600380661E+04  0.80169989119E+02 0.  0.
         11    1    3    3    0    0 -0.44432398177E+02 -0.23282250251E+03 -0.11187535199E+03  0.26210045796E+03  0.00000000000E+00 0. -1.
        -11    1    3    3    0    0 -0.55508168453E+01 -0.20130513106E+03 -0.18846048478E+03  0.27581138788E+03  0.00000000000E+00 0.  1.
          2    1    6    6  502    0 -0.11111635040E+03  0.20947118453E+03  0.27134998253E+03  0.36035514912E+03  0.00000000000E+00 0. -1.
          3    1    5    5  503    0  0.12194319785E+03 -0.11250694194E+03  0.19416395483E+03  0.25539693977E+03  0.00000000000E+00 0. -1.
         -4    1    5    5    0  503  0.15174055430E+03 -0.56193642922E+02  0.27924067155E+03  0.32273561001E+03  0.00000000000E+00 0.  1.
         -1    1    6    6    0  502 -0.11258418673E+03  0.39335703390E+03  0.56758367580E+03  0.69968291693E+03  0.00000000000E+00 0.  1.
<mgrwt>
<rscale>  0 0.19264439E+04</rscale>
<asrwt>0</asrwt>
<pdfrwt beam="1">  1        2 0.24523730E+00 0.19264439E+04</pdfrwt>
<pdfrwt beam="2">  1       -2 0.89544617E-01 0.19264439E+04</pdfrwt>
<totfact> 0.11230360E+01</totfact>
</mgrwt>
</event>
<event>
12    1  0.2097673E-007  0.4091309E+04  0.7818608E-02  0.7986376E-01
          2   -1    0    0  501    0  0.00000000000E+00  0.00000000000E+00  0.20122891568E+04  0.20122891568E+04  0.00000000000E+00 0. -1.
         -2   -1    0    0    0  501 -0.00000000000E+00 -0.00000000000E+00 -0.20795725976E+04  0.20795725976E+04  0.00000000000E+00 0.  1.
         23    2    1    2    0    0 -0.13802708672E+04 -0.12573415334E+04  0.51518287404E+03  0.19390135391E+04  0.91130195546E+02 0.  0.
        254    2    1    2    0    0  0.13802708672E+04  0.12573415334E+04 -0.58246631481E+03  0.21528482153E+04  0.89968496261E+03 0.  0.
        -24    2    4    4    0    0  0.63230524999E+03  0.45300877419E+03  0.19410031699E+03  0.80535526717E+03  0.76780822128E+02 0.  0.
         24    2    4    4    0    0  0.74796561722E+03  0.80433275917E+03 -0.77656663180E+03  0.13474929482E+04  0.79232314637E+02 0.  0.
         13    1    3    3    0    0 -0.71287936887E+03 -0.70555489063E+03  0.25731755614E+03  0.10354791272E+04  0.00000000000E+00 0. -1.
        -13    1    3    3    0    0 -0.66739149834E+03 -0.55178664273E+03  0.25786531790E+03  0.90353441181E+03  0.00000000000E+00 0.  1.
          4    1    6    6  502    0  0.37466441933E+03  0.42153666144E+03 -0.44448964398E+03  0.71807912354E+03  0.00000000000E+00 0. -1.
          3    1    5    5  503    0  0.31632677100E+03  0.22749489164E+03  0.57677968054E+02  0.39388234255E+03  0.00000000000E+00 0. -1.
         -4    1    5    5    0  503  0.31597847899E+03  0.22551388254E+03  0.13642234893E+03  0.41147292462E+03  0.00000000000E+00 0.  1.
         -3    1    6    6    0  502  0.37330119788E+03  0.38279609773E+03 -0.33207698782E+03  0.62941382462E+03  0.00000000000E+00 0.  1.
<mgrwt>
<rscale>  0 0.40913085E+04</rscale>
<asrwt>0</asrwt>
<pdfrwt beam="1">  1        2 0.30958295E+00 0.40913085E+04</pdfrwt>
<pdfrwt beam="2">  1       -2 0.31993425E+00 0.40913085E+04</pdfrwt>
<totfact> 0.12342946E-01</totfact>
</mgrwt>
</event>
<event>
12    1  0.1960998E-007  0.1948009E+04  0.7818608E-02  0.8631322E-01
          1   -1    0    0  501    0  0.00000000000E+00  0.00000000000E+00  0.42603124744E+03  0.42603124744E+03  0.00000000000E+00 0. -1.
         -1   -1    0    0    0  501 -0.00000000000E+00 -0.00000000000E+00 -0.22267953311E+04  0.22267953311E+04  0.00000000000E+00 0.  1.
         23    2    1    2    0    0  0.34279467038E+03  0.48369281084E+03 -0.56243486610E+02  0.60315340432E+03  0.95727624311E+02 0.  0.
        254    2    1    2    0    0 -0.34279467038E+03 -0.48369281084E+03 -0.17445205970E+04  0.20496731742E+04  0.89796496942E+03 0.  0.
        -24    2    4    4    0    0  0.14917015259E+03  0.15941212085E+02 -0.17609524594E+01  0.16941875232E+03  0.78700419426E+02 0.  0.
         24    2    4    4    0    0 -0.49196482297E+03 -0.49963402292E+03 -0.17427596445E+04  0.18802544219E+04  0.80510672413E+02 0.  0.
         11    1    3    3    0    0  0.33185682977E+03  0.47779872596E+03 -0.68429487308E+02  0.58575009409E+03  0.00000000000E+00 0.  1.
        -11    1    3    3    0    0  0.10937840610E+02  0.58940848742E+01  0.12186000698E+02  0.17403310224E+02  0.00000000000E+00 0. -1.
          2    1    6    6  502    0 -0.35185935722E+03 -0.30297294197E+03 -0.11432307610E+04  0.12339263283E+04  0.00000000000E+00 0. -1.
          3    1    5    5  503    0  0.13453687576E+03 -0.76457688943E+01 -0.19964228870E+02  0.13622481109E+03  0.00000000000E+00 0. -1.
         -4    1    5    5    0  503  0.14633276829E+02  0.23586980979E+02  0.18203276410E+02  0.33193941232E+02  0.00000000000E+00 0.  1.
         -1    1    6    6    0  502 -0.14010546576E+03 -0.19666108095E+03 -0.59952888354E+03  0.64632809353E+03  0.00000000000E+00 0.  1.
<mgrwt>
<rscale>  0 0.19480086E+04</rscale>
<asrwt>0</asrwt>
<pdfrwt beam="1">  1        1 0.65543269E-01 0.19480086E+04</pdfrwt>
<pdfrwt beam="2">  1       -1 0.34258390E+00 0.19480086E+04</pdfrwt>
<totfact> 0.89522673E-01</totfact>
</mgrwt>
</event>
<event>
12    1  0.1960998E-007  0.1436557E+04  0.7818608E-02  0.8927774E-01
         -1   -1    0    0    0  501 -0.00000000000E+00  0.00000000000E+00  0.41939160662E+03  0.41939160662E+03  0.00000000000E+00 0.  1.
          1   -1    0    0  501    0  0.00000000000E+00 -0.00000000000E+00 -0.12301722517E+04  0.12301722517E+04  0.00000000000E+00 0. -1.
         23    2    1    2    0    0 -0.30648724477E+02 -0.15325100553E+03  0.20992928838E+03  0.27790921793E+03  0.93477335648E+02 0.  0.
        254    2    1    2    0    0  0.30648724477E+02  0.15325100553E+03 -0.10207099335E+04  0.13716546404E+04  0.90286348317E+03 0.  0.
        -24    2    4    4    0    0 -0.21302532858E+03 -0.17161949911E+02  0.69182357093E+02  0.23916652386E+03  0.82098139219E+02 0.  0.
         24    2    4    4    0    0  0.24367405306E+03  0.17041295544E+03 -0.10898922906E+04  0.11324881165E+04  0.79034862825E+02 0.  0.
         13    1    3    3    0    0  0.85921853816E+01 -0.45928379616E+02  0.13085264424E+03  0.13894479554E+03  0.00000000000E+00 0.  1.
        -13    1    3    3    0    0 -0.39240909859E+02 -0.10732262591E+03  0.79076644140E+02  0.13896442238E+03  0.00000000000E+00 0. -1.
          4    1    6    6  502    0  0.31739532553E+02  0.54359209636E+01 -0.21198447750E+03  0.21441633768E+03  0.00000000000E+00 0. -1.
          1    1    5    5  503    0 -0.79037106536E+02  0.23052155482E+02  0.53983499331E+02  0.98450415347E+02  0.00000000000E+00 0. -1.
         -4    1    5    5    0  503 -0.13398822204E+03 -0.40214105393E+02  0.15198857762E+02  0.14071610852E+03  0.00000000000E+00 0.  1.
         -3    1    6    6    0  502  0.21193452050E+03  0.16497703448E+03 -0.87790781308E+03  0.91807177887E+03  0.00000000000E+00 0.  1.
<mgrwt>
<rscale>  0 0.14365569E+04</rscale>
<asrwt>0</asrwt>
<pdfrwt beam="1">  1        1 0.18925727E+00 0.14365569E+04</pdfrwt>
<pdfrwt beam="2">  1       -1 0.64521785E-01 0.14365569E+04</pdfrwt>
<totfact> 0.24054826E+01</totfact>
</mgrwt>
</event>
<event>
12    1  0.1960998E-007  0.1402191E+04  0.7818608E-02  0.8952234E-01
         -2   -1    0    0    0  501 -0.00000000000E+00  0.00000000000E+00  0.15877939528E+03  0.15877939528E+03  0.00000000000E+00 0.  1.
          2   -1    0    0  501    0  0.00000000000E+00 -0.00000000000E+00 -0.30957088747E+04  0.30957088747E+04  0.00000000000E+00 0. -1.
         23    2    1    2    0    0 -0.17648712116E+03 -0.36450905180E+03 -0.91045176808E+03  0.10007041004E+04  0.92041957012E+02 0.  0.
        254    2    1    2    0    0  0.17648712116E+03  0.36450905180E+03 -0.20264777114E+04  0.22537841696E+04  0.89939791839E+03 0.  0.
        -24    2    4    4    0    0  0.27740922741E+03  0.62818896410E+03 -0.14691267574E+04  0.16238067361E+04  0.82689980471E+02 0.  0.
         24    2    4    4    0    0 -0.10092210625E+03 -0.26367991230E+03 -0.55735095396E+03  0.62997743346E+03  0.80741024941E+02 0.  0.
         11    1    3    3    0    0 -0.14524448353E+03 -0.35344425794E+03 -0.83364076915E+03  0.91704729184E+03  0.00000000000E+00 0.  1.
        -11    1    3    3    0    0 -0.31242637629E+02 -0.11064793858E+02 -0.76810998929E+02  0.83656808603E+02  0.00000000000E+00 0. -1.
          4    1    6    6  502    0 -0.74603752540E+02 -0.16732805124E+03 -0.27461780414E+03  0.33012018262E+03  0.00000000000E+00 0. -1.
          1    1    5    5  503    0  0.14114333863E+03  0.22269164935E+03 -0.58115368635E+03  0.63816347427E+03  0.00000000000E+00 0. -1.
         -2    1    5    5    0  503  0.13626588878E+03  0.40549731475E+03 -0.88797307106E+03  0.98564326185E+03  0.00000000000E+00 0.  1.
         -3    1    6    6    0  502 -0.26318353712E+02 -0.96351861059E+02 -0.28273314983E+03  0.29985725084E+03  0.00000000000E+00 0.  1.
<mgrwt>
<rscale>  0 0.14021908E+04</rscale>
<asrwt>0</asrwt>
<pdfrwt beam="1">  1        2 0.47626286E+00 0.14021908E+04</pdfrwt>
<pdfrwt beam="2">  1       -2 0.24427602E-01 0.14021908E+04</pdfrwt>
<totfact> 0.22280418E+01</totfact>
</mgrwt>
</event>
<event>
12    1  0.1960998E-007  0.2314166E+04  0.7818608E-02  0.8472356E-01
          1   -1    0    0  501    0  0.00000000000E+00  0.00000000000E+00  0.23617999898E+04  0.23617999898E+04  0.00000000000E+00 0. -1.
         -1   -1    0    0    0  501 -0.00000000000E+00 -0.00000000000E+00 -0.56687322882E+03  0.56687322882E+03  0.00000000000E+00 0.  1.
         23    2    1    2    0    0 -0.62556028615E+03 -0.66225922676E+03  0.12118548967E+04  0.15187655390E+04  0.90241436587E+02 0.  0.
        254    2    1    2    0    0  0.62556028615E+03  0.66225922676E+03  0.58307186429E+03  0.14099076796E+04  0.90440804453E+03 0.  0.
        -24    2    4    4    0    0  0.52786225808E+03  0.67482471096E+03  0.78923332503E+03  0.11675181030E+04  0.78627764739E+02 0.  0.
         24    2    4    4    0    0  0.97698028061E+02 -0.12565484202E+02 -0.20616146074E+03  0.24238957662E+03  0.80915776449E+02 0.  0.
         11    1    3    3    0    0 -0.19959470721E+02 -0.50000195175E+01  0.17275551549E+02  0.26866807550E+02  0.00000000000E+00 0.  1.
        -11    1    3    3    0    0 -0.60560081542E+03 -0.65725920724E+03  0.11945793451E+04  0.14918987315E+04  0.00000000000E+00 0. -1.
          4    1    6    6  502    0  0.67839439074E+02 -0.46467941009E+02 -0.13691009105E+03  0.15970545409E+03  0.00000000000E+00 0. -1.
          3    1    5    5  503    0  0.48068495360E+03  0.57158778135E+03  0.68680359733E+03  0.10146279110E+04  0.00000000000E+00 0. -1.
         -4    1    5    5    0  503  0.47177304485E+02  0.10323692961E+03  0.10242972770E+03  0.15289019200E+03  0.00000000000E+00 0.  1.
         -3    1    6    6    0  502  0.29858588987E+02  0.33902456808E+02 -0.69251369689E+02  0.82684122525E+02  0.00000000000E+00 0.  1.
<mgrwt>
<rscale>  0 0.23141661E+04</rscale>
<asrwt>0</asrwt>
<pdfrwt beam="1">  1        1 0.36335384E+00 0.23141661E+04</pdfrwt>
<pdfrwt beam="2">  1       -1 0.87211268E-01 0.23141661E+04</pdfrwt>
<totfact> 0.19722524E+00</totfact>
</mgrwt>
</event>
<event>
12    1  0.1960998E-007  0.1976739E+04  0.7818608E-02  0.8617574E-01
         -2   -1    0    0    0  501 -0.00000000000E+00  0.00000000000E+00  0.47771097080E+03  0.47771097080E+03  0.00000000000E+00 0.  1.
          2   -1    0    0  501    0  0.00000000000E+00 -0.00000000000E+00 -0.20449070427E+04  0.20449070427E+04  0.00000000000E+00 0. -1.
         23    2    1    2    0    0 -0.83096906708E+02  0.23220376904E+03 -0.15670167329E+04  0.15888109666E+04  0.89191704923E+02 0.  0.
        254    2    1    2    0    0  0.83096906708E+02 -0.23220376904E+03 -0.17933903879E+00  0.93380704691E+03  0.90065081049E+03 0.  0.
        -24    2    4    4    0    0  0.48211425945E+03 -0.15496206769E+03 -0.50787173456E+02  0.51557408633E+03  0.82400849028E+02 0.  0.
         24    2    4    4    0    0 -0.39901735274E+03 -0.77241701352E+02  0.50607834417E+02  0.41823296058E+03  0.84714391923E+02 0.  0.
         13    1    3    3    0    0 -0.65958962998E+02  0.15438745179E+03 -0.12791304747E+04  0.12901010973E+04  0.00000000000E+00 0. -1.
        -13    1    3    3    0    0 -0.17137943710E+02  0.77816317256E+02 -0.28788625821E+03  0.29870986929E+03  0.00000000000E+00 0.  1.
          4    1    6    6  502    0 -0.14103561544E+03 -0.60887481507E+02  0.43409924085E+02  0.15963317868E+03  0.00000000000E+00 0. -1.
          3    1    5    5  503    0  0.34181722473E+02  0.31122447612E+01 -0.19646120725E+02  0.39548024960E+02  0.00000000000E+00 0. -1.
         -4    1    5    5    0  503  0.44793253697E+03 -0.15807431245E+03 -0.31141052731E+02  0.47602606137E+03  0.00000000000E+00 0.  1.
         -3    1    6    6    0  502 -0.25798173729E+03 -0.16354219845E+02  0.71979103320E+01  0.25859978190E+03  0.00000000000E+00 0.  1.
<mgrwt>
<rscale>  0 0.19767393E+04</rscale>
<asrwt>0</asrwt>
<pdfrwt beam="1">  1        2 0.31460109E+00 0.19767393E+04</pdfrwt>
<pdfrwt beam="2">  1       -2 0.73493994E-01 0.19767393E+04</pdfrwt>
<totfact> 0.98046170E+00</totfact>
</mgrwt>
</event>
<event>
12    1  0.1960998E-007  0.2642612E+04  0.7818608E-02  0.8353869E-01
          1   -1    0    0  501    0  0.00000000000E+00  0.00000000000E+00  0.12344998699E+04  0.12344998699E+04  0.00000000000E+00 0. -1.
         -1   -1    0    0    0  501 -0.00000000000E+00 -0.00000000000E+00 -0.14142165822E+04  0.14142165822E+04  0.00000000000E+00 0.  1.
         23    2    1    2    0    0 -0.73020629753E+03 -0.76898796350E+03 -0.56495143780E+03  0.12051135807E+04  0.92654683116E+02 0.  0.
        254    2    1    2    0    0  0.73020629753E+03  0.76898796350E+03  0.38523472550E+03  0.14436028714E+04  0.90057744350E+03 0.  0.
        -24    2    4    4    0    0  0.19871986513E+02  0.53306296339E+03  0.42953092452E+03  0.68959552944E+03  0.80586353135E+02 0.  0.
         24    2    4    4    0    0  0.71033431101E+03  0.23592500011E+03 -0.44296199017E+02  0.75400734200E+03  0.79558025804E+02 0.  0.
         13    1    3    3    0    0 -0.13737218979E+03 -0.10151993784E+03 -0.10969733464E+03  0.20300473278E+03  0.00000000000E+00 0.  1.
        -13    1    3    3    0    0 -0.59283410774E+03 -0.66746802566E+03 -0.45525410316E+03  0.10021088479E+04  0.00000000000E+00 0. -1.
          4    1    6    6  502    0  0.94092496896E+02  0.11681137195E+02  0.13149234140E+02  0.95722250793E+02  0.00000000000E+00 0. -1.
          3    1    5    5  503    0 -0.25638350598E+02  0.91644970344E+02  0.64102856489E+02  0.11474014912E+03  0.00000000000E+00 0. -1.
         -4    1    5    5    0  503  0.45510337111E+02  0.44141799305E+03  0.36542806803E+03  0.57485538031E+03  0.00000000000E+00 0.  1.
         -3    1    6    6    0  502  0.61624181412E+03  0.22424386291E+03 -0.57445433158E+02  0.65828509121E+03  0.00000000000E+00 0.  1.
<mgrwt>
<rscale>  0 0.26426125E+04</rscale>
<asrwt>0</asrwt>
<pdfrwt beam="1">  1        1 0.18992306E+00 0.26426125E+04</pdfrwt>
<pdfrwt beam="2">  1       -1 0.21757178E+00 0.26426125E+04</pdfrwt>
<totfact> 0.10110990E+00</totfact>
</mgrwt>
</event>
<event>
12    1  0.1960998E-007  0.1846464E+04  0.7818608E-02  0.8681973E-01
          2   -1    0    0  501    0  0.00000000000E+00  0.00000000000E+00  0.55294074065E+03  0.55294074065E+03  0.00000000000E+00 0. -1.
         -2   -1    0    0    0  501 -0.00000000000E+00 -0.00000000000E+00 -0.15414990778E+04  0.15414990778E+04  0.00000000000E+00 0.  1.
         23    2    1    2    0    0  0.43226911930E+03  0.59268277503E+02 -0.99958416294E+03  0.10943887305E+04  0.90271116238E+02 0.  0.
        254    2    1    2    0    0 -0.43226911930E+03 -0.59268277503E+02  0.11025825736E+02  0.10000510880E+04  0.89978402384E+03 0.  0.
        -24    2    4    4    0    0  0.21623350370E+03 -0.52324604030E+02 -0.20388566308E+03  0.31217489264E+03  0.79931268422E+02 0.  0.
         24    2    4    4    0    0 -0.64850262300E+03 -0.69436734730E+01  0.21491148882E+03  0.68787619536E+03  0.79892712271E+02 0.  0.
         13    1    3    3    0    0  0.31154008142E+03  0.31179220318E+02 -0.61157578321E+03  0.68706208214E+03  0.00000000000E+00 0. -1.
        -13    1    3    3    0    0  0.12072903788E+03  0.28089057185E+02 -0.38800837973E+03  0.40732664836E+03  0.00000000000E+00 0.  1.
          2    1    6    6  502    0 -0.34274337012E+03 -0.21498018135E+02  0.76000006583E+02  0.35172600635E+03  0.00000000000E+00 0. -1.
          3    1    5    5  503    0  0.19852149689E+03 -0.28343331315E+02 -0.14941031039E+03  0.25007512873E+03  0.00000000000E+00 0. -1.
         -4    1    5    5    0  503  0.17712006812E+02 -0.23981272715E+02 -0.54475352695E+02  0.62099763909E+02  0.00000000000E+00 0.  1.
         -1    1    6    6    0  502 -0.30575925288E+03  0.14554344662E+02  0.13891148224E+03  0.33615018901E+03  0.00000000000E+00 0.  1.
<mgrwt>
<rscale>  0 0.18464643E+04</rscale>
<asrwt>0</asrwt>
<pdfrwt beam="1">  1        2 0.85067806E-01 0.18464643E+04</pdfrwt>
<pdfrwt beam="2">  1       -2 0.23715370E+00 0.18464643E+04</pdfrwt>
<totfact> 0.39680012E+00</totfact>
</mgrwt>
</event>
<event>
12    1  0.1960998E-007  0.2052463E+04  0.7818608E-02  0.8582478E-01
          1   -1    0    0  501    0  0.00000000000E+00  0.00000000000E+00  0.74635238706E+03  0.74635238706E+03  0.00000000000E+00 0. -1.
         -1   -1    0    0    0  501 -0.00000000000E+00 -0.00000000000E+00 -0.14110645379E+04  0.14110645379E+04  0.00000000000E+00 0.  1.
         23    2    1    2    0    0 -0.18706998400E+03 -0.72222064743E+03  0.10642675736E+03  0.75914065841E+03  0.91487934071E+02 0.  0.
        254    2    1    2    0    0  0.18706998400E+03  0.72222064743E+03 -0.77113890815E+03  0.13982762665E+04  0.89661778886E+03 0.  0.
        -24    2    4    4    0    0 -0.19099563049E+03 -0.98713150301E+02 -0.29578375671E+03  0.37415833349E+03  0.79264184066E+02 0.  0.
         24    2    4    4    0    0  0.37806561449E+03  0.82093379773E+03 -0.47535515144E+03  0.10241179330E+04  0.77389350624E+02 0.  0.
         13    1    3    3    0    0 -0.75845445533E+02 -0.16666271705E+03  0.26239232407E+01  0.18312803672E+03  0.00000000000E+00 0.  1.
        -13    1    3    3    0    0 -0.11122453846E+03 -0.55555793039E+03  0.10380283412E+03  0.57601262169E+03  0.00000000000E+00 0. -1.
          4    1    6    6  502    0  0.11801010267E+03  0.34688137362E+03 -0.19433825822E+03  0.41475345725E+03  0.00000000000E+00 0. -1.
          3    1    5    5  503    0  0.41920556879E+00 -0.80573569210E+01 -0.45845134049E+02  0.46549683671E+02  0.00000000000E+00 0. -1.
         -4    1    5    5    0  503 -0.19141483606E+03 -0.90655793380E+02 -0.24993862266E+03  0.32760864982E+03  0.00000000000E+00 0.  1.
         -3    1    6    6    0  502  0.26005551182E+03  0.47405242411E+03 -0.28101689322E+03  0.60936447575E+03  0.00000000000E+00 0.  1.
<mgrwt>
<rscale>  0 0.20524633E+04</rscale>
<asrwt>0</asrwt>
<pdfrwt beam="1">  1        1 0.11482345E+00 0.20524633E+04</pdfrwt>
<pdfrwt beam="2">  1       -1 0.21708685E+00 0.20524633E+04</pdfrwt>
<totfact> 0.26234353E+00</totfact>
</mgrwt>
</event>
<event>
12    1  0.1960998E-007  0.1838926E+04  0.7818608E-02  0.8685869E-01
          1   -1    0    0  501    0  0.00000000000E+00  0.00000000000E+00  0.12207298768E+04  0.12207298768E+04  0.00000000000E+00 0. -1.
         -1   -1    0    0    0  501 -0.00000000000E+00 -0.00000000000E+00 -0.69254626469E+03  0.69254626469E+03  0.00000000000E+00 0.  1.
         23    2    1    2    0    0 -0.49270321808E+03  0.46357845786E+03  0.34680306011E+02  0.68347875341E+03  0.90989202843E+02 0.  0.
        254    2    1    2    0    0  0.49270321808E+03 -0.46357845786E+03  0.49350330612E+03  0.12297973881E+04  0.90066345267E+03 0.  0.
        -24    2    4    4    0    0  0.59460010497E+03 -0.57135224650E+03  0.60677424449E+03  0.10271593544E+04  0.82998079771E+02 0.  0.
         24    2    4    4    0    0 -0.10189688689E+03  0.10777378864E+03 -0.11327093837E+03  0.20263803367E+03  0.78953797479E+02 0.  0.
         13    1    3    3    0    0 -0.28903108314E+03  0.24688155310E+03  0.60783597456E+02  0.38494689764E+03  0.00000000000E+00 0. -1.
        -13    1    3    3    0    0 -0.20367213494E+03  0.21669690476E+03 -0.26103291446E+02  0.29853185577E+03  0.00000000000E+00 0.  1.
          4    1    6    6  502    0 -0.89553139327E+02  0.12060328225E+03 -0.10168047559E+03  0.18139414425E+03  0.00000000000E+00 0. -1.
          3    1    5    5  503    0  0.35313927997E+03 -0.30334033563E+03  0.38123379805E+03  0.60171581253E+03  0.00000000000E+00 0. -1.
         -4    1    5    5    0  503  0.24146082500E+03 -0.26801191087E+03  0.22554044644E+03  0.42544354192E+03  0.00000000000E+00 0.  1.
         -3    1    6    6    0  502 -0.12343747562E+02 -0.12829493613E+02 -0.11590462780E+02  0.21243889420E+02  0.00000000000E+00 0.  1.
<mgrwt>
<rscale>  0 0.18389257E+04</rscale>
<asrwt>0</asrwt>
<pdfrwt beam="1">  1        1 0.18780460E+00 0.18389257E+04</pdfrwt>
<pdfrwt beam="2">  1       -1 0.10654558E+00 0.18389257E+04</pdfrwt>
<totfact> 0.79859157E+00</totfact>
</mgrwt>
</event>
<event>
12    1  0.1960998E-007  0.1804043E+04  0.7818608E-02  0.8704152E-01
          2   -1    0    0  501    0  0.00000000000E+00  0.00000000000E+00  0.26640978560E+04  0.26640978560E+04  0.00000000000E+00 0. -1.
         -2   -1    0    0    0  501 -0.00000000000E+00 -0.00000000000E+00 -0.30541019076E+03  0.30541019076E+03  0.00000000000E+00 0.  1.
         23    2    1    2    0    0  0.23553756484E+03  0.51094500081E+03  0.14868283500E+04  0.15923370832E+04  0.91302277393E+02 0.  0.
        254    2    1    2    0    0 -0.23553756484E+03 -0.51094500081E+03  0.87185931522E+03  0.13771709635E+04  0.90549348922E+03 0.  0.
        -24    2    4    4    0    0 -0.27220082029E+03 -0.59151861902E+03  0.10039400098E+04  0.11993294673E+04  0.80672577713E+02 0.  0.
         24    2    4    4    0    0  0.36663255457E+02  0.80573618213E+02 -0.13208069454E+03  0.17784149622E+03  0.79661695041E+02 0.  0.
         13    1    3    3    0    0  0.17316217696E+03  0.37891248191E+03  0.12039557691E+04  0.12739973714E+04  0.00000000000E+00 0. -1.
        -13    1    3    3    0    0  0.62375387879E+02  0.13203251890E+03  0.28287258094E+03  0.31833971180E+03  0.00000000000E+00 0.  1.
          4    1    6    6  502    0  0.57688152941E+02  0.38470163397E+02 -0.96574552364E+02  0.11888869007E+03  0.00000000000E+00 0. -1.
          3    1    5    5  503    0 -0.11138913416E+03 -0.18394896522E+03  0.38526326562E+03  0.44121711759E+03  0.00000000000E+00 0. -1.
         -4    1    5    5    0  503 -0.16081168613E+03 -0.40756965380E+03  0.61867674414E+03  0.75811234974E+03  0.00000000000E+00 0.  1.
         -3    1    6    6    0  502 -0.21024897484E+02  0.42103454815E+02 -0.35506142174E+02  0.58952806156E+02  0.00000000000E+00 0.  1.
<mgrwt>
<rscale>  0 0.18040428E+04</rscale>
<asrwt>0</asrwt>
<pdfrwt beam="1">  1        2 0.40986119E+00 0.18040428E+04</pdfrwt>
<pdfrwt beam="2">  1       -2 0.46986185E-01 0.18040428E+04</pdfrwt>
<totfact> 0.11323721E+01</totfact>
</mgrwt>
</event>
<event>
12    1  0.1960998E-007  0.1869901E+04  0.7818608E-02  0.8669985E-01
         -1   -1    0    0    0  501 -0.00000000000E+00  0.00000000000E+00  0.10658766951E+04  0.10658766951E+04  0.00000000000E+00 0.  1.
          1   -1    0    0  501    0  0.00000000000E+00 -0.00000000000E+00 -0.82010688837E+03  0.82010688837E+03  0.00000000000E+00 0. -1.
         23    2    1    2    0    0 -0.54760401925E+03  0.14809683649E+03 -0.34662184787E+03  0.67082431699E+03  0.89753684991E+02 0.  0.
        254    2    1    2    0    0  0.54760401925E+03 -0.14809683649E+03  0.59239165462E+03  0.12151592665E+04  0.89659429824E+03 0.  0.
        -24    2    4    4    0    0 -0.50361556462E+02  0.11254657859E+03  0.53374471440E+03  0.55507647802E+03  0.89573754989E+02 0.  0.
         24    2    4    4    0    0  0.59796557571E+03 -0.26064341508E+03  0.58646940224E+02  0.66008278848E+03  0.82292189791E+02 0.  0.
         11    1    3    3    0    0 -0.18216167552E+03  0.38326322549E+02 -0.16273447654E+03  0.24725349924E+03  0.00000000000E+00 0. -1.
        -11    1    3    3    0    0 -0.36544234372E+03  0.10977051394E+03 -0.18388737133E+03  0.42357081775E+03  0.00000000000E+00 0.  1.
          4    1    6    6  502    0  0.47182569592E+03 -0.17198716126E+03  0.28636143785E+02  0.50301003936E+03  0.00000000000E+00 0. -1.
          1    1    5    5  503    0 -0.76361270229E+02  0.81187299995E+02  0.37761257075E+03  0.39371776041E+03  0.00000000000E+00 0. -1.
         -2    1    5    5    0  503  0.25999713767E+02  0.31359278592E+02  0.15613214365E+03  0.16135871762E+03  0.00000000000E+00 0.  1.
         -3    1    6    6    0  502  0.12613987979E+03 -0.88656253817E+02  0.30010796439E+02  0.15707274912E+03  0.00000000000E+00 0.  1.
<mgrwt>
<rscale>  0 0.18699014E+04</rscale>
<asrwt>0</asrwt>
<pdfrwt beam="1">  1        1 0.12617029E+00 0.18699014E+04</pdfrwt>
<pdfrwt beam="2">  1       -1 0.16398103E+00 0.18699014E+04</pdfrwt>
<totfact> 0.54335658E+00</totfact>
</mgrwt>
</event>
<event>
12    1  0.1960998E-007  0.1234023E+04  0.7818608E-02  0.9083587E-01
          2   -1    0    0  501    0  0.00000000000E+00  0.00000000000E+00  0.13595293511E+04  0.13595293511E+04  0.00000000000E+00 0. -1.
         -2   -1    0    0    0  501 -0.00000000000E+00 -0.00000000000E+00 -0.28002572841E+03  0.28002572841E+03  0.00000000000E+00 0.  1.
         23    2    1    2    0    0  0.11697189672E+03  0.21991067300E+03  0.85854725690E+02  0.27682208536E+03  0.84948833431E+02 0.  0.
        254    2    1    2    0    0 -0.11697189672E+03 -0.21991067300E+03  0.99364889702E+03  0.13627329942E+04  0.89869903423E+03 0.  0.
        -24    2    4    4    0    0  0.48438934535E+02  0.21572903563E+03 -0.28512980289E+02  0.23663691655E+03  0.79364305816E+02 0.  0.
         24    2    4    4    0    0 -0.16541083126E+03 -0.43563970863E+03  0.10221618773E+04  0.11260960776E+04  0.78324796670E+02 0.  0.
         13    1    3    3    0    0  0.28100471736E+02  0.13818007329E+03  0.31879259641E+02  0.14456713445E+03  0.00000000000E+00 0.  1.
        -13    1    3    3    0    0  0.88871424984E+02  0.81730599704E+02  0.53975466049E+02  0.13225495092E+03  0.00000000000E+00 0. -1.
          4    1    6    6  502    0 -0.15426755630E+02 -0.10962082718E+03  0.29786928100E+03  0.31777479305E+03  0.00000000000E+00 0. -1.
          1    1    5    5  503    0 -0.87540163364E+01  0.89845148378E+00  0.73297460205E+01  0.11452737394E+02  0.00000000000E+00 0. -1.
         -2    1    5    5    0  503  0.57192950872E+02  0.21483058415E+03 -0.35842726310E+02  0.22518417916E+03  0.00000000000E+00 0.  1.
         -3    1    6    6    0  502 -0.14998407563E+03 -0.32601888145E+03  0.72429259632E+03  0.80832128457E+03  0.00000000000E+00 0.  1.
<mgrwt>
<rscale>  0 0.12340230E+04</rscale>
<asrwt>0</asrwt>
<pdfrwt beam="1">  1        2 0.20915836E+00 0.12340230E+04</pdfrwt>
<pdfrwt beam="2">  1       -2 0.43080882E-01 0.12340230E+04</pdfrwt>
<totfact> 0.76750190E+01</totfact>
</mgrwt>
</event>
<event>
12    1  0.1960998E-007  0.1329440E+04  0.7818608E-02  0.9006539E-01
         -2   -1    0    0    0  501 -0.00000000000E+00  0.00000000000E+00  0.45011560457E+03  0.45011560457E+03  0.00000000000E+00 0.  1.
          2   -1    0    0  501    0  0.00000000000E+00 -0.00000000000E+00 -0.98164236221E+03  0.98164236221E+03  0.00000000000E+00 0. -1.
         23    2    1    2    0    0  0.22202592339E+03 -0.10307144269E+03 -0.41508701567E+03  0.49101138109E+03  0.94211001634E+02 0.  0.
        254    2    1    2    0    0 -0.22202592339E+03  0.10307144269E+03 -0.11643974198E+03  0.94074658569E+03  0.90084776295E+03 0.  0.
        -24    2    4    4    0    0  0.82198222328E+02 -0.79773538959E+02  0.33370914592E+03  0.36167817571E+03  0.79554656941E+02 0.  0.
         24    2    4    4    0    0 -0.30422414572E+03  0.18284498164E+03 -0.45014888790E+03  0.57906840998E+03  0.81863203016E+02 0.  0.
         13    1    3    3    0    0  0.21537153714E+03 -0.11114995753E+03 -0.41495000809E+03  0.48054419285E+03  0.00000000000E+00 0. -1.
        -13    1    3    3    0    0  0.66543862547E+01  0.80785148431E+01 -0.13700757250E+00  0.10467188236E+02  0.00000000000E+00 0.  1.
          4    1    6    6  502    0 -0.15204138397E+03  0.84306533244E+02 -0.28492506871E+03  0.33377607579E+03  0.00000000000E+00 0. -1.
          3    1    5    5  503    0  0.52221195547E+01 -0.20699562238E+02  0.17029254416E+03  0.17162544393E+03  0.00000000000E+00 0. -1.
         -4    1    5    5    0  503  0.76976102774E+02 -0.59073976721E+02  0.16341660177E+03  0.19005273178E+03  0.00000000000E+00 0.  1.
         -3    1    6    6    0  502 -0.15218276175E+03  0.98538448401E+02 -0.16522381919E+03  0.24529233419E+03  0.00000000000E+00 0.  1.
<mgrwt>
<rscale>  0 0.13294398E+04</rscale>
<asrwt>0</asrwt>
<pdfrwt beam="1">  1        2 0.15102190E+00 0.13294398E+04</pdfrwt>
<pdfrwt beam="2">  1       -2 0.69248555E-01 0.13294398E+04</pdfrwt>
<totfact> 0.48205200E+01</totfact>
</mgrwt>
</event>
<event>
12    1  0.1960998E-007  0.2150570E+04  0.7818608E-02  0.8539288E-01
         -2   -1    0    0    0  501 -0.00000000000E+00  0.00000000000E+00  0.16564585406E+04  0.16564585406E+04  0.00000000000E+00 0.  1.
          2   -1    0    0  501    0  0.00000000000E+00 -0.00000000000E+00 -0.69801768146E+03  0.69801768146E+03  0.00000000000E+00 0. -1.
         23    2    1    2    0    0  0.43009373628E+03  0.25898526192E+03  0.11917551061E+04  0.12970697392E+04  0.10027805210E+03 0.  0.
        254    2    1    2    0    0 -0.43009373628E+03 -0.25898526192E+03 -0.23331424691E+03  0.10574064828E+04  0.90089896452E+03 0.  0.
        -24    2    4    4    0    0 -0.22173772186E+02  0.25318922489E+03 -0.29082928950E+03  0.39450455036E+03  0.80347401009E+02 0.  0.
         24    2    4    4    0    0 -0.40791996409E+03 -0.51217448680E+03  0.57515042587E+02  0.66290193249E+03  0.86078974983E+02 0.  0.
         13    1    3    3    0    0  0.34646061679E+02  0.24635500396E+02  0.46478152352E+02  0.62987904519E+02  0.00000000000E+00 0. -1.
        -13    1    3    3    0    0  0.39544767460E+03  0.23434976152E+03  0.11452769537E+04  0.12340818347E+04  0.00000000000E+00 0.  1.
          4    1    6    6  502    0 -0.99254588159E+02 -0.17091361769E+03  0.44405046649E+02  0.20257034865E+03  0.00000000000E+00 0. -1.
          3    1    5    5  503    0  0.20214082332E+01  0.23585552735E+03 -0.24702581486E+03  0.34154599848E+03  0.00000000000E+00 0. -1.
         -2    1    5    5    0  503 -0.24195180420E+02  0.17333697535E+02 -0.43803474642E+02  0.52958551873E+02  0.00000000000E+00 0.  1.
         -3    1    6    6    0  502 -0.30866537593E+03 -0.34126086911E+03  0.13109995938E+02  0.46033158384E+03  0.00000000000E+00 0.  1.
<mgrwt>
<rscale>  0 0.21505696E+04</rscale>
<asrwt>0</asrwt>
<pdfrwt beam="1">  1        2 0.10738734E+00 0.21505696E+04</pdfrwt>
<pdfrwt beam="2">  1       -2 0.25483978E+00 0.21505696E+04</pdfrwt>
<totfact> 0.22642650E+00</totfact>
</mgrwt>
</event>
<event>
12    1  0.1960998E-007  0.1094593E+04  0.7818608E-02  0.9210478E-01
          4   -1    0    0  501    0  0.00000000000E+00  0.00000000000E+00  0.25031039931E+04  0.25031039931E+04  0.00000000000E+00 0. -1.
         -4   -1    0    0    0  501 -0.00000000000E+00 -0.00000000000E+00 -0.11966481443E+03  0.11966481443E+03  0.00000000000E+00 0.  1.
         23    2    1    2    0    0  0.10717001565E+03 -0.60000830838E+01  0.12719426881E+03  0.19134642784E+03  0.94412182360E+02 0.  0.
        254    2    1    2    0    0 -0.10717001565E+03  0.60000830838E+01  0.22562449099E+04  0.24314223797E+04  0.89980680256E+03 0.  0.
        -24    2    4    4    0    0  0.13807563178E+03 -0.19215675482E+03  0.13271831822E+03  0.28282708255E+03  0.79924390034E+02 0.  0.
         24    2    4    4    0    0 -0.24524564743E+03  0.19815683790E+03  0.21235265917E+04  0.21485952972E+04  0.87664162880E+02 0.  0.
         13    1    3    3    0    0  0.96478606385E+02 -0.38844970984E+02  0.11414646704E+03  0.15442302030E+03  0.00000000000E+00 0. -1.
        -13    1    3    3    0    0  0.10691409266E+02  0.32844887901E+02  0.13047801762E+02  0.36923407537E+02  0.00000000000E+00 0.  1.
          2    1    6    6  502    0 -0.22141475008E+03  0.13514040094E+03  0.16364664244E+04  0.16568976364E+04  0.00000000000E+00 0. -1.
          1    1    5    5  503    0  0.10237088372E+03 -0.15991012037E+03  0.13757177830E+03  0.23447182904E+03  0.00000000000E+00 0. -1.
         -2    1    5    5    0  503  0.35704748060E+02 -0.32246634450E+02 -0.48534600847E+01  0.48355253512E+02  0.00000000000E+00 0.  1.
         -1    1    6    6    0  502 -0.23830897358E+02  0.63016436963E+02  0.48706016733E+03  0.49169766076E+03  0.00000000000E+00 0.  1.
<mgrwt>
<rscale>  0 0.10945930E+04</rscale>
<asrwt>0</asrwt>
<pdfrwt beam="1">  1        4 0.38509288E+00 0.10945930E+04</pdfrwt>
<pdfrwt beam="2">  1       -4 0.18409973E-01 0.10945930E+04</pdfrwt>
<totfact> 0.47515660E-01</totfact>
</mgrwt>
</event>
<event>
12    1  0.1960998E-007  0.1419935E+04  0.7818608E-02  0.8939514E-01
          1   -1    0    0  501    0  0.00000000000E+00  0.00000000000E+00  0.27257367783E+04  0.27257367783E+04  0.00000000000E+00 0. -1.
         -1   -1    0    0    0  501 -0.00000000000E+00 -0.00000000000E+00 -0.18492395309E+03  0.18492395309E+03  0.00000000000E+00 0.  1.
         23    2    1    2    0    0  0.14454084307E+03  0.35814186666E+03  0.10976280407E+04  0.11673530434E+04  0.93638453988E+02 0.  0.
        254    2    1    2    0    0 -0.14454084307E+03 -0.35814186666E+03  0.14431847845E+04  0.17433076880E+04  0.89843292519E+03 0.  0.
        -24    2    4    4    0    0 -0.40093669105E+03  0.12014231409E+03  0.57484895254E+03  0.71550351579E+03  0.79432719978E+02 0.  0.
         24    2    4    4    0    0  0.25639584798E+03 -0.47828418075E+03  0.86833583195E+03  0.10278041723E+04  0.88767736543E+02 0.  0.
         13    1    3    3    0    0  0.14992964140E+03  0.34558547599E+03  0.10857648364E+04  0.11492578034E+04  0.00000000000E+00 0. -1.
        -13    1    3    3    0    0 -0.53887983258E+01  0.12556390679E+02  0.11863204337E+02  0.18095240021E+02  0.00000000000E+00 0.  1.
          4    1    6    6  502    0  0.99265767953E+02 -0.17911679686E+03  0.41073295760E+03  0.45895324606E+03  0.00000000000E+00 0. -1.
          3    1    5    5  503    0 -0.33717538810E+03  0.10683726511E+03  0.52697130344E+03  0.63466542225E+03  0.00000000000E+00 0. -1.
         -4    1    5    5    0  503 -0.63761302959E+02  0.13305048979E+02  0.47877649097E+02  0.80838093535E+02  0.00000000000E+00 0.  1.
         -3    1    6    6    0  502  0.15713008003E+03 -0.29916738389E+03  0.45760287435E+03  0.56885092620E+03  0.00000000000E+00 0.  1.
<mgrwt>
<rscale>  0 0.14199352E+04</rscale>
<asrwt>0</asrwt>
<pdfrwt beam="1">  1        1 0.41934409E+00 0.14199352E+04</pdfrwt>
<pdfrwt beam="2">  1       -1 0.28449841E-01 0.14199352E+04</pdfrwt>
<totfact> 0.10310903E+01</totfact>
</mgrwt>
</event>
<event>
12    1  0.1960998E-007  0.2462703E+04  0.7818608E-02  0.8416395E-01
          2   -1    0    0  501    0  0.00000000000E+00  0.00000000000E+00  0.95725696454E+03  0.95725696454E+03  0.00000000000E+00 0. -1.
         -2   -1    0    0    0  501 -0.00000000000E+00 -0.00000000000E+00 -0.15839283980E+04  0.15839283980E+04  0.00000000000E+00 0.  1.
         23    2    1    2    0    0 -0.65025205985E+02 -0.21839653634E+03  0.80029646174E+03  0.83867731521E+03  0.10478496014E+03 0.  0.
        254    2    1    2    0    0  0.65025205985E+02  0.21839653634E+03 -0.14269678952E+04  0.17025080473E+04  0.90020606129E+03 0.  0.
        -24    2    4    4    0    0 -0.83712689496E+02  0.12649120591E+03 -0.14904006055E+04  0.15002404566E+04  0.80122551462E+02 0.  0.
         24    2    4    4    0    0  0.14873789548E+03  0.91905330424E+02  0.63432710309E+02  0.20226759070E+03  0.79491623439E+02 0.  0.
         13    1    3    3    0    0  0.15377256310E+02 -0.19886668786E+02  0.29896925697E+02  0.39061051869E+02  0.00000000000E+00 0.  1.
        -13    1    3    3    0    0 -0.80402462295E+02 -0.19850986755E+03  0.77039953604E+03  0.79961626334E+03  0.00000000000E+00 0. -1.
          4    1    6    6  502    0  0.80034532893E+02  0.28468795784E+02  0.67751603223E+02  0.10865670034E+03  0.00000000000E+00 0. -1.
          3    1    5    5  503    0 -0.44389923633E+02  0.12369967343E+03 -0.10861214584E+04  0.10940438277E+04  0.00000000000E+00 0. -1.
         -4    1    5    5    0  503 -0.39322765863E+02  0.27915324804E+01 -0.40427914712E+03  0.40619662894E+03  0.00000000000E+00 0.  1.
         -3    1    6    6    0  502  0.68703362588E+02  0.63436534640E+02 -0.43188929145E+01  0.93610890360E+02  0.00000000000E+00 0.  1.
<mgrwt>
<rscale>  0 0.24627030E+04</rscale>
<asrwt>0</asrwt>
<pdfrwt beam="1">  1        2 0.14727030E+00 0.24627030E+04</pdfrwt>
<pdfrwt beam="2">  1       -2 0.24368129E+00 0.24627030E+04</pdfrwt>
<totfact> 0.16883710E+00</totfact>
</mgrwt>
</event>
<event>
12    1  0.1960998E-007  0.1761949E+04  0.7818608E-02  0.8726800E-01
          2   -1    0    0  501    0  0.00000000000E+00  0.00000000000E+00  0.38627655467E+04  0.38627655467E+04  0.00000000000E+00 0. -1.
         -2   -1    0    0    0  501 -0.00000000000E+00 -0.00000000000E+00 -0.20092249966E+03  0.20092249966E+03  0.00000000000E+00 0.  1.
         23    2    1    2    0    0  0.63572547626E+03 -0.89464294114E+02  0.12079324468E+04  0.13709541926E+04  0.90905780335E+02 0.  0.
        254    2    1    2    0    0 -0.63572547626E+03  0.89464294114E+02  0.24539106002E+04  0.26927338538E+04  0.90387368170E+03 0.  0.
        -24    2    4    4    0    0 -0.85836614037E+03  0.36698183022E+02  0.18163852682E+04  0.20108935688E+04  0.79361923997E+02 0.  0.
         24    2    4    4    0    0  0.22264066411E+03  0.52766111092E+02  0.63752533200E+03  0.68184028497E+03  0.78195252260E+02 0.  0.
         13    1    3    3    0    0  0.49568819703E+03 -0.82073223341E+02  0.86298889161E+03  0.99859532830E+03  0.00000000000E+00 0.  1.
        -13    1    3    3    0    0  0.14003727923E+03 -0.73910707730E+01  0.34494355522E+03  0.37235886426E+03  0.00000000000E+00 0. -1.
          2    1    6    6  502    0  0.49699294905E+02  0.83768666396E+01  0.25181188138E+03  0.25680618258E+03  0.00000000000E+00 0. -1.
          3    1    5    5  503    0 -0.42029911556E+03  0.48212615051E+02  0.83233539372E+03  0.93367982223E+03  0.00000000000E+00 0. -1.
         -4    1    5    5    0  503 -0.43806702481E+03 -0.11514432030E+02  0.98404987444E+03  0.10772137466E+04  0.00000000000E+00 0.  1.
         -1    1    6    6    0  502  0.17294136921E+03  0.44389244453E+02  0.38571345062E+03  0.42503410239E+03  0.00000000000E+00 0.  1.
<mgrwt>
<rscale>  0 0.17619495E+04</rscale>
<asrwt>0</asrwt>
<pdfrwt beam="1">  1        2 0.59427157E+00 0.17619495E+04</pdfrwt>
<pdfrwt beam="2">  1       -2 0.30911157E-01 0.17619495E+04</pdfrwt>
<totfact> 0.40902144E+00</totfact>
</mgrwt>
</event>
<event>
12    1  0.1960998E-007  0.1644509E+04  0.7818608E-02  0.8793662E-01
          2   -1    0    0  501    0  0.00000000000E+00  0.00000000000E+00  0.10830087936E+04  0.10830087936E+04  0.00000000000E+00 0. -1.
         -2   -1    0    0    0  501 -0.00000000000E+00 -0.00000000000E+00 -0.62428137829E+03  0.62428137829E+03  0.00000000000E+00 0.  1.
         23    2    1    2    0    0 -0.37386004329E+03 -0.18194896755E+03  0.57011234395E+03  0.71208210629E+03  0.95687421406E+02 0.  0.
        254    2    1    2    0    0  0.37386004329E+03  0.18194896755E+03 -0.11138492859E+03  0.99520806565E+03  0.89730470458E+03 0.  0.
        -24    2    4    4    0    0  0.65521321616E+03  0.42046181566E+02 -0.11431799531E+03  0.67106064221E+03  0.78622779503E+02 0.  0.
         24    2    4    4    0    0 -0.28135317287E+03  0.13990278599E+03  0.29330667134E+01  0.32414742345E+03  0.79564765043E+02 0.  0.
         13    1    3    3    0    0 -0.19955790245E+03 -0.75093636855E+02  0.36346154424E+03  0.42138664534E+03  0.00000000000E+00 0. -1.
        -13    1    3    3    0    0 -0.17430214084E+03 -0.10685533070E+03  0.20665079971E+03  0.29069546096E+03  0.00000000000E+00 0.  1.
          2    1    6    6  502    0 -0.17519051931E+03  0.95518611536E+02  0.39498623004E+02  0.20341008929E+03  0.00000000000E+00 0. -1.
          1    1    5    5  503    0  0.50862272092E+03  0.58427767304E+02 -0.10911287257E+03  0.52346584912E+03  0.00000000000E+00 0. -1.
         -2    1    5    5    0  503  0.14659049523E+03 -0.16381585739E+02 -0.52051227327E+01  0.14759479309E+03  0.00000000000E+00 0.  1.
         -1    1    6    6    0  502 -0.10616265356E+03  0.44384174452E+02 -0.36565556290E+02  0.12073733416E+03  0.00000000000E+00 0.  1.
<mgrwt>
<rscale>  0 0.16445087E+04</rscale>
<asrwt>0</asrwt>
<pdfrwt beam="1">  1        2 0.16661674E+00 0.16445087E+04</pdfrwt>
<pdfrwt beam="2">  1       -2 0.96043289E-01 0.16445087E+04</pdfrwt>
<totfact> 0.19382537E+01</totfact>
</mgrwt>
</event>
<event>
12    1  0.1960998E-007  0.1370548E+04  0.7818608E-02  0.8975418E-01
          2   -1    0    0  501    0  0.00000000000E+00  0.00000000000E+00  0.92904718090E+03  0.92904718090E+03  0.00000000000E+00 0. -1.
         -2   -1    0    0    0  501 -0.00000000000E+00 -0.00000000000E+00 -0.50546467877E+03  0.50546467877E+03  0.00000000000E+00 0.  1.
         23    2    1    2    0    0  0.21969538028E+03  0.27992587689E+02  0.44571829172E+03  0.50557855039E+03  0.88855106559E+02 0.  0.
        254    2    1    2    0    0 -0.21969538028E+03 -0.27992587689E+02 -0.22135789594E+02  0.92893330927E+03  0.90187441189E+03 0.  0.
        -24    2    4    4    0    0 -0.56225265748E+03 -0.40169946872E+02  0.43945704203E+02  0.57103419909E+03  0.80044713352E+02 0.  0.
         24    2    4    4    0    0  0.34255727720E+03  0.12177359184E+02 -0.66081493797E+02  0.35789911018E+03  0.78938159387E+02 0.  0.
         13    1    3    3    0    0  0.30547663741E+01 -0.49506971272E+01 -0.27518914517E+01  0.64353637199E+01  0.00000000000E+00 0.  1.
        -13    1    3    3    0    0  0.21664061390E+03  0.32943284816E+02  0.44847018317E+03  0.49914318667E+03  0.00000000000E+00 0. -1.
          2    1    6    6  502    0  0.27804520236E+03  0.41048311011E+02 -0.51773052721E+02  0.28578759137E+03  0.00000000000E+00 0. -1.
          3    1    5    5  503    0 -0.46973759798E+03 -0.62707424548E+02  0.42445870028E+02  0.47580172754E+03  0.00000000000E+00 0. -1.
         -4    1    5    5    0  503 -0.92515059503E+02  0.22537477676E+02  0.14998341742E+01  0.95232471549E+02  0.00000000000E+00 0.  1.
         -1    1    6    6    0  502  0.64512074839E+02 -0.28870951827E+02 -0.14308441075E+02  0.72111518813E+02  0.00000000000E+00 0.  1.
<mgrwt>
<rscale>  0 0.13705481E+04</rscale>
<asrwt>0</asrwt>
<pdfrwt beam="1">  1        2 0.14293034E+00 0.13705481E+04</pdfrwt>
<pdfrwt beam="2">  1       -2 0.77763796E-01 0.13705481E+04</pdfrwt>
<totfact> 0.40289800E+01</totfact>
</mgrwt>
</event>
<event>
12    1  0.1960998E-007  0.3347640E+04  0.7818608E-02  0.8150878E-01
         -1   -1    0    0    0  501 -0.00000000000E+00  0.00000000000E+00  0.24191291018E+04  0.24191291018E+04  0.00000000000E+00 0.  1.
          1   -1    0    0  501    0  0.00000000000E+00 -0.00000000000E+00 -0.11581330528E+04  0.11581330528E+04  0.00000000000E+00 0. -1.
         23    2    1    2    0    0  0.10847551959E+04  0.83542266425E+03  0.13646120364E+04  0.19350879333E+04  0.88172767414E+02 0.  0.
        254    2    1    2    0    0 -0.10847551959E+04 -0.83542266425E+03 -0.10361598735E+03  0.16421742213E+04  0.90076358566E+03 0.  0.
        -24    2    4    4    0    0 -0.11031060254E+04 -0.42513323064E+03  0.75401569873E+02  0.11873924880E+04  0.81451561751E+02 0.  0.
         24    2    4    4    0    0  0.18350829492E+02 -0.41028943361E+03 -0.17901755723E+03  0.45478173324E+03  0.78134287060E+02 0.  0.
         13    1    3    3    0    0  0.32299696771E+03  0.22006793530E+03  0.34397774865E+03  0.52065115852E+03  0.00000000000E+00 0.  1.
        -13    1    3    3    0    0  0.76175822815E+03  0.61535472895E+03  0.10206342877E+04  0.14144367748E+04  0.00000000000E+00 0. -1.
          2    1    6    6  502    0  0.31869938588E+01 -0.32716683633E+03 -0.10842802092E+03  0.34468091250E+03  0.00000000000E+00 0. -1.
          3    1    5    5  503    0 -0.47331606708E+03 -0.14284640381E+03  0.15631924935E+02  0.49464891743E+03  0.00000000000E+00 0. -1.
         -4    1    5    5    0  503 -0.62978995828E+03 -0.28228682683E+03  0.59769644938E+02  0.69274357060E+03  0.00000000000E+00 0.  1.
         -3    1    6    6    0  502  0.15163835634E+02 -0.83122597285E+02 -0.70589536310E+02  0.11010082074E+03  0.00000000000E+00 0.  1.
<mgrwt>
<rscale>  0 0.33476400E+04</rscale>
<asrwt>0</asrwt>
<pdfrwt beam="1">  1        1 0.17817432E+00 0.33476400E+04</pdfrwt>
<pdfrwt beam="2">  1       -1 0.37217371E+00 0.33476400E+04</pdfrwt>
<totfact> 0.10466440E-01</totfact>
</mgrwt>
</event>
<event>
12    1  0.1960998E-007  0.3617833E+04  0.7818608E-02  0.8086419E-01
          2   -1    0    0  501    0  0.00000000000E+00  0.00000000000E+00  0.13995363690E+04  0.13995363690E+04  0.00000000000E+00 0.  1.
         -2   -1    0    0    0  501 -0.00000000000E+00 -0.00000000000E+00 -0.23380446129E+04  0.23380446129E+04  0.00000000000E+00 0. -1.
         23    2    1    2    0    0  0.94610768006E+03  0.10937037614E+04  0.46898945444E+03  0.15230403217E+04  0.91613609017E+02 0.  0.
        254    2    1    2    0    0 -0.94610768006E+03 -0.10937037614E+04 -0.14074976983E+04  0.22145406602E+04  0.91204874051E+03 0.  0.
        -24    2    4    4    0    0 -0.66135522123E+03 -0.12185499815E+04 -0.11377813263E+04  0.17953751659E+04  0.81060803533E+02 0.  0.
         24    2    4    4    0    0 -0.28475245884E+03  0.12484622009E+03 -0.26971637201E+03  0.41916549432E+03  0.79260638471E+02 0.  0.
         13    1    3    3    0    0  0.84893224552E+03  0.94028025847E+03  0.39535665597E+03  0.13270718923E+04  0.00000000000E+00 0. -1.
        -13    1    3    3    0    0  0.97175434546E+02  0.15342350290E+03  0.73632798468E+02  0.19596842942E+03  0.00000000000E+00 0.  1.
          4    1    6    6  502    0 -0.42701141923E+02  0.36423613053E+02 -0.85969705762E+02  0.10266867788E+03  0.00000000000E+00 0. -1.
          1    1    5    5  503    0 -0.33733718822E+03 -0.55545047188E+03 -0.50004304307E+03  0.81997844495E+03  0.00000000000E+00 0. -1.
         -4    1    5    5    0  503 -0.32401803300E+03 -0.66309950958E+03 -0.63773828325E+03  0.97539672095E+03  0.00000000000E+00 0.  1.
         -3    1    6    6    0  502 -0.24205131692E+03  0.88422607037E+02 -0.18374666624E+03  0.31649681643E+03  0.00000000000E+00 0.  1.
<mgrwt>
<rscale>  0 0.36178328E+04</rscale>
<asrwt>0</asrwt>
<pdfrwt beam="1">  1        2 0.21531329E+00 0.36178328E+04</pdfrwt>
<pdfrwt beam="2">  1       -2 0.35969917E+00 0.36178328E+04</pdfrwt>
<totfact> 0.15908860E-01</totfact>
</mgrwt>
</event>
<event>
12    1  0.1960998E-007  0.2094982E+04  0.7818608E-02  0.8563457E-01
          2   -1    0    0  501    0  0.00000000000E+00  0.00000000000E+00  0.11060110809E+04  0.11060110809E+04  0.00000000000E+00 0. -1.
         -2   -1    0    0    0  501 -0.00000000000E+00 -0.00000000000E+00 -0.99206753506E+03  0.99206753506E+03  0.00000000000E+00 0.  1.
         23    2    1    2    0    0  0.28802551238E+03  0.60583577433E+03 -0.47584908655E+03  0.82751896707E+03  0.91430883384E+02 0.  0.
        254    2    1    2    0    0 -0.28802551238E+03 -0.60583577433E+03  0.58979263235E+03  0.12705596488E+04  0.90358773279E+03 0.  0.
        -24    2    4    4    0    0 -0.43274998823E+03  0.50460259944E+02  0.17330629345E+03  0.47569276427E+03  0.80185687522E+02 0.  0.
         24    2    4    4    0    0  0.14472447585E+03 -0.65629603428E+03  0.41648633891E+03  0.79486688457E+03  0.81748609646E+02 0.  0.
         13    1    3    3    0    0  0.17265383027E+03  0.43034443348E+03 -0.36454345281E+03  0.58982845432E+03  0.00000000000E+00 0.  1.
        -13    1    3    3    0    0  0.11537168212E+03  0.17549134085E+03 -0.11130563374E+03  0.23769051275E+03  0.00000000000E+00 0. -1.
          4    1    6    6  502    0  0.13933836368E+03 -0.63866316310E+03  0.41872152354E+03  0.77629474414E+03  0.00000000000E+00 0. -1.
          3    1    5    5  503    0 -0.33770944858E+03  0.62957681365E+02  0.15983811441E+03  0.37889254957E+03  0.00000000000E+00 0. -1.
         -4    1    5    5    0  503 -0.95040539652E+02 -0.12497421421E+02  0.13468179042E+02  0.96800214702E+02  0.00000000000E+00 0.  1.
         -3    1    6    6    0  502  0.53861121666E+01 -0.17632871172E+02 -0.22351846327E+01  0.18572140436E+02  0.00000000000E+00 0.  1.
<mgrwt>
<rscale>  0 0.20949823E+04</rscale>
<asrwt>0</asrwt>
<pdfrwt beam="1">  1        2 0.17015555E+00 0.20949823E+04</pdfrwt>
<pdfrwt beam="2">  1       -2 0.15262577E+00 0.20949823E+04</pdfrwt>
<totfact> 0.56974112E+00</totfact>
</mgrwt>
</event>
<event>
12    1  0.1960998E-007  0.1884912E+04  0.7818608E-02  0.8662404E-01
         -2   -1    0    0    0  501 -0.00000000000E+00  0.00000000000E+00  0.39791484913E+03  0.39791484913E+03  0.00000000000E+00 0.  1.
          2   -1    0    0  501    0  0.00000000000E+00 -0.00000000000E+00 -0.22321932563E+04  0.22321932563E+04  0.00000000000E+00 0. -1.
         23    2    1    2    0    0 -0.72347242164E+03 -0.51603559244E+02 -0.58814270511E+03  0.93823464014E+03  0.91088562292E+02 0.  0.
        254    2    1    2    0    0  0.72347242164E+03  0.51603559244E+02 -0.12461357021E+04  0.16918734653E+04  0.88515894755E+03 0.  0.
        -24    2    4    4    0    0  0.93127943911E+02 -0.43790781983E+02  0.12473869269E+03  0.17801654824E+03  0.74429184258E+02 0.  0.
         24    2    4    4    0    0  0.63034447773E+03  0.95394341228E+02 -0.13708743948E+04  0.15138569171E+04  0.77665424686E+02 0.  0.
         11    1    3    3    0    0 -0.18431600594E+03  0.25979587461E+02 -0.14130184279E+03  0.23369539958E+03  0.00000000000E+00 0. -1.
        -11    1    3    3    0    0 -0.53915641570E+03 -0.77583146705E+02 -0.44684086233E+03  0.70453924056E+03  0.00000000000E+00 0.  1.
          2    1    6    6  502    0  0.62761651293E+03  0.95768583297E+02 -0.13712359239E+04  0.15110797688E+04  0.00000000000E+00 0. -1.
          1    1    5    5  503    0  0.49966894013E+02  0.48763969077E+01  0.92890789659E+02  0.10558962330E+03  0.00000000000E+00 0. -1.
         -2    1    5    5    0  503  0.43161049898E+02 -0.48667178891E+02  0.31847903032E+02  0.72426924946E+02  0.00000000000E+00 0.  1.
         -1    1    6    6    0  502  0.27279648011E+01 -0.37424206922E+00  0.36152910133E+00  0.27771482448E+01  0.00000000000E+00 0.  1.
<mgrwt>
<rscale>  0 0.18849115E+04</rscale>
<asrwt>0</asrwt>
<pdfrwt beam="1">  1        2 0.34341434E+00 0.18849115E+04</pdfrwt>
<pdfrwt beam="2">  1       -2 0.61217670E-01 0.18849115E+04</pdfrwt>
<totfact> 0.11528022E+01</totfact>
</mgrwt>
</event>
<event>
12    1  0.1960998E-007  0.1689958E+04  0.7818608E-02  0.8767113E-01
          1   -1    0    0  501    0  0.00000000000E+00  0.00000000000E+00  0.64774083576E+03  0.64774083576E+03  0.00000000000E+00 0. -1.
         -1   -1    0    0    0  501 -0.00000000000E+00 -0.00000000000E+00 -0.11022759930E+04  0.11022759930E+04  0.00000000000E+00 0.  1.
         23    2    1    2    0    0  0.44277790823E+03  0.43541518002E+02  0.25502662413E+03  0.52088659372E+03  0.91302380550E+02 0.  0.
        254    2    1    2    0    0 -0.44277790823E+03 -0.43541518002E+02 -0.70956178132E+03  0.12291302350E+04  0.89963052042E+03 0.  0.
        -24    2    4    4    0    0 -0.14679374830E+03  0.38650174568E+03 -0.51747749875E+03  0.66728327017E+03  0.80944406717E+02 0.  0.
         24    2    4    4    0    0 -0.29598415993E+03 -0.43004326369E+03 -0.19208428257E+03  0.56184696483E+03  0.78941805846E+02 0.  0.
         13    1    3    3    0    0  0.23230532839E+03 -0.68156264919E+01  0.17184567219E+03  0.28903832516E+03  0.00000000000E+00 0.  1.
        -13    1    3    3    0    0  0.21047257984E+03  0.50357144494E+02  0.83180951938E+02  0.23184826855E+03  0.00000000000E+00 0. -1.
          2    1    6    6  502    0 -0.16519290164E+03 -0.20743641152E+03 -0.13441804605E+03  0.29729912660E+03  0.00000000000E+00 0. -1.
          1    1    5    5  503    0 -0.13674038584E+03  0.38775196227E+03 -0.50529380847E+03  0.65143790974E+03  0.00000000000E+00 0. -1.
         -2    1    5    5    0  503 -0.10053362463E+02 -0.12502165907E+01 -0.12183690277E+02  0.15845360429E+02  0.00000000000E+00 0.  1.
         -1    1    6    6    0  502 -0.13079125829E+03 -0.22260685217E+03 -0.57666236521E+02  0.26454783823E+03  0.00000000000E+00 0.  1.
<mgrwt>
<rscale>  0 0.16899576E+04</rscale>
<asrwt>0</asrwt>
<pdfrwt beam="1">  1        1 0.99652438E-01 0.16899576E+04</pdfrwt>
<pdfrwt beam="2">  1       -1 0.16958092E+00 0.16899576E+04</pdfrwt>
<totfact> 0.72252913E+00</totfact>
</mgrwt>
</event>
<event>
12    1  0.1960998E-007  0.1862871E+04  0.7818608E-02  0.8673562E-01
          1   -1    0    0  501    0  0.00000000000E+00  0.00000000000E+00  0.20183144549E+04  0.20183144549E+04  0.00000000000E+00 0. -1.
         -1   -1    0    0    0  501 -0.00000000000E+00 -0.00000000000E+00 -0.42984973562E+03  0.42984973562E+03  0.00000000000E+00 0.  1.
         23    2    1    2    0    0 -0.25033470149E+03  0.14265799103E+03 -0.24301816358E+03  0.38790696555E+03  0.91625438115E+02 0.  0.
        254    2    1    2    0    0  0.25033470149E+03 -0.14265799103E+03  0.18314828828E+04  0.20602572249E+04  0.89850515727E+03 0.  0.
        -24    2    4    4    0    0  0.31693394686E+03 -0.37249726798E+03  0.49595488867E+03  0.70094860257E+03  0.78462414724E+02 0.  0.
         24    2    4    4    0    0 -0.66599245371E+02  0.22983927694E+03  0.13355279941E+04  0.13593086224E+04  0.82603601361E+02 0.  0.
         13    1    3    3    0    0 -0.14061252490E+03  0.50235600198E+02 -0.75384493422E+02  0.16726720998E+03  0.00000000000E+00 0. -1.
        -13    1    3    3    0    0 -0.10972217659E+03  0.92422390837E+02 -0.16763367016E+03  0.22063975557E+03  0.00000000000E+00 0.  1.
          4    1    6    6  502    0 -0.47940492363E+02  0.73292723759E+02  0.65074420330E+03  0.65661109669E+03  0.00000000000E+00 0. -1.
          3    1    5    5  503    0  0.13046417840E+03 -0.11070959219E+03  0.13757589816E+03  0.21955555880E+03  0.00000000000E+00 0. -1.
         -4    1    5    5    0  503  0.18646976847E+03 -0.26178767579E+03  0.35837899052E+03  0.48139304377E+03  0.00000000000E+00 0.  1.
         -1    1    6    6    0  502 -0.18658753008E+02  0.15654655318E+03  0.68478379084E+03  0.70269752567E+03  0.00000000000E+00 0.  1.
<mgrwt>
<rscale>  0 0.18628708E+04</rscale>
<asrwt>0</asrwt>
<pdfrwt beam="1">  1        1 0.31050991E+00 0.18628708E+04</pdfrwt>
<pdfrwt beam="2">  1       -1 0.66130730E-01 0.18628708E+04</pdfrwt>
<totfact> 0.62988984E+00</totfact>
</mgrwt>
</event>
<event>
12    1  0.1960998E-007  0.2155622E+04  0.7818608E-02  0.8537130E-01
         -2   -1    0    0    0  501 -0.00000000000E+00  0.00000000000E+00  0.74853170069E+03  0.74853170069E+03  0.00000000000E+00 0.  1.
          2   -1    0    0  501    0  0.00000000000E+00 -0.00000000000E+00 -0.15519403852E+04  0.15519403852E+04  0.00000000000E+00 0. -1.
         23    2    1    2    0    0  0.54357099929E+03 -0.69888171686E+03 -0.39079879176E+03  0.97211179290E+03  0.91501676566E+02 0.  0.
        254    2    1    2    0    0 -0.54357099929E+03  0.69888171686E+03 -0.41260989278E+03  0.13283602930E+04  0.90021611797E+03 0.  0.
        -24    2    4    4    0    0 -0.29886761818E+03  0.62546854865E+03  0.14269878287E+03  0.71195255862E+03  0.77335273662E+02 0.  0.
         24    2    4    4    0    0 -0.24470338110E+03  0.73413168214E+02 -0.55530867565E+03  0.61640773441E+03  0.79508061195E+02 0.  0.
         11    1    3    3    0    0  0.35808356690E+03 -0.41138576779E+03 -0.27575152222E+03  0.61114727589E+03  0.00000000000E+00 0.  1.
        -11    1    3    3    0    0  0.18548743239E+03 -0.28749594907E+03 -0.11504726954E+03  0.36096451700E+03  0.00000000000E+00 0. -1.
          2    1    6    6  502    0 -0.24249734700E+03  0.74397789968E+02 -0.55790551131E+03  0.61286095814E+03  0.00000000000E+00 0. -1.
          1    1    5    5  503    0 -0.18627561918E+03  0.34733475915E+03  0.11527075174E+03  0.41064265173E+03  0.00000000000E+00 0. -1.
         -2    1    5    5    0  503 -0.11259199900E+03  0.27813378950E+03  0.27428031131E+02  0.30130990689E+03  0.00000000000E+00 0.  1.
         -1    1    6    6    0  502 -0.22060341050E+01 -0.98462175321E+00  0.25968356627E+01  0.35467762727E+01  0.00000000000E+00 0.  1.
<mgrwt>
<rscale>  0 0.21556220E+04</rscale>
<asrwt>0</asrwt>
<pdfrwt beam="1">  1        2 0.23876006E+00 0.21556220E+04</pdfrwt>
<pdfrwt beam="2">  1       -2 0.11515872E+00 0.21556220E+04</pdfrwt>
<totfact> 0.63981046E+00</totfact>
</mgrwt>
</event>
<event>
12    1  0.1960998E-007  0.1303019E+04  0.7818608E-02  0.9027174E-01
         -1   -1    0    0    0  501 -0.00000000000E+00  0.00000000000E+00  0.37795590173E+03  0.37795590173E+03  0.00000000000E+00 0.  1.
          1   -1    0    0  501    0  0.00000000000E+00 -0.00000000000E+00 -0.11230539081E+04  0.11230539081E+04  0.00000000000E+00 0. -1.
         23    2    1    2    0    0 -0.11561561684E+03  0.28663618361E+03 -0.66303512637E+02  0.32821171626E+03  0.88314790913E+02 0.  0.
        254    2    1    2    0    0  0.11561561684E+03 -0.28663618361E+03 -0.67879449371E+03  0.11727980935E+04  0.90507796953E+03 0.  0.
        -24    2    4    4    0    0 -0.28809302099E+03 -0.13627379447E+03 -0.65647327175E+03  0.73437416179E+03  0.82341466942E+02 0.  0.
         24    2    4    4    0    0  0.40370863783E+03 -0.15036238914E+03 -0.22321221956E+02  0.43842393176E+03  0.78280231624E+02 0.  0.
         11    1    3    3    0    0 -0.43658245210E+02  0.20815931661E+03 -0.25598930914E+02  0.21422336177E+03  0.00000000000E+00 0.  1.
        -11    1    3    3    0    0 -0.71957371631E+02  0.78476867000E+02 -0.40704581723E+02  0.11398835449E+03  0.00000000000E+00 0. -1.
          4    1    6    6  502    0  0.25296473543E+03 -0.13205205158E+03 -0.32222234162E+01  0.28537568997E+03  0.00000000000E+00 0. -1.
          1    1    5    5  503    0 -0.23035100478E+03 -0.12189664467E+03 -0.45560541042E+03  0.52487776423E+03  0.00000000000E+00 0. -1.
         -2    1    5    5    0  503 -0.57742016210E+02 -0.14377149799E+02 -0.20086786133E+03  0.20949639755E+03  0.00000000000E+00 0.  1.
         -3    1    6    6    0  502  0.15074390240E+03 -0.18310337564E+02 -0.19098998540E+02  0.15304824180E+03  0.00000000000E+00 0.  1.
<mgrwt>
<rscale>  0 0.13030193E+04</rscale>
<asrwt>0</asrwt>
<pdfrwt beam="1">  1        1 0.17277752E+00 0.13030193E+04</pdfrwt>
<pdfrwt beam="2">  1       -1 0.58147062E-01 0.13030193E+04</pdfrwt>
<totfact> 0.35859406E+01</totfact>
</mgrwt>
</event>
<event>
12    1  0.1960998E-007  0.1707733E+04  0.7818608E-02  0.8756966E-01
          2   -1    0    0  501    0  0.00000000000E+00  0.00000000000E+00  0.32832965574E+03  0.32832965574E+03  0.00000000000E+00 0.  1.
         -2   -1    0    0    0  501 -0.00000000000E+00 -0.00000000000E+00 -0.22205976259E+04  0.22205976259E+04  0.00000000000E+00 0. -1.
         23    2    1    2    0    0  0.52908607956E+03  0.26672392582E+03 -0.90685528782E+03  0.10875134235E+04  0.96047909968E+02 0.  0.
        254    2    1    2    0    0 -0.52908607956E+03 -0.26672392582E+03 -0.98541268229E+03  0.14614138581E+04  0.90200808095E+03 0.  0.
        -24    2    4    4    0    0 -0.72677940142E+03 -0.12385813174E+03 -0.44950959178E+03  0.86720584429E+03  0.80236949979E+02 0.  0.
         24    2    4    4    0    0  0.19769332186E+03 -0.14286579407E+03 -0.53590309052E+03  0.59420801383E+03  0.79985977884E+02 0.  0.
         13    1    3    3    0    0  0.39771639993E+03  0.23488473664E+03 -0.65204594784E+03  0.79907014234E+03  0.00000000000E+00 0.  1.
        -13    1    3    3    0    0  0.13136967963E+03  0.31839189170E+02 -0.25480933998E+03  0.28844328114E+03  0.00000000000E+00 0. -1.
          4    1    6    6  502    0  0.23782891772E+02 -0.21233260107E+02 -0.23538582532E+02  0.39630066155E+02  0.00000000000E+00 0. -1.
          3    1    5    5  503    0 -0.80468888874E+02 -0.26459418753E+02 -0.26914419533E+02  0.88880419082E+02  0.00000000000E+00 0. -1.
         -2    1    5    5    0  503 -0.64631051255E+03 -0.97398712990E+02 -0.42259517225E+03  0.77832542521E+03  0.00000000000E+00 0.  1.
         -1    1    6    6    0  502  0.17391043009E+03 -0.12163253397E+03 -0.51236450798E+03  0.55457794768E+03  0.00000000000E+00 0.  1.
<mgrwt>
<rscale>  0 0.17077331E+04</rscale>
<asrwt>0</asrwt>
<pdfrwt beam="1">  1        2 0.50512255E-01 0.17077331E+04</pdfrwt>
<pdfrwt beam="2">  1       -2 0.34163040E+00 0.17077331E+04</pdfrwt>
<totfact> 0.16648809E+00</totfact>
</mgrwt>
</event>
<event>
12    1  0.1960998E-007  0.1647423E+04  0.7818608E-02  0.8791932E-01
          1   -1    0    0  501    0  0.00000000000E+00  0.00000000000E+00  0.22868045341E+04  0.22868045341E+04  0.00000000000E+00 0. -1.
         -1   -1    0    0    0  501 -0.00000000000E+00 -0.00000000000E+00 -0.29670261365E+03  0.29670261365E+03  0.00000000000E+00 0.  1.
         23    2    1    2    0    0  0.10627437510E+03  0.55239073353E+03  0.86857716235E+03  0.10405269889E+04  0.10881342935E+03 0.  0.
        254    2    1    2    0    0 -0.10627437510E+03 -0.55239073353E+03  0.11215247581E+04  0.15429801588E+04  0.89807584437E+03 0.  0.
        -24    2    4    4    0    0 -0.90158487068E+02 -0.45092333476E+02  0.10084432263E+04  0.10167226389E+04  0.81273074281E+02 0.  0.
         24    2    4    4    0    0 -0.16115888027E+02 -0.50729840005E+03  0.11308153183E+03  0.52625751989E+03  0.80920676314E+02 0.  0.
         13    1    3    3    0    0  0.93012015025E+02  0.47922298978E+03  0.67391929821E+03  0.83214970370E+03  0.00000000000E+00 0.  1.
        -13    1    3    3    0    0  0.13262360070E+02  0.73167743753E+02  0.19465786414E+03  0.20837728521E+03  0.00000000000E+00 0. -1.
          4    1    6    6  502    0 -0.57104722196E+01 -0.49317982376E+03  0.97416164289E+02  0.50274134216E+03  0.00000000000E+00 0. -1.
          1    1    5    5  503    0 -0.75049151118E+02  0.56941215224E+01  0.52109166459E+03  0.52649911777E+03  0.00000000000E+00 0. -1.
         -2    1    5    5    0  503 -0.15109335950E+02 -0.50786454998E+02  0.48735156167E+03  0.49022352117E+03  0.00000000000E+00 0.  1.
         -3    1    6    6    0  502 -0.10405415808E+02 -0.14118576295E+02  0.15665367537E+02  0.23516177725E+02  0.00000000000E+00 0.  1.
<mgrwt>
<rscale>  0 0.16474233E+04</rscale>
<asrwt>0</asrwt>
<pdfrwt beam="1">  1        1 0.35181607E+00 0.16474233E+04</pdfrwt>
<pdfrwt beam="2">  1       -1 0.45646557E-01 0.16474233E+04</pdfrwt>
<totfact> 0.86696404E+00</totfact>
</mgrwt>
</event>
<event>
12    1  0.1960998E-007  0.2747136E+04  0.7818608E-02  0.8319871E-01
         -2   -1    0    0    0  501 -0.00000000000E+00  0.00000000000E+00  0.55804452806E+03  0.55804452806E+03  0.00000000000E+00 0.  1.
          2   -1    0    0  501    0  0.00000000000E+00 -0.00000000000E+00 -0.33808943998E+04  0.33808943998E+04  0.00000000000E+00 0. -1.
         23    2    1    2    0    0  0.15321350089E+03  0.25900037430E+03  0.43937363106E+03  0.54144796968E+03  0.97781109908E+02 0.  0.
        254    2    1    2    0    0 -0.15321350089E+03 -0.25900037430E+03 -0.32622235028E+04  0.33974909581E+04  0.90015946251E+03 0.  0.
        -24    2    4    4    0    0 -0.52201166806E+03 -0.11845235937E+03 -0.20429028680E+04  0.21134410931E+04  0.81571950047E+02 0.  0.
         24    2    4    4    0    0  0.36879816718E+03 -0.14054801493E+03 -0.12193206348E+04  0.12840498650E+04  0.79217503510E+02 0.  0.
         11    1    3    3    0    0  0.14570363641E+03  0.26584980640E+03  0.43537536051E+03  0.53052556372E+03  0.00000000000E+00 0.  1.
        -11    1    3    3    0    0  0.75098644734E+01 -0.68494320968E+01  0.39982705547E+01  0.10922405957E+02  0.00000000000E+00 0. -1.
          2    1    6    6  502    0  0.12886299656E+03 -0.69701737997E+02 -0.34945566934E+03  0.37892383008E+03  0.00000000000E+00 0. -1.
          1    1    5    5  503    0 -0.14637245422E+03 -0.69058689509E+01 -0.66156157680E+03  0.67759597570E+03  0.00000000000E+00 0. -1.
         -2    1    5    5    0  503 -0.37563921384E+03 -0.11154649041E+03 -0.13813412912E+04  0.14358451174E+04  0.00000000000E+00 0.  1.
         -1    1    6    6    0  502  0.23993517061E+03 -0.70846276936E+02 -0.86986496546E+03  0.90512603497E+03  0.00000000000E+00 0.  1.
<mgrwt>
<rscale>  0 0.27471364E+04</rscale>
<asrwt>0</asrwt>
<pdfrwt beam="1">  1        2 0.52013761E+00 0.27471364E+04</pdfrwt>
<pdfrwt beam="2">  1       -2 0.85853003E-01 0.27471364E+04</pdfrwt>
<totfact> 0.10110805E+00</totfact>
</mgrwt>
</event>
<event>
12    1  0.1960998E-007  0.3126387E+04  0.7818608E-02  0.8208533E-01
          2   -1    0    0  501    0  0.00000000000E+00  0.00000000000E+00  0.40358858847E+04  0.40358858847E+04  0.00000000000E+00 0. -1.
         -2   -1    0    0    0  501 -0.00000000000E+00 -0.00000000000E+00 -0.60546159410E+03  0.60546159410E+03  0.00000000000E+00 0.  1.
         23    2    1    2    0    0 -0.51719775997E+03  0.12485171772E+04  0.22783551094E+04  0.26505812637E+04  0.91598943567E+02 0.  0.
        254    2    1    2    0    0  0.51719775997E+03 -0.12485171772E+04  0.11520691812E+04  0.19907662151E+04  0.89977667225E+03 0.  0.
        -24    2    4    4    0    0 -0.79701853812E+02 -0.37449086564E+02 -0.94307609191E+02  0.15154536533E+03  0.79481148808E+02 0.  0.
         24    2    4    4    0    0  0.59689961378E+03 -0.12110680907E+04  0.12463767904E+04  0.18392208497E+04  0.79392450704E+02 0.  0.
         13    1    3    3    0    0 -0.16872495707E+03  0.44291304414E+03  0.71900478335E+03  0.86116662400E+03  0.00000000000E+00 0.  1.
        -13    1    3    3    0    0 -0.34847280290E+03  0.80560413309E+03  0.15593503260E+04  0.17894146397E+04  0.00000000000E+00 0. -1.
          4    1    6    6  502    0  0.10664473253E+03 -0.24038768415E+03  0.20359981752E+03  0.33258415982E+03  0.00000000000E+00 0. -1.
          3    1    5    5  503    0  0.20655804342E+01  0.19073026796E+02 -0.13834216089E+02  0.23652325646E+02  0.00000000000E+00 0. -1.
         -4    1    5    5    0  503 -0.81767434246E+02 -0.56522113360E+02 -0.80473393102E+02  0.12789303968E+03  0.00000000000E+00 0.  1.
         -3    1    6    6    0  502  0.49025488125E+03 -0.97068040651E+03  0.10427769729E+04  0.15066366899E+04  0.00000000000E+00 0.  1.
<mgrwt>
<rscale>  0 0.31263870E+04</rscale>
<asrwt>0</asrwt>
<pdfrwt beam="1">  1        2 0.62090550E+00 0.31263870E+04</pdfrwt>
<pdfrwt beam="2">  1       -2 0.93147940E-01 0.31263870E+04</pdfrwt>
<totfact> 0.26405924E-01</totfact>
</mgrwt>
</event>
<event>
12    1  0.1960998E-007  0.1550962E+04  0.7818608E-02  0.8851253E-01
         -1   -1    0    0    0  501 -0.00000000000E+00  0.00000000000E+00  0.76756018677E+03  0.76756018677E+03  0.00000000000E+00 0.  1.
          1   -1    0    0  501    0  0.00000000000E+00 -0.00000000000E+00 -0.78348398584E+03  0.78348398584E+03  0.00000000000E+00 0. -1.
         23    2    1    2    0    0  0.50673563865E+03 -0.39080329383E+02  0.45720856579E+01  0.51537931128E+03  0.85361882051E+02 0.  0.
        254    2    1    2    0    0 -0.50673563865E+03  0.39080329383E+02 -0.20495884722E+02  0.10356648613E+04  0.90214929146E+03 0.  0.
        -24    2    4    4    0    0 -0.40247264114E+03  0.30372329258E+03 -0.32988397958E+03  0.60787383076E+03  0.80343567313E+02 0.  0.
         24    2    4    4    0    0 -0.10426299751E+03 -0.26464296320E+03  0.30938809486E+03  0.42779103057E+03  0.79859263575E+02 0.  0.
         11    1    3    3    0    0  0.13434536794E+03 -0.13805435585E+02 -0.36448843242E+02  0.13988490309E+03  0.00000000000E+00 0. -1.
        -11    1    3    3    0    0  0.37239027071E+03 -0.25274893798E+02  0.41020928900E+02  0.37549440819E+03  0.00000000000E+00 0.  1.
          2    1    6    6  502    0 -0.99241198263E+02 -0.25666805231E+03  0.26368396825E+03  0.38112535946E+03  0.00000000000E+00 0. -1.
          3    1    5    5  503    0 -0.37486412010E+03  0.29606955878E+03 -0.32740891225E+03  0.57911733525E+03  0.00000000000E+00 0. -1.
         -4    1    5    5    0  503 -0.27608521042E+02  0.76537338033E+01 -0.24750673366E+01  0.28756495502E+02  0.00000000000E+00 0.  1.
         -1    1    6    6    0  502 -0.50217992427E+01 -0.79749108852E+01  0.45704126614E+02  0.46665671117E+02  0.00000000000E+00 0.  1.
<mgrwt>
<rscale>  0 0.15509624E+04</rscale>
<asrwt>0</asrwt>
<pdfrwt beam="1">  1        1 0.12053600E+00 0.15509624E+04</pdfrwt>
<pdfrwt beam="2">  1       -1 0.11808618E+00 0.15509624E+04</pdfrwt>
<totfact> 0.14184914E+01</totfact>
</mgrwt>
</event>
<event>
12    1  0.1960998E-007  0.1209779E+04  0.7818608E-02  0.9104340E-01
          2   -1    0    0  501    0  0.00000000000E+00  0.00000000000E+00  0.30836778642E+04  0.30836778642E+04  0.00000000000E+00 0. -1.
         -2   -1    0    0    0  501 -0.00000000000E+00 -0.00000000000E+00 -0.11865415530E+03  0.11865415530E+03  0.00000000000E+00 0.  1.
         23    2    1    2    0    0 -0.13444073301E+03 -0.21647850615E+03  0.75685717581E+03  0.80364159726E+03  0.89831942856E+02 0.  0.
        254    2    1    2    0    0  0.13444073301E+03  0.21647850615E+03  0.22081665331E+04  0.23986904222E+04  0.90154259442E+03 0.  0.
        -24    2    4    4    0    0 -0.26225415552E+03 -0.19144314536E+03  0.11111502348E+04  0.11603645002E+04  0.79769725177E+02 0.  0.
         24    2    4    4    0    0  0.39669488854E+03  0.40792165151E+03  0.10970162983E+04  0.12383259220E+04  0.78990012588E+02 0.  0.
         13    1    3    3    0    0 -0.83963012356E+02 -0.93468909583E+02  0.25222942532E+03  0.28179053834E+03  0.00000000000E+00 0.  1.
        -13    1    3    3    0    0 -0.50477720657E+02 -0.12300959657E+03  0.50462775049E+03  0.52185105892E+03  0.00000000000E+00 0. -1.
          4    1    6    6  502    0  0.10271912281E+03  0.13958274965E+03  0.39448213305E+03  0.43087204074E+03  0.00000000000E+00 0. -1.
          1    1    5    5  503    0 -0.62894866000E+02 -0.91403713322E+02  0.39441878734E+03  0.40972744940E+03  0.00000000000E+00 0. -1.
         -2    1    5    5    0  503 -0.19935928952E+03 -0.10003943204E+03  0.71673144745E+03  0.75063705081E+03  0.00000000000E+00 0.  1.
         -3    1    6    6    0  502  0.29397576572E+03  0.26833890186E+03  0.70253416523E+03  0.80745388128E+03  0.00000000000E+00 0.  1.
<mgrwt>
<rscale>  0 0.12097788E+04</rscale>
<asrwt>0</asrwt>
<pdfrwt beam="1">  1        2 0.47441192E+00 0.12097788E+04</pdfrwt>
<pdfrwt beam="2">  1       -2 0.18254488E-01 0.12097788E+04</pdfrwt>
<totfact> 0.38721319E+01</totfact>
</mgrwt>
</event>
<event>
12    1  0.1960998E-007  0.1641202E+04  0.7818608E-02  0.8795629E-01
         -1   -1    0    0    0  501 -0.00000000000E+00  0.00000000000E+00  0.56452236423E+03  0.56452236423E+03  0.00000000000E+00 0.  1.
          1   -1    0    0  501    0  0.00000000000E+00 -0.00000000000E+00 -0.11928414231E+04  0.11928414231E+04  0.00000000000E+00 0. -1.
         23    2    1    2    0    0 -0.41855111334E+03 -0.28990977904E+03  0.47270080514E+02  0.52122190647E+03  0.10102029899E+03 0.  0.
        254    2    1    2    0    0  0.41855111334E+03  0.28990977904E+03 -0.67558913938E+03  0.12361418809E+04  0.90132865809E+03 0.  0.
        -24    2    4    4    0    0  0.62799014077E+02  0.56300211594E+03 -0.30906778048E+03  0.65081447397E+03  0.84388908483E+02 0.  0.
         24    2    4    4    0    0  0.35575209926E+03 -0.27309233690E+03 -0.36652135889E+03  0.58532740688E+03  0.84446942631E+02 0.  0.
         11    1    3    3    0    0 -0.32058873811E+03 -0.26217715901E+03  0.60556587245E+02  0.41854641555E+03  0.00000000000E+00 0.  1.
        -11    1    3    3    0    0 -0.97962375228E+02 -0.27732620034E+02 -0.13286506731E+02  0.10267549092E+03  0.00000000000E+00 0. -1.
          2    1    6    6  502    0  0.16121029060E+03 -0.11415905616E+03 -0.10918197443E+03  0.22570279449E+03  0.00000000000E+00 0. -1.
          1    1    5    5  503    0  0.28562595158E+02  0.28844420504E+03 -0.20580840349E+03  0.35548977511E+03  0.00000000000E+00 0. -1.
         -2    1    5    5    0  503  0.34236418919E+02  0.27455791090E+03 -0.10325937699E+03  0.29532469886E+03  0.00000000000E+00 0.  1.
         -1    1    6    6    0  502  0.19454180866E+03 -0.15893328074E+03 -0.25733938447E+03  0.35962461240E+03  0.00000000000E+00 0.  1.
<mgrwt>
<rscale>  0 0.16412016E+04</rscale>
<asrwt>0</asrwt>
<pdfrwt beam="1">  1        1 0.18351406E+00 0.16412016E+04</pdfrwt>
<pdfrwt beam="2">  1       -1 0.86849595E-01 0.16412016E+04</pdfrwt>
<totfact> 0.13512734E+01</totfact>
</mgrwt>
</event>
<event>
12    1  0.1960998E-007  0.1971425E+04  0.7818608E-02  0.8620098E-01
         -2   -1    0    0    0  501 -0.00000000000E+00  0.00000000000E+00  0.73771541413E+03  0.73771541413E+03  0.00000000000E+00 0.  1.
          2   -1    0    0  501    0  0.00000000000E+00 -0.00000000000E+00 -0.13170783247E+04  0.13170783247E+04  0.00000000000E+00 0. -1.
         23    2    1    2    0    0  0.16454661730E+03  0.75577980586E+03 -0.17823008341E+03  0.79871784570E+03  0.88913048595E+02 0.  0.
        254    2    1    2    0    0 -0.16454661730E+03 -0.75577980586E+03 -0.40113282718E+03  0.12560758931E+04  0.90473222564E+03 0.  0.
        -24    2    4    4    0    0  0.26993661433E+03 -0.11403882672E+03  0.11134296482E+03  0.32357585245E+03  0.80208769567E+02 0.  0.
         24    2    4    4    0    0 -0.43448323163E+03 -0.64174097914E+03 -0.51247579200E+03  0.93250004070E+03  0.79484121980E+02 0.  0.
         11    1    3    3    0    0  0.14831541538E+02  0.20005143265E+03 -0.73998122454E+02  0.21381363954E+03  0.00000000000E+00 0. -1.
        -11    1    3    3    0    0  0.14971507576E+03  0.55572837321E+03 -0.10423196096E+03  0.58490420616E+03  0.00000000000E+00 0.  1.
          2    1    6    6  502    0 -0.36188748006E+03 -0.55728434094E+03 -0.46718094944E+03  0.81227238313E+03  0.00000000000E+00 0. -1.
          1    1    5    5  503    0  0.18649559044E+03 -0.11427597250E+03  0.95411368586E+02  0.23862718286E+03  0.00000000000E+00 0. -1.
         -2    1    5    5    0  503  0.83441023893E+02  0.23714577944E+00  0.15931596237E+02  0.84948669590E+02  0.00000000000E+00 0.  1.
         -1    1    6    6    0  502 -0.72595751568E+02 -0.84456638196E+02 -0.45294842563E+02  0.12022765757E+03  0.00000000000E+00 0.  1.
<mgrwt>
<rscale>  0 0.19714248E+04</rscale>
<asrwt>0</asrwt>
<pdfrwt beam="1">  1        2 0.20262744E+00 0.19714248E+04</pdfrwt>
<pdfrwt beam="2">  1       -2 0.11349468E+00 0.19714248E+04</pdfrwt>
<totfact> 0.91630402E+00</totfact>
</mgrwt>
</event>
<event>
12    1  0.1960998E-007  0.3321968E+04  0.7818608E-02  0.8157328E-01
         -3   -1    0    0    0  501 -0.00000000000E+00  0.00000000000E+00  0.20249594561E+04  0.20249594561E+04  0.00000000000E+00 0.  1.
          3   -1    0    0  501    0  0.00000000000E+00 -0.00000000000E+00 -0.13624312706E+04  0.13624312706E+04  0.00000000000E+00 0. -1.
         23    2    1    2    0    0 -0.34470776692E+03 -0.14852074673E+04  0.10492131835E+03  0.15310662840E+04  0.92145632638E+02 0.  0.
        254    2    1    2    0    0  0.34470776692E+03  0.14852074673E+04  0.55760686711E+03  0.18563244427E+04  0.90019461946E+03 0.  0.
        -24    2    4    4    0    0 -0.10582332806E+03  0.48721504147E+03  0.56627181413E+03  0.75866286027E+03  0.79551836374E+02 0.  0.
         24    2    4    4    0    0  0.45053109498E+03  0.99799242578E+03 -0.86649470197E+01  0.10976615824E+04  0.76280526697E+02 0.  0.
         11    1    3    3    0    0 -0.24819315661E+03 -0.94386083200E+03  0.33054231951E+02  0.97650688447E+03  0.00000000000E+00 0. -1.
        -11    1    3    3    0    0 -0.96514610309E+02 -0.54134663526E+03  0.71867086398E+02  0.55455939954E+03  0.00000000000E+00 0.  1.
          4    1    6    6  502    0  0.73385590394E+02  0.20587806093E+03  0.23006469300E+02  0.21977378933E+03  0.00000000000E+00 0. -1.
          3    1    5    5  503    0 -0.67343124814E-01  0.17949841320E+03  0.20072541667E+03  0.26927751071E+03  0.00000000000E+00 0. -1.
         -4    1    5    5    0  503 -0.10575598494E+03  0.30771662828E+03  0.36554639746E+03  0.48938534956E+03  0.00000000000E+00 0.  1.
         -3    1    6    6    0  502  0.37714550458E+03  0.79211436486E+03 -0.31671416320E+02  0.87788779309E+03  0.00000000000E+00 0.  1.
<mgrwt>
<rscale>  0 0.33219681E+04</rscale>
<asrwt>0</asrwt>
<pdfrwt beam="1">  1        3 0.20960481E+00 0.33219681E+04</pdfrwt>
<pdfrwt beam="2">  1       -3 0.31153222E+00 0.33219681E+04</pdfrwt>
<totfact> 0.90648274E-03</totfact>
</mgrwt>
</event>
<event>
12    1  0.1960998E-007  0.2187395E+04  0.7818608E-02  0.8523693E-01
          2   -1    0    0  501    0  0.00000000000E+00  0.00000000000E+00  0.12441463417E+04  0.12441463417E+04  0.00000000000E+00 0.  1.
         -2   -1    0    0    0  501 -0.00000000000E+00 -0.00000000000E+00 -0.96144145680E+03  0.96144145680E+03  0.00000000000E+00 0. -1.
         23    2    1    2    0    0 -0.18873062620E+03 -0.88076791372E+03  0.71319403171E+02  0.90826703890E+03  0.92147651038E+02 0.  0.
        254    2    1    2    0    0  0.18873062620E+03  0.88076791372E+03  0.21138548169E+03  0.12973207596E+04  0.90938768642E+03 0.  0.
        -24    2    4    4    0    0  0.24346734422E+03 -0.24429077831E+01  0.31099714701E+03  0.40319391528E+03  0.81017235013E+02 0.  0.
         24    2    4    4    0    0 -0.54736718015E+02  0.88321082150E+03 -0.99611665323E+02  0.89412684428E+03  0.80516248516E+02 0.  0.
         11    1    3    3    0    0 -0.10055188851E+03 -0.43057042475E+03 -0.10478463574E+02  0.44227974310E+03  0.00000000000E+00 0. -1.
        -11    1    3    3    0    0 -0.88178737697E+02 -0.45019748896E+03  0.81797866745E+02  0.46598729581E+03  0.00000000000E+00 0.  1.
          4    1    6    6  502    0 -0.38590338978E+02  0.18947366030E+03 -0.41547114408E+02  0.19777675527E+03  0.00000000000E+00 0. -1.
          1    1    5    5  503    0  0.14527128847E+03  0.38387946316E+02  0.18170379799E+03  0.23578306105E+03  0.00000000000E+00 0. -1.
         -2    1    5    5    0  503  0.98196055752E+02 -0.40830854099E+02  0.12929334902E+03  0.16741085422E+03  0.00000000000E+00 0.  1.
         -3    1    6    6    0  502 -0.16146379037E+02  0.69373716121E+03 -0.58064550915E+02  0.69635008901E+03  0.00000000000E+00 0.  1.
<mgrwt>
<rscale>  0 0.21873947E+04</rscale>
<asrwt>0</asrwt>
<pdfrwt beam="1">  1        2 0.19140713E+00 0.21873947E+04</pdfrwt>
<pdfrwt beam="2">  1       -2 0.14791407E+00 0.21873947E+04</pdfrwt>
<totfact> 0.50730700E+00</totfact>
</mgrwt>
</event>
<event>
12    1  0.1960998E-007  0.4411341E+04  0.7818608E-02  0.7926345E-01
         -1   -1    0    0    0  501 -0.00000000000E+00  0.00000000000E+00  0.31332485418E+04  0.31332485418E+04  0.00000000000E+00 0.  1.
          1   -1    0    0  501    0  0.00000000000E+00 -0.00000000000E+00 -0.15526961014E+04  0.15526961014E+04  0.00000000000E+00 0. -1.
         23    2    1    2    0    0 -0.16071900676E+04 -0.10443282147E+04  0.16986277266E+04  0.25626673636E+04  0.90810404575E+02 0.  0.
        254    2    1    2    0    0  0.16071900676E+04  0.10443282147E+04 -0.11807528620E+03  0.21232772795E+04  0.90591572404E+03 0.  0.
        -24    2    4    4    0    0  0.84075889867E+03  0.11285243215E+03  0.19611006823E+03  0.87434476651E+03  0.80052574848E+02 0.  0.
         24    2    4    4    0    0  0.76643116897E+03  0.93147578256E+03 -0.31418535443E+03  0.12489325130E+04  0.77821044021E+02 0.  0.
         11    1    3    3    0    0 -0.67399654891E+03 -0.38532516339E+03  0.69563389934E+03  0.10424266648E+04  0.00000000000E+00 0. -1.
        -11    1    3    3    0    0 -0.93319351873E+03 -0.65900305132E+03  0.10029938273E+04  0.15202406989E+04  0.00000000000E+00 0.  1.
          4    1    6    6  502    0  0.36929431934E+03  0.38847326460E+03 -0.14443149555E+03  0.55511280701E+03  0.00000000000E+00 0. -1.
          3    1    5    5  503    0  0.18441809225E+03 -0.66906214113E+01  0.31645001347E+02  0.18723301866E+03  0.00000000000E+00 0. -1.
         -4    1    5    5    0  503  0.65634080641E+03  0.11954305356E+03  0.16446506689E+03  0.68711174786E+03  0.00000000000E+00 0.  1.
         -3    1    6    6    0  502  0.39713684964E+03  0.54300251797E+03 -0.16975385888E+03  0.69381970602E+03  0.00000000000E+00 0.  1.
<mgrwt>
<rscale>  0 0.44113412E+04</rscale>
<asrwt>0</asrwt>
<pdfrwt beam="1">  1        1 0.23887632E+00 0.44113412E+04</pdfrwt>
<pdfrwt beam="2">  1       -1 0.48203824E+00 0.44113412E+04</pdfrwt>
<totfact> 0.89276374E-03</totfact>
</mgrwt>
</event>
<event>
12    1  0.1960998E-007  0.2724139E+04  0.7818608E-02  0.8327215E-01
          2   -1    0    0  501    0  0.00000000000E+00  0.00000000000E+00  0.13018817138E+04  0.13018817138E+04  0.00000000000E+00 0. -1.
         -2   -1    0    0    0  501 -0.00000000000E+00 -0.00000000000E+00 -0.14250395672E+04  0.14250395672E+04  0.00000000000E+00 0.  1.
         23    2    1    2    0    0 -0.91307908325E+03 -0.39278278855E+03  0.63889157271E+03  0.11850931466E+04  0.90948299938E+02 0.  0.
        254    2    1    2    0    0  0.91307908325E+03  0.39278278855E+03 -0.76204942605E+03  0.15418281344E+04  0.89917903500E+03 0.  0.
        -24    2    4    4    0    0  0.62587918975E+03 -0.21177650585E+03 -0.39755000515E+03  0.77537807803E+03  0.81185643471E+02 0.  0.
         24    2    4    4    0    0  0.28719989350E+03  0.60455929441E+03 -0.36449942089E+03  0.76645005635E+03  0.81302778349E+02 0.  0.
         11    1    3    3    0    0 -0.42316431965E+03 -0.13693964103E+03  0.26343887048E+03  0.51693379188E+03  0.00000000000E+00 0. -1.
        -11    1    3    3    0    0 -0.48991476360E+03 -0.25584314752E+03  0.37545270224E+03  0.66815935475E+03  0.00000000000E+00 0.  1.
          2    1    6    6  502    0 -0.55847393813E+01  0.13077079899E+02 -0.87391876898E+01  0.16690498319E+02  0.00000000000E+00 0. -1.
          3    1    5    5  503    0  0.33031235916E+03 -0.76875896690E+02 -0.23044981491E+03  0.41002838352E+03  0.00000000000E+00 0. -1.
         -4    1    5    5    0  503  0.29556683059E+03 -0.13490060916E+03 -0.16710019025E+03  0.36534969451E+03  0.00000000000E+00 0.  1.
         -1    1    6    6    0  502  0.29278463288E+03  0.59148221451E+03 -0.35576023320E+03  0.74975955803E+03  0.00000000000E+00 0.  1.
<mgrwt>
<rscale>  0 0.27241387E+04</rscale>
<asrwt>0</asrwt>
<pdfrwt beam="1">  1        2 0.20028949E+00 0.27241387E+04</pdfrwt>
<pdfrwt beam="2">  1       -2 0.21923686E+00 0.27241387E+04</pdfrwt>
<totfact> 0.14429973E+00</totfact>
</mgrwt>
</event>
<event>
12    1  0.1960998E-007  0.2099885E+04  0.7818608E-02  0.8561294E-01
         -2   -1    0    0    0  501 -0.00000000000E+00  0.00000000000E+00  0.89046296118E+03  0.89046296118E+03  0.00000000000E+00 0.  1.
          2   -1    0    0  501    0  0.00000000000E+00 -0.00000000000E+00 -0.12379845864E+04  0.12379845864E+04  0.00000000000E+00 0. -1.
         23    2    1    2    0    0 -0.75717725377E+02  0.23222861623E+03  0.68613243745E+03  0.73396274835E+03  0.90886138136E+02 0.  0.
        254    2    1    2    0    0  0.75717725377E+02 -0.23222861623E+03 -0.10336540626E+04  0.13944847992E+04  0.90359494789E+03 0.  0.
        -24    2    4    4    0    0 -0.33197670835E+03 -0.61144039751E+02 -0.83339914950E+03  0.90251213847E+03  0.77633041917E+02 0.  0.
         24    2    4    4    0    0  0.40769443373E+03 -0.17108457647E+03 -0.20025491312E+03  0.49197266073E+03  0.80314289335E+02 0.  0.
         13    1    3    3    0    0 -0.76955737702E+02  0.20653439953E+03  0.50485871329E+03  0.55087291106E+03  0.00000000000E+00 0. -1.
        -13    1    3    3    0    0  0.12380123251E+01  0.25694216696E+02  0.18127372416E+03  0.18308983728E+03  0.00000000000E+00 0.  1.
          2    1    6    6  502    0  0.12166414180E+03 -0.77637400980E+02 -0.34338876761E+02  0.14835392778E+03  0.00000000000E+00 0. -1.
          1    1    5    5  503    0 -0.11373889793E+03  0.14333624025E+02 -0.30624004159E+03  0.32699381149E+03  0.00000000000E+00 0. -1.
         -2    1    5    5    0  503 -0.21823781042E+03 -0.75477663777E+02 -0.52715910792E+03  0.57551832698E+03  0.00000000000E+00 0.  1.
         -1    1    6    6    0  502  0.28603029193E+03 -0.93447175494E+02 -0.16591603636E+03  0.34361873295E+03  0.00000000000E+00 0.  1.
<mgrwt>
<rscale>  0 0.20998852E+04</rscale>
<asrwt>0</asrwt>
<pdfrwt beam="1">  1        2 0.19045917E+00 0.20998852E+04</pdfrwt>
<pdfrwt beam="2">  1       -2 0.13699430E+00 0.20998852E+04</pdfrwt>
<totfact> 0.62963553E+00</totfact>
</mgrwt>
</event>
<event>
12    1  0.1960998E-007  0.1559228E+04  0.7818608E-02  0.8845995E-01
          2   -1    0    0  501    0  0.00000000000E+00  0.00000000000E+00  0.68882109960E+03  0.68882109960E+03  0.00000000000E+00 0. -1.
         -2   -1    0    0    0  501 -0.00000000000E+00 -0.00000000000E+00 -0.88237426691E+03  0.88237426691E+03  0.00000000000E+00 0.  1.
         23    2    1    2    0    0 -0.41877762116E+03 -0.20450323789E+03 -0.28603730239E+03  0.55413814559E+03  0.89752302149E+02 0.  0.
        254    2    1    2    0    0  0.41877762116E+03  0.20450323789E+03  0.92484135088E+02  0.10170572209E+04  0.89925291499E+03 0.  0.
        -24    2    4    4    0    0  0.45545206484E+01  0.54357714046E+02  0.43967174179E+03  0.45024262505E+03  0.80197731544E+02 0.  0.
         24    2    4    4    0    0  0.41422310051E+03  0.15014552385E+03 -0.34718760671E+03  0.56681459588E+03  0.81333243674E+02 0.  0.
         13    1    3    3    0    0 -0.72743295903E+02 -0.27596904345E+02 -0.12278337933E+02  0.78765054502E+02  0.00000000000E+00 0. -1.
        -13    1    3    3    0    0 -0.34603432525E+03 -0.17690633355E+03 -0.27375896446E+03  0.47537309108E+03  0.00000000000E+00 0.  1.
          4    1    6    6  502    0  0.37221340356E+03  0.12800811545E+03 -0.27406153194E+03  0.47962341341E+03  0.00000000000E+00 0. -1.
          3    1    5    5  503    0  0.34293742426E+02  0.37646163724E+02  0.35987285705E+03  0.36345806863E+03  0.00000000000E+00 0. -1.
         -4    1    5    5    0  503 -0.29739221778E+02  0.16711550322E+02  0.79798884742E+02  0.86784556416E+02  0.00000000000E+00 0.  1.
         -3    1    6    6    0  502  0.42009696951E+02  0.22137408400E+02 -0.73126074769E+02  0.87191182466E+02  0.00000000000E+00 0.  1.
<mgrwt>
<rscale>  0 0.15592280E+04</rscale>
<asrwt>0</asrwt>
<pdfrwt beam="1">  1        2 0.10597248E+00 0.15592280E+04</pdfrwt>
<pdfrwt beam="2">  1       -2 0.13574989E+00 0.15592280E+04</pdfrwt>
<totfact> 0.15638962E+01</totfact>
</mgrwt>
</event>
<event>
12    1  0.1960998E-007  0.1573206E+04  0.7818608E-02  0.8837180E-01
          2   -1    0    0  501    0  0.00000000000E+00  0.00000000000E+00  0.38680236975E+04  0.38680236975E+04  0.00000000000E+00 0. -1.
         -2   -1    0    0    0  501 -0.00000000000E+00 -0.00000000000E+00 -0.15996397338E+03  0.15996397338E+03  0.00000000000E+00 0.  1.
         23    2    1    2    0    0 -0.40678493262E+03  0.31837114371E+03  0.10283023019E+04  0.11541653457E+04  0.88644540362E+02 0.  0.
        254    2    1    2    0    0  0.40678493262E+03 -0.31837114371E+03  0.26797574222E+04  0.28738223252E+04  0.90051138159E+03 0.  0.
        -24    2    4    4    0    0  0.48955848408E+03  0.95164077267E+02  0.20519753560E+04  0.21132345753E+04  0.80210956958E+02 0.  0.
         24    2    4    4    0    0 -0.82773551464E+02 -0.41353522097E+03  0.62778206624E+03  0.76058774994E+03  0.80750002205E+02 0.  0.
         13    1    3    3    0    0 -0.13169379877E+03  0.15553842152E+03  0.37288139047E+03  0.42494233557E+03  0.00000000000E+00 0. -1.
        -13    1    3    3    0    0 -0.27509113385E+03  0.16283272219E+03  0.65542091144E+03  0.72922301013E+03  0.00000000000E+00 0.  1.
          4    1    6    6  502    0 -0.94529570978E+02 -0.40162499205E+03  0.60067539095E+03  0.72873136294E+03  0.00000000000E+00 0. -1.
          1    1    5    5  503    0  0.44980175130E+03  0.81544755518E+02  0.17668481836E+04  0.18250270317E+04  0.00000000000E+00 0. -1.
         -4    1    5    5    0  503  0.39756732781E+02  0.13619321749E+02  0.28512717242E+03  0.28820754358E+03  0.00000000000E+00 0.  1.
         -1    1    6    6    0  502  0.11756019514E+02 -0.11910228924E+02  0.27106675283E+02  0.31856387001E+02  0.00000000000E+00 0.  1.
<mgrwt>
<rscale>  0 0.15732062E+04</rscale>
<asrwt>0</asrwt>
<pdfrwt beam="1">  1        2 0.59508050E+00 0.15732062E+04</pdfrwt>
<pdfrwt beam="2">  1       -2 0.24609845E-01 0.15732062E+04</pdfrwt>
<totfact> 0.62913244E+00</totfact>
</mgrwt>
</event>
<event>
12    1  0.1960998E-007  0.1454786E+04  0.7818608E-02  0.8915089E-01
         -1   -1    0    0    0  501 -0.00000000000E+00  0.00000000000E+00  0.76468192298E+03  0.76468192298E+03  0.00000000000E+00 0.  1.
          1   -1    0    0  501    0  0.00000000000E+00 -0.00000000000E+00 -0.69192272629E+03  0.69192272629E+03  0.00000000000E+00 0. -1.
         23    2    1    2    0    0 -0.36440893567E+03 -0.17474961642E+03  0.20474107752E+03  0.46199675624E+03  0.90503000593E+02 0.  0.
        254    2    1    2    0    0  0.36440893567E+03  0.17474961642E+03 -0.13198188083E+03  0.99460789303E+03  0.89916313491E+03 0.  0.
        -24    2    4    4    0    0 -0.32262760732E+02 -0.32866900505E+03 -0.53235724643E+02  0.34376449826E+03  0.79219866694E+02 0.  0.
         24    2    4    4    0    0  0.39667169640E+03  0.50341862147E+03 -0.78746156183E+02  0.65084339477E+03  0.81347552102E+02 0.  0.
         11    1    3    3    0    0  0.17639421686E+01 -0.13628880593E+02  0.10418886008E+02  0.17245609988E+02  0.00000000000E+00 0. -1.
        -11    1    3    3    0    0 -0.36617287784E+03 -0.16112073583E+03  0.19432219151E+03  0.44475114625E+03  0.00000000000E+00 0.  1.
          2    1    6    6  502    0  0.27763885761E+03  0.40357048540E+03 -0.73982713659E+02  0.49540479797E+03  0.00000000000E+00 0. -1.
          3    1    5    5  503    0  0.75141422343E+01 -0.15579719140E+01 -0.81154238889E+01  0.11169141189E+02  0.00000000000E+00 0. -1.
         -4    1    5    5    0  503 -0.39776902966E+02 -0.32711103313E+03 -0.45120300754E+02  0.33259535707E+03  0.00000000000E+00 0.  1.
         -1    1    6    6    0  502  0.11903283879E+03  0.99848136073E+02 -0.47634425245E+01  0.15543859679E+03  0.00000000000E+00 0.  1.
<mgrwt>
<rscale>  0 0.14547863E+04</rscale>
<asrwt>0</asrwt>
<pdfrwt beam="1">  1        1 0.10644965E+00 0.14547863E+04</pdfrwt>
<pdfrwt beam="2">  1       -1 0.11764337E+00 0.14547863E+04</pdfrwt>
<totfact> 0.17499097E+01</totfact>
</mgrwt>
</event>
<event>
12    1  0.1960998E-007  0.3637907E+04  0.7818608E-02  0.8081864E-01
          2   -1    0    0  501    0  0.00000000000E+00  0.00000000000E+00  0.35353214522E+04  0.35353214522E+04  0.00000000000E+00 0. -1.
         -2   -1    0    0    0  501 -0.00000000000E+00 -0.00000000000E+00 -0.93586709498E+03  0.93586709498E+03  0.00000000000E+00 0.  1.
         23    2    1    2    0    0 -0.13963363061E+04  0.82095542539E+03  0.55644274882E+03  0.17151502796E+04  0.91591803587E+02 0.  0.
        254    2    1    2    0    0  0.13963363061E+04 -0.82095542539E+03  0.20430116084E+04  0.27560382676E+04  0.89337988014E+03 0.  0.
        -24    2    4    4    0    0  0.14903985067E+04 -0.84571337830E+03  0.18268847773E+04  0.25060491633E+04  0.79092302753E+02 0.  0.
         24    2    4    4    0    0 -0.94062200540E+02  0.24757952912E+02  0.21612683105E+03  0.24998910430E+03  0.79517868213E+02 0.  0.
         13    1    3    3    0    0 -0.12058330965E+04  0.74208238507E+03  0.49683519602E+03  0.15005215543E+04  0.00000000000E+00 0.  1.
        -13    1    3    3    0    0 -0.19050320960E+03  0.78873040314E+02  0.59607552801E+02  0.21462872526E+03  0.00000000000E+00 0. -1.
          4    1    6    6  502    0 -0.53655230768E+02  0.25426573441E+02  0.19608989842E+03  0.20488202139E+03  0.00000000000E+00 0. -1.
          3    1    5    5  503    0  0.12645770869E+04 -0.69944800764E+03  0.15040319506E+04  0.20857839851E+04  0.00000000000E+00 0. -1.
         -4    1    5    5    0  503  0.22582141978E+03 -0.14626537066E+03  0.32285282672E+03  0.42026517819E+03  0.00000000000E+00 0.  1.
         -3    1    6    6    0  502 -0.40406969773E+02 -0.66862052909E+00  0.20036932635E+02  0.45107082915E+02  0.00000000000E+00 0.  1.
<mgrwt>
<rscale>  0 0.36379066E+04</rscale>
<asrwt>0</asrwt>
<pdfrwt beam="1">  1        2 0.54389560E+00 0.36379066E+04</pdfrwt>
<pdfrwt beam="2">  1       -2 0.14397956E+00 0.36379066E+04</pdfrwt>
<totfact> 0.20786016E-01</totfact>
</mgrwt>
</event>
<event>
12    1  0.2519183E-007  0.1880045E+04  0.7818608E-02  0.8664853E-01
          2   -1    0    0  501    0  0.00000000000E+00  0.00000000000E+00  0.15559653708E+04  0.15559653708E+04  0.00000000000E+00 0. -1.
         -2   -1    0    0    0  501 -0.00000000000E+00 -0.00000000000E+00 -0.56790617358E+03  0.56790617358E+03  0.00000000000E+00 0.  1.
         23    2    1    2    0    0 -0.20752848296E+03  0.56045896094E+03  0.83296050754E+03  0.10291346863E+04  0.90070401972E+02 0.  0.
        254    2    1    2    0    0  0.20752848296E+03 -0.56045896094E+03  0.15509868969E+03  0.10947368581E+04  0.90399716081E+03 0.  0.
        -24    2    4    4    0    0  0.87175731585E+02  0.12931315475E+03 -0.23191704138E+03  0.29076886851E+03  0.80246623893E+02 0.  0.
         24    2    4    4    0    0  0.12035275138E+03 -0.68977211570E+03  0.38701573107E+03  0.80396798956E+03  0.79454362946E+02 0.  0.
         11    1    3    3    0    0 -0.16661267739E+03  0.34662340227E+03  0.57220447971E+03  0.68943856425E+03  0.00000000000E+00 0. -1.
        -11    1    3    3    0    0 -0.40915805569E+02  0.21383555867E+03  0.26075602783E+03  0.33969612207E+03  0.00000000000E+00 0.  1.
          4    1    6    6  502    0  0.18533342054E+02 -0.47709264795E+02  0.90072624268E+01  0.51969120556E+02  0.00000000000E+00 0. -1.
          1    1    5    5  503    0  0.77392837270E+00 -0.10711109870E+02 -0.11829815840E+02  0.15977214481E+02  0.00000000000E+00 0. -1.
         -2    1    5    5    0  503  0.86401803212E+02  0.14002426462E+03 -0.22008722554E+03  0.27479165403E+03  0.00000000000E+00 0.  1.
         -1    1    6    6    0  502  0.10181940932E+03 -0.64206285090E+03  0.37800846864E+03  0.75199886901E+03  0.00000000000E+00 0.  1.
<mgrwt>
<rscale>  0 0.18800450E+04</rscale>
<asrwt>0</asrwt>
<pdfrwt beam="1">  1        2 0.23937929E+00 0.18800450E+04</pdfrwt>
<pdfrwt beam="2">  1       -2 0.87370181E-01 0.18800450E+04</pdfrwt>
<totfact> 0.12529379E+01</totfact>
</mgrwt>
</event>
<event>
12    1  0.1960998E-007  0.1312370E+04  0.7818608E-02  0.9019812E-01
         -2   -1    0    0    0  501 -0.00000000000E+00  0.00000000000E+00  0.41898805259E+03  0.41898805259E+03  0.00000000000E+00 0.  1.
          2   -1    0    0  501    0  0.00000000000E+00 -0.00000000000E+00 -0.10276642951E+04  0.10276642951E+04  0.00000000000E+00 0. -1.
         23    2    1    2    0    0 -0.20479727637E+03  0.26724592070E+03 -0.12720142284E+03  0.37092060671E+03  0.89663749489E+02 0.  0.
        254    2    1    2    0    0  0.20479727637E+03 -0.26724592070E+03 -0.48147481967E+03  0.10757317410E+04  0.90112067451E+03 0.  0.
        -24    2    4    4    0    0 -0.20185687859E+03 -0.43460918948E+03 -0.38149649724E+03  0.61772072451E+03  0.80049791191E+02 0.  0.
         24    2    4    4    0    0  0.40665415496E+03  0.16736326878E+03 -0.99978322430E+02  0.45801101646E+03  0.80002254708E+02 0.  0.
         13    1    3    3    0    0  0.43824097397E+01  0.23578565334E+01  0.62357250248E+01  0.79780492066E+01  0.00000000000E+00 0. -1.
        -13    1    3    3    0    0 -0.20917968611E+03  0.26488806417E+03 -0.13343714786E+03  0.36294255751E+03  0.00000000000E+00 0.  1.
          4    1    6    6  502    0  0.39897608874E+02  0.22062567457E+02 -0.36593807374E+02  0.58460951196E+02  0.00000000000E+00 0. -1.
          1    1    5    5  503    0 -0.65150855924E+02 -0.18386784313E+03 -0.11138274625E+03  0.22462888044E+03  0.00000000000E+00 0. -1.
         -2    1    5    5    0  503 -0.13670602267E+03 -0.25074134635E+03 -0.27011375099E+03  0.39309184408E+03  0.00000000000E+00 0.  1.
         -3    1    6    6    0  502  0.36675654609E+03  0.14530070133E+03 -0.63384515056E+02  0.39955006527E+03  0.00000000000E+00 0.  1.
<mgrwt>
<rscale>  0 0.13123705E+04</rscale>
<asrwt>0</asrwt>
<pdfrwt beam="1">  1        2 0.15810220E+00 0.13123705E+04</pdfrwt>
<pdfrwt beam="2">  1       -2 0.64459701E-01 0.13123705E+04</pdfrwt>
<totfact> 0.52649200E+01</totfact>
</mgrwt>
</event>
<event>
12    1  0.1960998E-007  0.1095245E+04  0.7818608E-02  0.9209839E-01
         -2   -1    0    0    0  501 -0.00000000000E+00  0.00000000000E+00  0.84360685310E+02  0.84360685310E+02  0.00000000000E+00 0.  1.
          2   -1    0    0  501    0  0.00000000000E+00 -0.00000000000E+00 -0.35548594277E+04  0.35548594277E+04  0.00000000000E+00 0. -1.
         23    2    1    2    0    0 -0.52644509773E+02  0.12747383095E+03 -0.47269416159E+03  0.50654689528E+03  0.11886532181E+03 0.  0.
        254    2    1    2    0    0  0.52644509773E+02 -0.12747383095E+03 -0.29978045808E+04  0.31326732178E+04  0.89877036135E+03 0.  0.
        -24    2    4    4    0    0 -0.23644681289E+03  0.23369999835E+03 -0.61191333177E+03  0.70103477834E+03  0.80554641667E+02 0.  0.
         24    2    4    4    0    0  0.28909132267E+03 -0.36117382930E+03 -0.23858912491E+04  0.24316384394E+04  0.79800500507E+02 0.  0.
         11    1    3    3    0    0 -0.85766771616E+02  0.73363261886E+02 -0.23761270608E+03  0.26305494749E+03  0.00000000000E+00 0.  1.
        -11    1    3    3    0    0  0.33122261843E+02  0.54110569065E+02 -0.23508145551E+03  0.24349194779E+03  0.00000000000E+00 0. -1.
          4    1    6    6  502    0  0.47459335141E+02 -0.70736673645E+02 -0.30236095438E+03  0.31413088391E+03  0.00000000000E+00 0. -1.
          1    1    5    5  503    0 -0.93680207638E+02  0.80640003205E+02 -0.30933732042E+03  0.33311915169E+03  0.00000000000E+00 0. -1.
         -2    1    5    5    0  503 -0.14276660525E+03  0.15305999515E+03 -0.30257601135E+03  0.36791562665E+03  0.00000000000E+00 0.  1.
         -3    1    6    6    0  502  0.24163198752E+03 -0.29043715566E+03 -0.20835302947E+04  0.21175075555E+04  0.00000000000E+00 0.  1.
<mgrwt>
<rscale>  0 0.10952450E+04</rscale>
<asrwt>0</asrwt>
<pdfrwt beam="1">  1        2 0.54690137E+00 0.10952450E+04</pdfrwt>
<pdfrwt beam="2">  1       -2 0.12978569E-01 0.10952450E+04</pdfrwt>
<totfact> 0.34215031E+01</totfact>
</mgrwt>
</event>
<event>
12    1  0.1960998E-007  0.3549383E+04  0.7818608E-02  0.8102185E-01
         -2   -1    0    0    0  501 -0.00000000000E+00  0.00000000000E+00  0.26754937390E+04  0.26754937390E+04  0.00000000000E+00 0.  1.
          2   -1    0    0  501    0  0.00000000000E+00 -0.00000000000E+00 -0.11771772274E+04  0.11771772274E+04  0.00000000000E+00 0. -1.
         23    2    1    2    0    0  0.15338808150E+04  0.30334636248E+03  0.13042848377E+04  0.20384136603E+04  0.95718035337E+02 0.  0.
        254    2    1    2    0    0 -0.15338808150E+04 -0.30334636248E+03  0.19403167389E+03  0.18142573062E+04  0.89948424789E+03 0.  0.
        -24    2    4    4    0    0 -0.15325191073E+04 -0.93326919041E+02  0.32443682908E+02  0.15377384204E+04  0.79133613708E+02 0.  0.
         24    2    4    4    0    0 -0.13617076698E+01 -0.21001944344E+03  0.16158799098E+03  0.27651888577E+03  0.79006293970E+02 0.  0.
         13    1    3    3    0    0  0.11444136121E+04  0.19296146863E+03  0.10005935847E+04  0.15323524940E+04  0.00000000000E+00 0. -1.
        -13    1    3    3    0    0  0.38946720287E+03  0.11038489385E+03  0.30369125296E+03  0.50606116629E+03  0.00000000000E+00 0.  1.
          2    1    6    6  502    0 -0.19184382913E+02 -0.47208153997E+02  0.76590347632E+02  0.91993106817E+02  0.00000000000E+00 0. -1.
          1    1    5    5  503    0 -0.29523383979E+03 -0.35930882944E+02 -0.19341802704E+02  0.29804052382E+03  0.00000000000E+00 0. -1.
         -2    1    5    5    0  503 -0.12372852676E+04 -0.57396036097E+02  0.51785485612E+02  0.12396978966E+04  0.00000000000E+00 0.  1.
         -1    1    6    6    0  502  0.17822675243E+02 -0.16281128944E+03  0.84997643351E+02  0.18452577895E+03  0.00000000000E+00 0.  1.
<mgrwt>
<rscale>  0 0.35493832E+04</rscale>
<asrwt>0</asrwt>
<pdfrwt beam="1">  1        2 0.18110419E+00 0.35493832E+04</pdfrwt>
<pdfrwt beam="2">  1       -2 0.41161442E+00 0.35493832E+04</pdfrwt>
<totfact> 0.99541181E-02</totfact>
</mgrwt>
</event>
<event>
12    1  0.1960998E-007  0.4746141E+04  0.7818608E-02  0.7868907E-01
          2   -1    0    0  501    0  0.00000000000E+00  0.00000000000E+00  0.33347924348E+04  0.33347924348E+04  0.00000000000E+00 0. -1.
         -2   -1    0    0    0  501 -0.00000000000E+00 -0.00000000000E+00 -0.16886995782E+04  0.16886995782E+04  0.00000000000E+00 0.  1.
         23    2    1    2    0    0 -0.15495836964E+04 -0.16616346048E+04  0.54601197472E+03  0.23385176650E+04  0.91085679125E+02 0.  0.
        254    2    1    2    0    0  0.15495836964E+04  0.16616346048E+04  0.11000808819E+04  0.26849743479E+04  0.91469673120E+03 0.  0.
        -24    2    4    4    0    0 -0.90262645168E+02  0.18595818507E+03  0.20852842003E+03  0.30426892666E+03  0.79797782313E+02 0.  0.
         24    2    4    4    0    0  0.16398463416E+04  0.14756764198E+04  0.89155246185E+03  0.23807054213E+04  0.78584926590E+02 0.  0.
         11    1    3    3    0    0 -0.32002273702E+03 -0.39703731066E+03  0.13236483923E+03  0.52685256849E+03  0.00000000000E+00 0. -1.
        -11    1    3    3    0    0 -0.12295609594E+04 -0.12645972942E+04  0.41364713549E+03  0.18116650966E+04  0.00000000000E+00 0.  1.
          2    1    6    6  502    0  0.53931084852E+03  0.48113873047E+03  0.33191738615E+03  0.79531114698E+03  0.00000000000E+00 0. -1.
          1    1    5    5  503    0 -0.57050899148E+02  0.15288458138E+03  0.11493778359E+03  0.19959758118E+03  0.00000000000E+00 0. -1.
         -2    1    5    5    0  503 -0.33211746020E+02  0.33073603696E+02  0.93590636439E+02  0.10467134548E+03  0.00000000000E+00 0.  1.
         -1    1    6    6    0  502  0.11005354931E+04  0.99453768930E+03  0.55963507570E+03  0.15853942743E+04  0.00000000000E+00 0.  1.
<mgrwt>
<rscale>  0 0.47461406E+04</rscale>
<asrwt>0</asrwt>
<pdfrwt beam="1">  1        2 0.51304499E+00 0.47461406E+04</pdfrwt>
<pdfrwt beam="2">  1       -2 0.25979994E+00 0.47461406E+04</pdfrwt>
<totfact> 0.43813136E-02</totfact>
</mgrwt>
</event>
<event>
12    1  0.1960998E-007  0.3102813E+04  0.7818608E-02  0.8214966E-01
          2   -1    0    0  501    0  0.00000000000E+00  0.00000000000E+00  0.30644170477E+04  0.30644170477E+04  0.00000000000E+00 0.  1.
         -2   -1    0    0    0  501 -0.00000000000E+00 -0.00000000000E+00 -0.78542254776E+03  0.78542254776E+03  0.00000000000E+00 0. -1.
         23    2    1    2    0    0  0.37321452860E+03  0.98416247127E+03 -0.13507228918E+03  0.10651622729E+04  0.91985271097E+02 0.  0.
        254    2    1    2    0    0 -0.37321452860E+03 -0.98416247127E+03  0.24140667892E+04  0.27846773226E+04  0.90490025656E+03 0.  0.
        -24    2    4    4    0    0 -0.61331205064E+03 -0.85556258462E+03  0.15513469939E+04  0.18764202861E+04  0.78336370583E+02 0.  0.
         24    2    4    4    0    0  0.24009752204E+03 -0.12859988664E+03  0.86271979525E+03  0.90825703650E+03  0.80378158078E+02 0.  0.
         11    1    3    3    0    0  0.29412393417E+03  0.69369976630E+03 -0.12635098021E+03  0.76399792187E+03  0.00000000000E+00 0. -1.
        -11    1    3    3    0    0  0.79090594433E+02  0.29046270496E+03 -0.87213089661E+01  0.30116435103E+03  0.00000000000E+00 0.  1.
          4    1    6    6  502    0  0.19837855585E+03 -0.10729372706E+03  0.59184133044E+03  0.63335784175E+03  0.00000000000E+00 0. -1.
          3    1    5    5  503    0 -0.52767664558E+03 -0.69168013572E+03  0.13048342565E+04  0.15682654397E+04  0.00000000000E+00 0. -1.
         -4    1    5    5    0  503 -0.85635405062E+02 -0.16388244890E+03  0.24651273738E+03  0.30815484638E+03  0.00000000000E+00 0.  1.
         -3    1    6    6    0  502  0.41718966194E+02 -0.21306159586E+02  0.27087846481E+03  0.27489919475E+03  0.00000000000E+00 0.  1.
<mgrwt>
<rscale>  0 0.31028131E+04</rscale>
<asrwt>0</asrwt>
<pdfrwt beam="1">  1        2 0.47144877E+00 0.31028131E+04</pdfrwt>
<pdfrwt beam="2">  1       -2 0.12083424E+00 0.31028131E+04</pdfrwt>
<totfact> 0.70191045E-01</totfact>
</mgrwt>
</event>
<event>
12    1  0.1960998E-007  0.1662018E+04  0.7818608E-02  0.8783328E-01
         -2   -1    0    0    0  501 -0.00000000000E+00  0.00000000000E+00  0.82028481095E+03  0.82028481095E+03  0.00000000000E+00 0.  1.
          2   -1    0    0  501    0  0.00000000000E+00 -0.00000000000E+00 -0.84187367242E+03  0.84187367242E+03  0.00000000000E+00 0. -1.
         23    2    1    2    0    0  0.55464723395E+03 -0.89548754693E+02 -0.15816252780E+03  0.59071147868E+03  0.90951263014E+02 0.  0.
        254    2    1    2    0    0 -0.55464723395E+03  0.89548754693E+02  0.13657366633E+03  0.10714470047E+04  0.90204976798E+03 0.  0.
        -24    2    4    4    0    0 -0.61550592074E+03 -0.13317298470E+03  0.36852874014E+03  0.73405412119E+03  0.80246110203E+02 0.  0.
         24    2    4    4    0    0  0.60858686790E+02  0.22272173940E+03 -0.23195507381E+03  0.33739288350E+03  0.81988100420E+02 0.  0.
         13    1    3    3    0    0  0.91409196350E+01 -0.16313312142E+02 -0.39029972449E+01  0.19102721071E+02  0.00000000000E+00 0.  1.
        -13    1    3    3    0    0  0.54550631432E+03 -0.73235442551E+02 -0.15425953055E+03  0.57160875760E+03  0.00000000000E+00 0. -1.
          4    1    6    6  502    0  0.54056641457E+01  0.16049244684E+00 -0.33966995782E+02  0.34394821778E+02  0.00000000000E+00 0. -1.
          1    1    5    5  503    0 -0.15008707399E+03 -0.80477294491E+01  0.11665156952E+03  0.19025899295E+03  0.00000000000E+00 0. -1.
         -2    1    5    5    0  503 -0.46541884675E+03 -0.12512525526E+03  0.25187717062E+03  0.54379512824E+03  0.00000000000E+00 0.  1.
         -3    1    6    6    0  502  0.55453022645E+02  0.22256124695E+03 -0.19798807803E+03  0.30299806172E+03  0.00000000000E+00 0.  1.
<mgrwt>
<rscale>  0 0.16620183E+04</rscale>
<asrwt>0</asrwt>
<pdfrwt beam="1">  1        2 0.12951903E+00 0.16620183E+04</pdfrwt>
<pdfrwt beam="2">  1       -2 0.12619766E+00 0.16620183E+04</pdfrwt>
<totfact> 0.14365236E+01</totfact>
</mgrwt>
</event>
<event>
12    1  0.1960998E-007  0.1572263E+04  0.7818608E-02  0.8837772E-01
         -2   -1    0    0    0  501 -0.00000000000E+00  0.00000000000E+00  0.98632870714E+03  0.98632870714E+03  0.00000000000E+00 0.  1.
          2   -1    0    0  501    0  0.00000000000E+00 -0.00000000000E+00 -0.62656841865E+03  0.62656841865E+03  0.00000000000E+00 0. -1.
         23    2    1    2    0    0 -0.18160327960E+03 -0.47538134682E+03  0.24583898446E+03  0.57338401927E+03  0.96774228000E+02 0.  0.
        254    2    1    2    0    0  0.18160327960E+03  0.47538134682E+03  0.11392130403E+03  0.10395131065E+04  0.89924538310E+03 0.  0.
        -24    2    4    4    0    0  0.46240364568E+03  0.29490246877E+03  0.31875326151E+03  0.63940260635E+03  0.80296037600E+02 0.  0.
         24    2    4    4    0    0 -0.28080036608E+03  0.18047887806E+03 -0.20483195748E+03  0.40011050017E+03  0.81919536902E+02 0.  0.
         13    1    3    3    0    0 -0.13284706898E+03 -0.40859925992E+03  0.23575877853E+03  0.49008560538E+03  0.00000000000E+00 0.  1.
        -13    1    3    3    0    0 -0.48756210616E+02 -0.66782086900E+02  0.10080205921E+02  0.83298413885E+02  0.00000000000E+00 0. -1.
          4    1    6    6  502    0 -0.13734851417E+03  0.42251263492E+02 -0.99305741846E+02  0.17467516702E+03  0.00000000000E+00 0. -1.
          1    1    5    5  503    0  0.10156395346E+03  0.10518915794E+03  0.94883138070E+02  0.17430664210E+03  0.00000000000E+00 0. -1.
         -2    1    5    5    0  503  0.36083969222E+03  0.18971331083E+03  0.22387012344E+03  0.46509596425E+03  0.00000000000E+00 0.  1.
         -3    1    6    6    0  502 -0.14345185191E+03  0.13822761457E+03 -0.10552621563E+03  0.22543533315E+03  0.00000000000E+00 0.  1.
<mgrwt>
<rscale>  0 0.15722626E+04</rscale>
<asrwt>0</asrwt>
<pdfrwt beam="1">  1        2 0.96395142E-01 0.15722626E+04</pdfrwt>
<pdfrwt beam="2">  1       -2 0.15174288E+00 0.15722626E+04</pdfrwt>
<totfact> 0.13126109E+01</totfact>
</mgrwt>
</event>
<event>
12    1  0.1960998E-007  0.1632410E+04  0.7818608E-02  0.8800881E-01
         -2   -1    0    0    0  501 -0.00000000000E+00  0.00000000000E+00  0.21735050377E+03  0.21735050377E+03  0.00000000000E+00 0.  1.
          2   -1    0    0  501    0  0.00000000000E+00 -0.00000000000E+00 -0.30650535806E+04  0.30650535806E+04  0.00000000000E+00 0. -1.
         23    2    1    2    0    0 -0.16275230179E+03  0.85400905805E+02  0.74485016496E+02  0.21744559738E+03  0.89179278358E+02 0.  0.
        254    2    1    2    0    0  0.16275230179E+03 -0.85400905805E+02 -0.29221880933E+04  0.30649584870E+04  0.90609361977E+03 0.  0.
        -24    2    4    4    0    0  0.47821337733E+03 -0.26268898333E+03 -0.16295178785E+04  0.17202603401E+04  0.79205966228E+02 0.  0.
         24    2    4    4    0    0 -0.31546107554E+03  0.17728807752E+03 -0.12926702148E+04  0.13446981469E+04  0.79183769820E+02 0.  0.
         13    1    3    3    0    0  0.69968714926E+01 -0.69345969941E+01 -0.11820260088E+01  0.99217957871E+01  0.00000000000E+00 0. -1.
        -13    1    3    3    0    0 -0.16974917328E+03  0.92335502799E+02  0.75667042505E+02  0.20752380160E+03  0.00000000000E+00 0.  1.
          2    1    6    6  502    0 -0.18135384821E+03  0.75363117027E+02 -0.81043482079E+03  0.83389053024E+03  0.00000000000E+00 0. -1.
          3    1    5    5  503    0  0.18858483555E+03 -0.60281720948E+02 -0.58361717529E+03  0.61628494495E+03  0.00000000000E+00 0. -1.
         -4    1    5    5    0  503  0.28962854178E+03 -0.20240726238E+03 -0.10459007033E+04  0.11039753952E+04  0.00000000000E+00 0.  1.
         -1    1    6    6    0  502 -0.13410722733E+03  0.10192496050E+03 -0.48223539401E+03  0.51080761665E+03  0.00000000000E+00 0.  1.
<mgrwt>
<rscale>  0 0.16324104E+04</rscale>
<asrwt>0</asrwt>
<pdfrwt beam="1">  1        2 0.47154663E+00 0.16324104E+04</pdfrwt>
<pdfrwt beam="2">  1       -2 0.33438544E-01 0.16324104E+04</pdfrwt>
<totfact> 0.12743118E+01</totfact>
</mgrwt>
</event>
<event>
12    1  0.1960998E-007  0.1694951E+04  0.7818608E-02  0.8764249E-01
         -2   -1    0    0    0  501 -0.00000000000E+00  0.00000000000E+00  0.18287168578E+03  0.18287168578E+03  0.00000000000E+00 0.  1.
          2   -1    0    0  501    0  0.00000000000E+00 -0.00000000000E+00 -0.39274249774E+04  0.39274249774E+04  0.00000000000E+00 0. -1.
         23    2    1    2    0    0 -0.47073543417E+03 -0.10378529703E+03 -0.46680885392E+03  0.67652944170E+03  0.86129800415E+02 0.  0.
        254    2    1    2    0    0  0.47073543417E+03  0.10378529703E+03 -0.32777444377E+04  0.34337672215E+04  0.90265469349E+03 0.  0.
        -24    2    4    4    0    0 -0.87403361472E+02  0.54478383633E+02 -0.24684154471E+02  0.13185478313E+03  0.78543837899E+02 0.  0.
         24    2    4    4    0    0  0.55813879564E+03  0.49306913397E+02 -0.32530602832E+04  0.33019124383E+04  0.79211472767E+02 0.  0.
         11    1    3    3    0    0 -0.21282386146E+03 -0.46016189800E+02 -0.15234139263E+03  0.26574308201E+03  0.00000000000E+00 0.  1.
        -11    1    3    3    0    0 -0.25791157271E+03 -0.57769107230E+02 -0.31446746130E+03  0.41078635968E+03  0.00000000000E+00 0. -1.
          2    1    6    6  502    0  0.19534094666E+03  0.52216461386E+02 -0.12535917071E+04  0.12697940039E+04  0.00000000000E+00 0. -1.
          1    1    5    5  503    0 -0.47728178692E+02  0.45005656481E+02  0.22621115534E+02  0.69391663941E+02  0.00000000000E+00 0. -1.
         -2    1    5    5    0  503 -0.39675182780E+02  0.94727271517E+01 -0.47305270004E+02  0.62463119187E+02  0.00000000000E+00 0.  1.
         -1    1    6    6    0  502  0.36279784898E+03 -0.29095479892E+01 -0.19994685761E+04  0.20321184344E+04  0.00000000000E+00 0.  1.
<mgrwt>
<rscale>  0 0.16949511E+04</rscale>
<asrwt>0</asrwt>
<pdfrwt beam="1">  1        2 0.60421917E+00 0.16949511E+04</pdfrwt>
<pdfrwt beam="2">  1       -2 0.28134108E-01 0.16949511E+04</pdfrwt>
<totfact> 0.43721308E+00</totfact>
</mgrwt>
</event>
<event>
12    1  0.1960998E-007  0.1903270E+04  0.7818608E-02  0.8653231E-01
         -2   -1    0    0    0  501 -0.00000000000E+00  0.00000000000E+00  0.29869165910E+03  0.29869165910E+03  0.00000000000E+00 0.  1.
          2   -1    0    0  501    0  0.00000000000E+00 -0.00000000000E+00 -0.30319191820E+04  0.30319191820E+04  0.00000000000E+00 0. -1.
         23    2    1    2    0    0  0.60326846705E+03 -0.39874769349E+03 -0.87975687079E+03  0.11424935700E+04  0.91579689218E+02 0.  0.
        254    2    1    2    0    0 -0.60326846705E+03  0.39874769349E+03 -0.18534706521E+04  0.21881172711E+04  0.91080797498E+03 0.  0.
        -24    2    4    4    0    0 -0.25402430374E+03  0.36774169197E+03 -0.20032695696E+03  0.49635746276E+03  0.80483179948E+02 0.  0.
         24    2    4    4    0    0 -0.34924416331E+03  0.31006001523E+02 -0.16531436952E+04  0.16917598083E+04  0.78957674784E+02 0.  0.
         11    1    3    3    0    0  0.46486106435E+03 -0.25862095765E+03 -0.64162181066E+03  0.83346215079E+03  0.00000000000E+00 0. -1.
        -11    1    3    3    0    0  0.13840740270E+03 -0.14012673584E+03 -0.23813506013E+03  0.30903141925E+03  0.00000000000E+00 0.  1.
          2    1    6    6  502    0 -0.21194791230E+03 -0.18524052560E+02 -0.10312113702E+04  0.10529301725E+04  0.00000000000E+00 0. -1.
          1    1    5    5  503    0 -0.24990898748E+03  0.33432126413E+03 -0.19961165189E+03  0.46267701612E+03  0.00000000000E+00 0. -1.
         -2    1    5    5    0  503 -0.41153162599E+01  0.33420427836E+02 -0.71530506157E+00  0.33680446642E+02  0.00000000000E+00 0.  1.
         -3    1    6    6    0  502 -0.13729625100E+03  0.49530054083E+02 -0.62193232495E+03  0.63882963583E+03  0.00000000000E+00 0.  1.
<mgrwt>
<rscale>  0 0.19032698E+04</rscale>
<asrwt>0</asrwt>
<pdfrwt beam="1">  1        2 0.46644913E+00 0.19032698E+04</pdfrwt>
<pdfrwt beam="2">  1       -2 0.45952561E-01 0.19032698E+04</pdfrwt>
<totfact> 0.70123519E+00</totfact>
</mgrwt>
</event>
<event>
12    1  0.1960998E-007  0.2055327E+04  0.7818608E-02  0.8581182E-01
          1   -1    0    0  501    0  0.00000000000E+00  0.00000000000E+00  0.60610443990E+03  0.60610443990E+03  0.00000000000E+00 0. -1.
         -1   -1    0    0    0  501 -0.00000000000E+00 -0.00000000000E+00 -0.17424264850E+04  0.17424264850E+04  0.00000000000E+00 0.  1.
         23    2    1    2    0    0 -0.51183484486E+03 -0.62162937976E+03 -0.24153005064E+03  0.84557965093E+03  0.90940565836E+02 0.  0.
        254    2    1    2    0    0  0.51183484486E+03  0.62162937976E+03 -0.89479199446E+03  0.15029512740E+04  0.89989545193E+03 0.  0.
        -24    2    4    4    0    0  0.99036127853E+00  0.35131223964E+03  0.77747590950E+02  0.36881963540E+03  0.81005956725E+02 0.  0.
         24    2    4    4    0    0  0.51084448358E+03  0.27031714013E+03 -0.97253958541E+03  0.11341316386E+04  0.79924250249E+02 0.  0.
         13    1    3    3    0    0 -0.18627113854E+03 -0.22083156178E+03 -0.41681090483E+02  0.29189181050E+03  0.00000000000E+00 0. -1.
        -13    1    3    3    0    0 -0.32556370632E+03 -0.40079781798E+03 -0.19984896015E+03  0.55368784044E+03  0.00000000000E+00 0.  1.
          2    1    6    6  502    0  0.14764620949E+03  0.12046480886E+03 -0.31950619366E+03  0.37201529691E+03  0.00000000000E+00 0. -1.
          3    1    5    5  503    0  0.21547251115E+02  0.65698171813E+02  0.40299023056E+02  0.80028401642E+02  0.00000000000E+00 0. -1.
         -4    1    5    5    0  503 -0.20556889837E+02  0.28561406782E+03  0.37448567894E+02  0.28879123376E+03  0.00000000000E+00 0.  1.
         -1    1    6    6    0  502  0.36319827409E+03  0.14985233127E+03 -0.65303339175E+03  0.76211634166E+03  0.00000000000E+00 0.  1.
<mgrwt>
<rscale>  0 0.20553272E+04</rscale>
<asrwt>0</asrwt>
<pdfrwt beam="1">  1        1 0.93246839E-01 0.20553272E+04</pdfrwt>
<pdfrwt beam="2">  1       -1 0.26806561E+00 0.20553272E+04</pdfrwt>
<totfact> 0.16573802E+00</totfact>
</mgrwt>
</event>
<event>
12    1  0.1960998E-007  0.1695268E+04  0.7818608E-02  0.8764068E-01
         -2   -1    0    0    0  501 -0.00000000000E+00  0.00000000000E+00  0.31380065338E+03  0.31380065338E+03  0.00000000000E+00 0.  1.
          2   -1    0    0  501    0  0.00000000000E+00 -0.00000000000E+00 -0.22896183693E+04  0.22896183693E+04  0.00000000000E+00 0. -1.
         23    2    1    2    0    0 -0.23737232819E+03  0.48631603559E+03 -0.11245480940E+04  0.12515575906E+04  0.94546699545E+02 0.  0.
        254    2    1    2    0    0  0.23737232819E+03 -0.48631603559E+03 -0.85126962193E+03  0.13518614320E+04  0.90001136297E+03 0.  0.
        -24    2    4    4    0    0 -0.16989643999E+03 -0.34641079443E+03  0.51488488087E+00  0.39399335788E+03  0.79782592906E+02 0.  0.
         24    2    4    4    0    0  0.40726876818E+03 -0.13990524116E+03 -0.85178450682E+03  0.95786807413E+03  0.80827441807E+02 0.  0.
         11    1    3    3    0    0 -0.73396756374E+02  0.21149502388E+03 -0.55149276005E+03  0.59519870074E+03  0.00000000000E+00 0. -1.
        -11    1    3    3    0    0 -0.16397557181E+03  0.27482101172E+03 -0.57305533391E+03  0.65635888991E+03  0.00000000000E+00 0.  1.
          2    1    6    6  502    0  0.38807037038E+03 -0.12960412174E+03 -0.75573409921E+03  0.85937760585E+03  0.00000000000E+00 0. -1.
          3    1    5    5  503    0 -0.51083473761E+02 -0.55611408677E+02 -0.23114021809E+02  0.78970931808E+02  0.00000000000E+00 0. -1.
         -4    1    5    5    0  503 -0.11881296623E+03 -0.29079938575E+03  0.23628906690E+02  0.31502242607E+03  0.00000000000E+00 0.  1.
         -1    1    6    6    0  502  0.19198397794E+02 -0.10301119426E+02 -0.96050407610E+02  0.98490468277E+02  0.00000000000E+00 0.  1.
<mgrwt>
<rscale>  0 0.16952684E+04</rscale>
<asrwt>0</asrwt>
<pdfrwt beam="1">  1        2 0.35224899E+00 0.16952684E+04</pdfrwt>
<pdfrwt beam="2">  1       -2 0.48277023E-01 0.16952684E+04</pdfrwt>
<totfact> 0.17793758E+01</totfact>
</mgrwt>
</event>
<event>
12    1  0.1960998E-007  0.1988716E+04  0.7818608E-02  0.8611914E-01
          1   -1    0    0  501    0  0.00000000000E+00  0.00000000000E+00  0.68613006695E+03  0.68613006695E+03  0.00000000000E+00 0. -1.
         -1   -1    0    0    0  501 -0.00000000000E+00 -0.00000000000E+00 -0.14410507785E+04  0.14410507785E+04  0.00000000000E+00 0.  1.
         23    2    1    2    0    0  0.34786973822E+02  0.77781644039E+03 -0.46384550625E+03  0.91089080155E+03  0.91437684743E+02 0.  0.
        254    2    1    2    0    0 -0.34786973822E+02 -0.77781644039E+03 -0.29107520531E+03  0.12162900439E+04  0.88793476522E+03 0.  0.
        -24    2    4    4    0    0  0.40226927694E+03 -0.24144734667E+03 -0.46662574741E+02  0.47816557562E+03  0.79671384097E+02 0.  0.
         24    2    4    4    0    0 -0.43705625076E+03 -0.53636909373E+03 -0.24441263057E+03  0.73812446830E+03  0.79876314939E+02 0.  0.
         13    1    3    3    0    0 -0.30125929319E+02  0.33957780093E+03 -0.19909655928E+03  0.39479120357E+03  0.00000000000E+00 0. -1.
        -13    1    3    3    0    0  0.64912903141E+02  0.43823863946E+03 -0.26474894697E+03  0.51609959798E+03  0.00000000000E+00 0.  1.
          2    1    6    6  502    0 -0.39211084032E+03 -0.44057267061E+03 -0.22032261293E+03  0.62960086003E+03  0.00000000000E+00 0. -1.
          3    1    5    5  503    0  0.26972536558E+03 -0.12290054014E+03 -0.98367662202E+01  0.29656884121E+03  0.00000000000E+00 0. -1.
         -4    1    5    5    0  503  0.13254391135E+03 -0.11854680653E+03 -0.36825808521E+02  0.18159673441E+03  0.00000000000E+00 0.  1.
         -1    1    6    6    0  502 -0.44945410436E+02 -0.95796423119E+02 -0.24090017645E+02  0.10852360827E+03  0.00000000000E+00 0.  1.
<mgrwt>
<rscale>  0 0.19887164E+04</rscale>
<asrwt>0</asrwt>
<pdfrwt beam="1">  1        1 0.10555847E+00 0.19887164E+04</pdfrwt>
<pdfrwt beam="2">  1       -1 0.22170012E+00 0.19887164E+04</pdfrwt>
<totfact> 0.27952220E+00</totfact>
</mgrwt>
</event>
<event>
12    1  0.1960998E-007  0.3318828E+04  0.7818608E-02  0.8158121E-01
         -1   -1    0    0    0  501 -0.00000000000E+00  0.00000000000E+00  0.10339457032E+04  0.10339457032E+04  0.00000000000E+00 0.  1.
          1   -1    0    0  501    0  0.00000000000E+00 -0.00000000000E+00 -0.26632487050E+04  0.26632487050E+04  0.00000000000E+00 0. -1.
         23    2    1    2    0    0 -0.14951080539E+04 -0.13171304070E+03 -0.43204557081E+03  0.15645046152E+04  0.91186060381E+02 0.  0.
        254    2    1    2    0    0  0.14951080539E+04  0.13171304070E+03 -0.11972574310E+04  0.21326897931E+04  0.92857093399E+03 0.  0.
        -24    2    4    4    0    0  0.86413937318E+03  0.47160966749E+03 -0.95015887776E+03  0.13704776403E+04  0.79085617773E+02 0.  0.
         24    2    4    4    0    0  0.63096868074E+03 -0.33989662678E+03 -0.24709855323E+03  0.76221215274E+03  0.79110541628E+02 0.  0.
         13    1    3    3    0    0 -0.11188936518E+03  0.14120448334E+02 -0.33357593390E+02  0.11760674359E+03  0.00000000000E+00 0.  1.
        -13    1    3    3    0    0 -0.13832186887E+04 -0.14583348904E+03 -0.39868797742E+03  0.14468978716E+04  0.00000000000E+00 0. -1.
          4    1    6    6  502    0  0.16790704219E+03 -0.61475623912E+02 -0.37712479308E+02  0.18274095941E+03  0.00000000000E+00 0. -1.
          1    1    5    5  503    0  0.27603045949E+03  0.16696060400E+03 -0.35963531844E+03  0.48312133064E+03  0.00000000000E+00 0. -1.
         -2    1    5    5    0  503  0.58810891368E+03  0.30464906348E+03 -0.59052355932E+03  0.88735630969E+03  0.00000000000E+00 0.  1.
         -3    1    6    6    0  502  0.46306163855E+03 -0.27842100287E+03 -0.20938607393E+03  0.57947119333E+03  0.00000000000E+00 0.  1.
<mgrwt>
<rscale>  0 0.33188278E+04</rscale>
<asrwt>0</asrwt>
<pdfrwt beam="1">  1        1 0.40973057E+00 0.33188278E+04</pdfrwt>
<pdfrwt beam="2">  1       -1 0.15906857E+00 0.33188278E+04</pdfrwt>
<totfact> 0.25619661E-01</totfact>
</mgrwt>
</event>
<event>
12    1  0.1960998E-007  0.1371597E+04  0.7818608E-02  0.8974638E-01
          2   -1    0    0  501    0  0.00000000000E+00  0.00000000000E+00  0.26414547143E+04  0.26414547143E+04  0.00000000000E+00 0. -1.
         -2   -1    0    0    0  501 -0.00000000000E+00 -0.00000000000E+00 -0.17805332158E+03  0.17805332158E+03  0.00000000000E+00 0.  1.
         23    2    1    2    0    0  0.94880596339E+01  0.34692974571E+03  0.36120729015E+03  0.50709318332E+03  0.78882940936E+02 0.  0.
        254    2    1    2    0    0 -0.94880596339E+01 -0.34692974571E+03  0.21021941026E+04  0.23124148526E+04  0.89866130094E+03 0.  0.
        -24    2    4    4    0    0 -0.12653522523E+03 -0.25333089353E+03  0.21219276648E+04  0.21421547809E+04  0.77861324191E+02 0.  0.
         24    2    4    4    0    0  0.11704716559E+03 -0.93598852182E+02 -0.19733562214E+02  0.17026007170E+03  0.78347268204E+02 0.  0.
         11    1    3    3    0    0 -0.13293363155E+02  0.76427147882E+02  0.12571261061E+03  0.14772096298E+03  0.00000000000E+00 0. -1.
        -11    1    3    3    0    0  0.22781422789E+02  0.27050259783E+03  0.23549467955E+03  0.35937222034E+03  0.00000000000E+00 0.  1.
          4    1    6    6  502    0  0.27450131127E+02 -0.32080330986E+02  0.28926878201E+02  0.51180285438E+02  0.00000000000E+00 0. -1.
          3    1    5    5  503    0 -0.85031072715E+02 -0.11330392563E+03  0.12603405365E+04  0.12682769141E+04  0.00000000000E+00 0. -1.
         -4    1    5    5    0  503 -0.41504152512E+02 -0.14002696790E+03  0.86158712835E+03  0.87387786684E+03  0.00000000000E+00 0.  1.
         -3    1    6    6    0  502  0.89597034466E+02 -0.61518521196E+02 -0.48660440415E+02  0.11907978626E+03  0.00000000000E+00 0.  1.
<mgrwt>
<rscale>  0 0.13715973E+04</rscale>
<asrwt>0</asrwt>
<pdfrwt beam="1">  1        2 0.40637762E+00 0.13715973E+04</pdfrwt>
<pdfrwt beam="2">  1       -2 0.27392821E-01 0.13715973E+04</pdfrwt>
<totfact> 0.34238074E+01</totfact>
</mgrwt>
</event>
<event>
12    1  0.1960998E-007  0.1667807E+04  0.7818608E-02  0.8779941E-01
         -1   -1    0    0    0  501 -0.00000000000E+00  0.00000000000E+00  0.10403275178E+04  0.10403275178E+04  0.00000000000E+00 0.  1.
          1   -1    0    0  501    0  0.00000000000E+00 -0.00000000000E+00 -0.66843833994E+03  0.66843833994E+03  0.00000000000E+00 0. -1.
         23    2    1    2    0    0 -0.40846431021E+03 -0.38804536879E+03  0.30146789284E+03  0.64527047164E+03  0.89826444949E+02 0.  0.
        254    2    1    2    0    0  0.40846431021E+03  0.38804536879E+03  0.70421285035E+02  0.10634953861E+04  0.89924467078E+03 0.  0.
        -24    2    4    4    0    0  0.30238780450E+02 -0.11266674183E+03 -0.29922469921E+03  0.33094847998E+03  0.79895539461E+02 0.  0.
         24    2    4    4    0    0  0.37822552976E+03  0.50071211062E+03  0.36964598425E+03  0.73254690612E+03  0.78864738134E+02 0.  0.
         11    1    3    3    0    0 -0.25197763489E+03 -0.18319336651E+03  0.14406539787E+03  0.34323079244E+03  0.00000000000E+00 0.  1.
        -11    1    3    3    0    0 -0.15648667532E+03 -0.20485200228E+03  0.15740249497E+03  0.30203967920E+03  0.00000000000E+00 0. -1.
          4    1    6    6  502    0  0.12969351372E+01 -0.24882736887E+01 -0.65790103146E+00  0.28820791917E+01  0.00000000000E+00 0. -1.
          3    1    5    5  503    0 -0.15606114705E+02 -0.34711584160E+02 -0.35111561338E+02  0.51780948530E+02  0.00000000000E+00 0. -1.
         -4    1    5    5    0  503  0.45844895155E+02 -0.77955157671E+02 -0.26411313787E+03  0.27916753145E+03  0.00000000000E+00 0.  1.
         -3    1    6    6    0  502  0.37692859462E+03  0.50320038431E+03  0.37030388528E+03  0.72966482693E+03  0.00000000000E+00 0.  1.
<mgrwt>
<rscale>  0 0.16678067E+04</rscale>
<asrwt>0</asrwt>
<pdfrwt beam="1">  1        1 0.10283667E+00 0.16678067E+04</pdfrwt>
<pdfrwt beam="2">  1       -1 0.16005039E+00 0.16678067E+04</pdfrwt>
<totfact> 0.81383748E+00</totfact>
</mgrwt>
</event>
<event>
12    1  0.1960998E-007  0.1945210E+04  0.7818608E-02  0.8632674E-01
         -2   -1    0    0    0  501 -0.00000000000E+00  0.00000000000E+00  0.15173215064E+04  0.15173215064E+04  0.00000000000E+00 0. -1.
          2   -1    0    0  501    0  0.00000000000E+00 -0.00000000000E+00 -0.62344123782E+03  0.62344123782E+03  0.00000000000E+00 0.  1.
         23    2    1    2    0    0  0.24394228206E+03 -0.70181513302E+03  0.53546291928E+03  0.92034713033E+03  0.90917459604E+02 0.  0.
        254    2    1    2    0    0 -0.24394228206E+03  0.70181513302E+03  0.35841734925E+03  0.12204156139E+04  0.89938810109E+03 0.  0.
        -24    2    4    4    0    0 -0.41659274764E+03  0.16119607611E+03 -0.12482538295E+03  0.47079583100E+03  0.80830971301E+02 0.  0.
         24    2    4    4    0    0  0.17265046558E+03  0.54061905691E+03  0.48324273220E+03  0.74961978285E+03  0.79555846136E+02 0.  0.
         13    1    3    3    0    0  0.21268777543E+03 -0.49886079629E+03  0.40813115017E+03  0.67872617427E+03  0.00000000000E+00 0. -1.
        -13    1    3    3    0    0  0.31254506621E+02 -0.20295433673E+03  0.12733176911E+03  0.24162095606E+03  0.00000000000E+00 0.  1.
          2    1    6    6  502    0  0.82087410136E+02  0.34805263602E+03  0.33733346990E+03  0.49160232939E+03  0.00000000000E+00 0. -1.
          3    1    5    5  503    0 -0.31599502919E+03  0.13315077703E+03 -0.12877982357E+03  0.36628708803E+03  0.00000000000E+00 0. -1.
         -4    1    5    5    0  503 -0.10059771845E+03  0.28045299074E+02  0.39544406184E+01  0.10450874297E+03  0.00000000000E+00 0.  1.
         -1    1    6    6    0  502  0.90563055448E+02  0.19256642090E+03  0.14590926230E+03  0.25801745347E+03  0.00000000000E+00 0.  1.
<mgrwt>
<rscale>  0 0.19452103E+04</rscale>
<asrwt>0</asrwt>
<pdfrwt beam="1">  1        2 0.95914037E-01 0.19452103E+04</pdfrwt>
<pdfrwt beam="2">  1       -2 0.23343408E+00 0.19452103E+04</pdfrwt>
<totfact> 0.35927972E+00</totfact>
</mgrwt>
</event>
<event>
12    1  0.1960998E-007  0.1369621E+04  0.7818608E-02  0.8976107E-01
          2   -1    0    0  501    0  0.00000000000E+00  0.00000000000E+00  0.91084714767E+03  0.91084714767E+03  0.00000000000E+00 0. -1.
         -2   -1    0    0    0  501 -0.00000000000E+00 -0.00000000000E+00 -0.51486708955E+03  0.51486708955E+03  0.00000000000E+00 0.  1.
         23    2    1    2    0    0  0.13588182278E+03 -0.14872313033E+03 -0.22847632955E+03  0.31460088783E+03  0.78675575639E+02 0.  0.
        254    2    1    2    0    0 -0.13588182278E+03  0.14872313033E+03  0.62445638767E+03  0.11111133494E+04  0.89668537171E+03 0.  0.
        -24    2    4    4    0    0 -0.36982844947E+03  0.32728462074E+03  0.63225599706E+03  0.80608910619E+03  0.78381734384E+02 0.  0.
         24    2    4    4    0    0  0.23394662669E+03 -0.17856149041E+03 -0.77996093970E+01  0.30502424320E+03  0.79772959275E+02 0.  0.
         11    1    3    3    0    0  0.11912415993E+03 -0.15740061489E+03 -0.20881779646E+03  0.28735064149E+03  0.00000000000E+00 0.  1.
        -11    1    3    3    0    0  0.16757662849E+02  0.86774845572E+01 -0.19658533083E+02  0.27250246336E+02  0.00000000000E+00 0. -1.
          2    1    6    6  502    0  0.20734560654E+03 -0.11751599348E+03 -0.66387757274E+01  0.23842458476E+03  0.00000000000E+00 0. -1.
          1    1    5    5  503    0 -0.25787657543E+03  0.17876037008E+03  0.40954759834E+03  0.51593103548E+03  0.00000000000E+00 0. -1.
         -2    1    5    5    0  503 -0.11195187404E+03  0.14852425067E+03  0.22270839873E+03  0.29015807071E+03  0.00000000000E+00 0.  1.
         -1    1    6    6    0  502  0.26601020153E+02 -0.61045496934E+02 -0.11608336696E+01  0.66599658437E+02  0.00000000000E+00 0.  1.
<mgrwt>
<rscale>  0 0.13696207E+04</rscale>
<asrwt>0</asrwt>
<pdfrwt beam="1">  1        2 0.14013033E+00 0.13696207E+04</pdfrwt>
<pdfrwt beam="2">  1       -2 0.79210322E-01 0.13696207E+04</pdfrwt>
<totfact> 0.39763301E+01</totfact>
</mgrwt>
</event>
<event>
12    1  0.1960998E-007  0.1973613E+04  0.7818608E-02  0.8619058E-01
         -1   -1    0    0    0  501 -0.00000000000E+00  0.00000000000E+00  0.37045698823E+03  0.37045698823E+03  0.00000000000E+00 0.  1.
          1   -1    0    0  501    0  0.00000000000E+00 -0.00000000000E+00 -0.26286095989E+04  0.26286095989E+04  0.00000000000E+00 0. -1.
         23    2    1    2    0    0 -0.62627870790E+03  0.33400028779E+03 -0.13827216901E+04  0.15569136708E+04  0.90992822059E+02 0.  0.
        254    2    1    2    0    0  0.62627870790E+03 -0.33400028779E+03 -0.87543092051E+03  0.14421529163E+04  0.89980249236E+03 0.  0.
        -24    2    4    4    0    0  0.72032118356E+03 -0.33052754635E+03 -0.99195493309E+03  0.12721929777E+04  0.79933203009E+02 0.  0.
         24    2    4    4    0    0 -0.94042475658E+02 -0.34727414358E+01  0.11652401258E+03  0.16995993858E+03  0.80327380479E+02 0.  0.
         13    1    3    3    0    0 -0.30185705173E+03  0.11378676218E+03 -0.66295615172E+03  0.73727604466E+03  0.00000000000E+00 0.  1.
        -13    1    3    3    0    0 -0.32442165617E+03  0.22021352561E+03 -0.71976553841E+03  0.81963762611E+03  0.00000000000E+00 0. -1.
          2    1    6    6  502    0 -0.14795187969E+02  0.11318525714E+01 -0.11874367330E+02  0.19004717224E+02  0.00000000000E+00 0. -1.
          3    1    5    5  503    0  0.54746508169E+02 -0.36974025400E+02 -0.54723964725E+02  0.85784445130E+02  0.00000000000E+00 0. -1.
         -4    1    5    5    0  503  0.66557467539E+03 -0.29355352095E+03 -0.93723096837E+03  0.11864085326E+04  0.00000000000E+00 0.  1.
         -3    1    6    6    0  502 -0.79247287690E+02 -0.46045940072E+01  0.12839837991E+03  0.15095522136E+03  0.00000000000E+00 0.  1.
<mgrwt>
<rscale>  0 0.19736127E+04</rscale>
<asrwt>0</asrwt>
<pdfrwt beam="1">  1        1 0.40440148E+00 0.19736127E+04</pdfrwt>
<pdfrwt beam="2">  1       -1 0.56993382E-01 0.19736127E+04</pdfrwt>
<totfact> 0.31956058E+00</totfact>
</mgrwt>
</event>
<event>
12    1  0.1960998E-007  0.1899574E+04  0.7818608E-02  0.8655068E-01
          1   -1    0    0  501    0  0.00000000000E+00  0.00000000000E+00  0.27327079005E+04  0.27327079005E+04  0.00000000000E+00 0. -1.
         -1   -1    0    0    0  501 -0.00000000000E+00 -0.00000000000E+00 -0.33011043507E+03  0.33011043507E+03  0.00000000000E+00 0.  1.
         23    2    1    2    0    0 -0.12291620321E+03 -0.59708741575E+03  0.15888348578E+04  0.17043324923E+04  0.93441232466E+02 0.  0.
        254    2    1    2    0    0  0.12291620321E+03  0.59708741575E+03  0.81376260769E+03  0.13584858433E+04  0.90091754881E+03 0.  0.
        -24    2    4    4    0    0  0.19131153172E+03 -0.68997656622E+02 -0.85168537832E+02  0.23475252292E+03  0.80587147821E+02 0.  0.
         24    2    4    4    0    0 -0.68395328510E+02  0.66608507237E+03  0.89893114552E+03  0.11237333204E+04  0.79700228195E+02 0.  0.
         13    1    3    3    0    0 -0.51540089604E+02 -0.11410354637E+03  0.25818619429E+03  0.28694269646E+03  0.00000000000E+00 0.  1.
        -13    1    3    3    0    0 -0.71376113605E+02 -0.48298386937E+03  0.13306486635E+04  0.14173897958E+04  0.00000000000E+00 0. -1.
          4    1    6    6  502    0 -0.35921673594E+02  0.18484081111E+03  0.30726903574E+03  0.36037584881E+03  0.00000000000E+00 0. -1.
          3    1    5    5  503    0  0.17141737458E+03 -0.85049520345E+02 -0.84495156412E+02  0.20918118624E+03  0.00000000000E+00 0. -1.
         -4    1    5    5    0  503  0.19894157137E+02  0.16051863723E+02 -0.67338141938E+00  0.25571336682E+02  0.00000000000E+00 0.  1.
         -3    1    6    6    0  502 -0.32473654916E+02  0.48124426126E+03  0.59166210978E+03  0.76335747158E+03  0.00000000000E+00 0.  1.
<mgrwt>
<rscale>  0 0.18995741E+04</rscale>
<asrwt>0</asrwt>
<pdfrwt beam="1">  1        1 0.42041659E+00 0.18995741E+04</pdfrwt>
<pdfrwt beam="2">  1       -1 0.50786223E-01 0.18995741E+04</pdfrwt>
<totfact> 0.33966603E+00</totfact>
</mgrwt>
</event>
<event>
12    1  0.1960998E-007  0.3260404E+04  0.7818608E-02  0.8173044E-01
          2   -1    0    0  501    0  0.00000000000E+00  0.00000000000E+00  0.24013303443E+04  0.24013303443E+04  0.00000000000E+00 0. -1.
         -2   -1    0    0    0  501 -0.00000000000E+00 -0.00000000000E+00 -0.11067028323E+04  0.11067028323E+04  0.00000000000E+00 0.  1.
         23    2    1    2    0    0  0.43511993621E+03  0.10771528081E+04 -0.43070030096E+03  0.12423945470E+04  0.91945257090E+02 0.  0.
        254    2    1    2    0    0 -0.43511993621E+03 -0.10771528081E+04  0.17253278130E+04  0.22656386296E+04  0.89820643897E+03 0.  0.
        -24    2    4    4    0    0 -0.36641204692E+03 -0.22246622852E+03  0.13384269007E+03  0.45606887845E+03  0.79598651033E+02 0.  0.
         24    2    4    4    0    0 -0.68707889290E+02 -0.85468657954E+03  0.15914851229E+04  0.18095697512E+04  0.80671337057E+02 0.  0.
         11    1    3    3    0    0  0.40995940901E+03  0.98638733630E+03 -0.41922956961E+03  0.11475104036E+04  0.00000000000E+00 0.  1.
        -11    1    3    3    0    0  0.25160527198E+02  0.90765471764E+02 -0.11470731349E+02  0.94884143413E+02  0.00000000000E+00 0. -1.
          4    1    6    6  502    0  0.13833288055E+02 -0.29773409648E+03  0.53545742792E+03  0.61282265721E+03  0.00000000000E+00 0. -1.
          1    1    5    5  503    0 -0.18812429916E+03 -0.10090306393E+03  0.26679215943E+02  0.21513707446E+03  0.00000000000E+00 0. -1.
         -2    1    5    5    0  503 -0.17828774776E+03 -0.12156316459E+03  0.10716347412E+03  0.24093180399E+03  0.00000000000E+00 0.  1.
         -3    1    6    6    0  502 -0.82541177345E+02 -0.55695248305E+03  0.10560276950E+04  0.11967470940E+04  0.00000000000E+00 0.  1.
<mgrwt>
<rscale>  0 0.32604043E+04</rscale>
<asrwt>0</asrwt>
<pdfrwt beam="1">  1        2 0.36943544E+00 0.32604043E+04</pdfrwt>
<pdfrwt beam="2">  1       -2 0.17026197E+00 0.32604043E+04</pdfrwt>
<totfact> 0.70560664E-01</totfact>
</mgrwt>
</event>
<event>
12    1  0.1960998E-007  0.2273246E+04  0.7818608E-02  0.8488545E-01
          1   -1    0    0  501    0  0.00000000000E+00  0.00000000000E+00  0.13190762861E+04  0.13190762861E+04  0.00000000000E+00 0. -1.
         -1   -1    0    0    0  501 -0.00000000000E+00 -0.00000000000E+00 -0.97940616545E+03  0.97940616545E+03  0.00000000000E+00 0.  1.
         23    2    1    2    0    0  0.23165069095E+03  0.69580575266E+03  0.75988427616E+03  0.10609678424E+04  0.10208310987E+03 0.  0.
        254    2    1    2    0    0 -0.23165069095E+03 -0.69580575266E+03 -0.42021415550E+03  0.12375146092E+04  0.90391082716E+03 0.  0.
        -24    2    4    4    0    0 -0.12172042807E+03 -0.82142356593E+03 -0.56175109539E+03  0.10056529799E+04  0.78873858737E+02 0.  0.
         24    2    4    4    0    0 -0.10993026288E+03  0.12561781327E+03  0.14153693989E+03  0.23186162927E+03  0.76567695970E+02 0.  0.
         11    1    3    3    0    0  0.58256890696E+02  0.16577109531E+03  0.12328813198E+03  0.21464828171E+03  0.00000000000E+00 0.  1.
        -11    1    3    3    0    0  0.17339380026E+03  0.53003465735E+03  0.63659614418E+03  0.84631956065E+03  0.00000000000E+00 0. -1.
          4    1    6    6  502    0  0.91932121127E+01  0.14078051698E+02  0.29359091511E+02  0.33832867790E+02  0.00000000000E+00 0. -1.
          1    1    5    5  503    0 -0.53583322546E+01 -0.10315818566E+02 -0.20667686358E+02  0.23712467114E+02  0.00000000000E+00 0. -1.
         -2    1    5    5    0  503 -0.11636209582E+03 -0.81110774737E+03 -0.54108340904E+03  0.98194051282E+03  0.00000000000E+00 0.  1.
         -3    1    6    6    0  502 -0.11912347499E+03  0.11153976158E+03  0.11217784838E+03  0.19802876148E+03  0.00000000000E+00 0.  1.
<mgrwt>
<rscale>  0 0.22732457E+04</rscale>
<asrwt>0</asrwt>
<pdfrwt beam="1">  1        1 0.20293481E+00 0.22732457E+04</pdfrwt>
<pdfrwt beam="2">  1       -1 0.15067787E+00 0.22732457E+04</pdfrwt>
<totfact> 0.27375775E+00</totfact>
</mgrwt>
</event>
<event>
12    1  0.1960998E-007  0.2680986E+04  0.7818608E-02  0.8341201E-01
          1   -1    0    0  501    0  0.00000000000E+00  0.00000000000E+00  0.95717226881E+03  0.95717226881E+03  0.00000000000E+00 0. -1.
         -1   -1    0    0    0  501 -0.00000000000E+00 -0.00000000000E+00 -0.18773225329E+04  0.18773225329E+04  0.00000000000E+00 0.  1.
         23    2    1    2    0    0  0.62102003244E+03 -0.98546163969E+03 -0.16186752282E+03  0.11795321970E+04  0.91074610962E+02 0.  0.
        254    2    1    2    0    0 -0.62102003244E+03  0.98546163969E+03 -0.75828274123E+03  0.16549626047E+04  0.89839188739E+03 0.  0.
        -24    2    4    4    0    0  0.77641239740E+02  0.56040044950E+03 -0.58074704500E+03  0.81430794378E+03  0.75851638930E+02 0.  0.
         24    2    4    4    0    0 -0.69866127218E+03  0.42506119019E+03 -0.17753569623E+03  0.84065466092E+03  0.79854535466E+02 0.  0.
         13    1    3    3    0    0  0.20065892911E+03 -0.40147156646E+03 -0.61302022961E+02  0.45299157004E+03  0.00000000000E+00 0. -1.
        -13    1    3    3    0    0  0.42036110333E+03 -0.58399007322E+03 -0.10056549986E+03  0.72654062693E+03  0.00000000000E+00 0.  1.
          4    1    6    6  502    0 -0.68940464811E+03  0.42636171813E+03 -0.18122475789E+03  0.83060549986E+03  0.00000000000E+00 0. -1.
          3    1    5    5  503    0  0.24092378895E+02  0.90894840495E+02 -0.62206567911E+02  0.11274738064E+03  0.00000000000E+00 0. -1.
         -4    1    5    5    0  503  0.53548860845E+02  0.46950560900E+03 -0.51854047709E+03  0.70156056314E+03  0.00000000000E+00 0.  1.
         -3    1    6    6    0  502 -0.92566240696E+01 -0.13005279350E+01  0.36890616607E+01  0.10049161060E+02  0.00000000000E+00 0.  1.
<mgrwt>
<rscale>  0 0.26809857E+04</rscale>
<asrwt>0</asrwt>
<pdfrwt beam="1">  1        1 0.14725727E+00 0.26809857E+04</pdfrwt>
<pdfrwt beam="2">  1       -1 0.28881885E+00 0.26809857E+04</pdfrwt>
<totfact> 0.55821868E-01</totfact>
</mgrwt>
</event>
<event>
12    1  0.1960998E-007  0.3851783E+04  0.7818608E-02  0.8035133E-01
          1   -1    0    0  501    0  0.00000000000E+00  0.00000000000E+00  0.18398479169E+04  0.18398479169E+04  0.00000000000E+00 0. -1.
         -1   -1    0    0    0  501 -0.00000000000E+00 -0.00000000000E+00 -0.20159588594E+04  0.20159588594E+04  0.00000000000E+00 0.  1.
         23    2    1    2    0    0  0.78686947761E+03 -0.22176592228E+03  0.15437750213E+04  0.17492338878E+04  0.90742375095E+02 0.  0.
        254    2    1    2    0    0 -0.78686947761E+03  0.22176592228E+03 -0.17198859638E+04  0.21065728885E+04  0.90072077075E+03 0.  0.
        -24    2    4    4    0    0  0.65027334238E+02 -0.34869557913E+02 -0.85940993292E+03  0.86625055676E+03  0.79750573719E+02 0.  0.
         24    2    4    4    0    0 -0.85189681185E+03  0.25663548020E+03 -0.86047603088E+03  0.12403223317E+04  0.79940847431E+02 0.  0.
         11    1    3    3    0    0  0.49187082604E+02 -0.22006416745E+02  0.15442540544E+03  0.16355689322E+03  0.00000000000E+00 0. -1.
        -11    1    3    3    0    0  0.73768239501E+03 -0.19975950554E+03  0.13893496159E+04  0.15856769945E+04  0.00000000000E+00 0.  1.
          4    1    6    6  502    0 -0.20532402019E+03  0.36564000803E+02 -0.16935796470E+03  0.26865777418E+03  0.00000000000E+00 0. -1.
          1    1    5    5  503    0 -0.51498952343E+01  0.11786699669E+02 -0.32347211249E+03  0.32372774868E+03  0.00000000000E+00 0. -1.
         -2    1    5    5    0  503  0.70177229472E+02 -0.46656257583E+02 -0.53593782043E+03  0.54252280807E+03  0.00000000000E+00 0.  1.
         -3    1    6    6    0  502 -0.64657279167E+03  0.22007147939E+03 -0.69111806618E+03  0.97166455753E+03  0.00000000000E+00 0.  1.
<mgrwt>
<rscale>  0 0.38517828E+04</rscale>
<asrwt>0</asrwt>
<pdfrwt beam="1">  1        1 0.28305353E+00 0.38517828E+04</pdfrwt>
<pdfrwt beam="2">  1       -1 0.31014751E+00 0.38517828E+04</pdfrwt>
<totfact> 0.86033851E-02</totfact>
</mgrwt>
</event>
<event>
12    1  0.1960998E-007  0.2372047E+04  0.7818608E-02  0.8450044E-01
          1   -1    0    0  501    0  0.00000000000E+00  0.00000000000E+00  0.86038910074E+03  0.86038910074E+03  0.00000000000E+00 0. -1.
         -1   -1    0    0    0  501 -0.00000000000E+00 -0.00000000000E+00 -0.16349013747E+04  0.16349013747E+04  0.00000000000E+00 0.  1.
         23    2    1    2    0    0  0.50806045662E+03 -0.43713094088E+03 -0.11067570882E+04  0.12970626652E+04  0.90837316696E+02 0.  0.
        254    2    1    2    0    0 -0.50806045662E+03  0.43713094088E+03  0.33224481430E+03  0.11982278102E+04  0.93603118614E+03 0.  0.
        -24    2    4    4    0    0 -0.61375909254E+03  0.43431866910E+03  0.55597541961E+03  0.93875536529E+03  0.82583525280E+02 0.  0.
         24    2    4    4    0    0  0.10569863592E+03  0.28122717840E+01 -0.22373060531E+03  0.25947244490E+03  0.78041369831E+02 0.  0.
         13    1    3    3    0    0  0.19690045144E+03 -0.22363815545E+03 -0.45293671925E+03  0.54215817249E+03  0.00000000000E+00 0. -1.
        -13    1    3    3    0    0  0.31116000519E+03 -0.21349278543E+03 -0.65382036898E+03  0.75490449273E+03  0.00000000000E+00 0.  1.
          2    1    6    6  502    0  0.19410148305E+02  0.78118080749E+01 -0.14440232755E+01  0.20972920775E+02  0.00000000000E+00 0. -1.
          1    1    5    5  503    0 -0.15931317859E+01  0.10065693496E+02  0.15337787484E+02  0.18414776114E+02  0.00000000000E+00 0. -1.
         -2    1    5    5    0  503 -0.61216596076E+03  0.42425297560E+03  0.54063763212E+03  0.92034058918E+03  0.00000000000E+00 0.  1.
         -1    1    6    6    0  502  0.86288487612E+02 -0.49995362909E+01 -0.22228658203E+03  0.23849952413E+03  0.00000000000E+00 0.  1.
<mgrwt>
<rscale>  0 0.23720466E+04</rscale>
<asrwt>0</asrwt>
<pdfrwt beam="1">  1        1 0.13236756E+00 0.23720466E+04</pdfrwt>
<pdfrwt beam="2">  1       -1 0.25152329E+00 0.23720466E+04</pdfrwt>
<totfact> 0.12013612E+00</totfact>
</mgrwt>
</event>
<event>
12    1  0.2275713E-007  0.1487888E+04  0.7818608E-02  0.8892548E-01
         -1   -1    0    0    0  501 -0.00000000000E+00  0.00000000000E+00  0.21802403859E+03  0.21802403859E+03  0.00000000000E+00 0.  1.
          1   -1    0    0  501    0  0.00000000000E+00 -0.00000000000E+00 -0.25384922233E+04  0.25384922233E+04  0.00000000000E+00 0. -1.
         23    2    1    2    0    0 -0.70592031477E+02 -0.45231684925E+03 -0.60293936995E+03  0.76265305233E+03  0.92358147275E+02 0.  0.
        254    2    1    2    0    0  0.70592031477E+02  0.45231684925E+03 -0.17175288148E+04  0.19938632096E+04  0.90333354965E+03 0.  0.
        -24    2    4    4    0    0 -0.14259516292E+03  0.57674749449E+03 -0.16007215341E+04  0.17092767311E+04  0.79664677059E+02 0.  0.
         24    2    4    4    0    0  0.21318719440E+03 -0.12443064524E+03 -0.11680728061E+03  0.28458647845E+03  0.80085938728E+02 0.  0.
         11    1    3    3    0    0  0.15894827755E+02 -0.19284858271E+03 -0.24730090405E+03  0.31400789568E+03  0.00000000000E+00 0.  1.
        -11    1    3    3    0    0 -0.86486859233E+02 -0.25946826654E+03 -0.35563846590E+03  0.44864515665E+03  0.00000000000E+00 0. -1.
          2    1    6    6  502    0  0.22044017962E+03 -0.12130478192E+03 -0.11326782276E+03  0.27593173536E+03  0.00000000000E+00 0. -1.
          3    1    5    5  503    0 -0.15266061354E+03  0.53525757220E+03 -0.14770248531E+04  0.15784195729E+04  0.00000000000E+00 0. -1.
         -4    1    5    5    0  503  0.10065450617E+02  0.41489922283E+02 -0.12369668107E+03  0.13085715821E+03  0.00000000000E+00 0.  1.
         -1    1    6    6    0  502 -0.72529852174E+01 -0.31258633165E+01 -0.35394578506E+01  0.86547430877E+01  0.00000000000E+00 0.  1.
<mgrwt>
<rscale>  0 0.14878875E+04</rscale>
<asrwt>0</asrwt>
<pdfrwt beam="1">  1        1 0.39053725E+00 0.14878875E+04</pdfrwt>
<pdfrwt beam="2">  1       -1 0.33542161E-01 0.14878875E+04</pdfrwt>
<totfact> 0.10358756E+01</totfact>
</mgrwt>
</event>
<event>
12    1  0.1960998E-007  0.2768787E+04  0.7818608E-02  0.8313025E-01
         -2   -1    0    0    0  501 -0.00000000000E+00  0.00000000000E+00  0.70728139438E+03  0.70728139438E+03  0.00000000000E+00 0.  1.
          2   -1    0    0  501    0  0.00000000000E+00 -0.00000000000E+00 -0.27097352795E+04  0.27097352795E+04  0.00000000000E+00 0. -1.
         23    2    1    2    0    0  0.54872921401E+03 -0.59005209611E+03  0.26042398260E+03  0.85181008170E+03  0.92165818698E+02 0.  0.
        254    2    1    2    0    0 -0.54872921401E+03  0.59005209611E+03 -0.22628778677E+04  0.25652065922E+04  0.90022407765E+03 0.  0.
        -24    2    4    4    0    0 -0.47851226877E+03  0.54464509653E+03 -0.74407012166E+03  0.10420072634E+04  0.80786870805E+02 0.  0.
         24    2    4    4    0    0 -0.70216945241E+02  0.45406999576E+02 -0.15188077461E+04  0.15231993288E+04  0.79793550679E+02 0.  0.
         11    1    3    3    0    0  0.50669102700E+02 -0.32461784768E+02  0.40340906303E+02  0.72446629736E+02  0.00000000000E+00 0.  1.
        -11    1    3    3    0    0  0.49806011131E+03 -0.55759031134E+03  0.22008307629E+03  0.77936345196E+03  0.00000000000E+00 0. -1.
          2    1    6    6  502    0 -0.83402028805E+01  0.55187727577E+01 -0.89596530888E+03  0.89602112171E+03  0.00000000000E+00 0. -1.
          1    1    5    5  503    0 -0.29380026568E+03  0.32802790627E+03 -0.50700059156E+03  0.67154337406E+03  0.00000000000E+00 0. -1.
         -2    1    5    5    0  503 -0.18471200309E+03  0.21661719026E+03 -0.23706953011E+03  0.37046388934E+03  0.00000000000E+00 0.  1.
         -1    1    6    6    0  502 -0.61876742360E+02  0.39888226819E+02 -0.62284243719E+03  0.62717820709E+03  0.00000000000E+00 0.  1.
<mgrwt>
<rscale>  0 0.27687870E+04</rscale>
<asrwt>0</asrwt>
<pdfrwt beam="1">  1        2 0.41688235E+00 0.27687870E+04</pdfrwt>
<pdfrwt beam="2">  1       -2 0.10881252E+00 0.27687870E+04</pdfrwt>
<totfact> 0.15413156E+00</totfact>
</mgrwt>
</event>
<event>
12    1  0.1960998E-007  0.2162333E+04  0.7818608E-02  0.8534272E-01
          1   -1    0    0  501    0  0.00000000000E+00  0.00000000000E+00  0.14202043568E+04  0.14202043568E+04  0.00000000000E+00 0. -1.
         -1   -1    0    0    0  501 -0.00000000000E+00 -0.00000000000E+00 -0.82306517047E+03  0.82306517047E+03  0.00000000000E+00 0.  1.
         23    2    1    2    0    0 -0.61305759814E+03  0.58605830990E+03 -0.30284910884E+02  0.85371006231E+03  0.92734747680E+02 0.  0.
        254    2    1    2    0    0  0.61305759814E+03 -0.58605830990E+03  0.62742409720E+03  0.13895594650E+04  0.90438407087E+03 0.  0.
        -24    2    4    4    0    0  0.69080778453E+03 -0.61440209854E+02  0.28665837093E+03  0.75486396557E+03  0.81586091606E+02 0.  0.
         24    2    4    4    0    0 -0.77750186390E+02 -0.52461810005E+03  0.34076572627E+03  0.63469549938E+03  0.73809581689E+02 0.  0.
         11    1    3    3    0    0 -0.31500328289E+03  0.24019021136E+03  0.31017383518E-01  0.39612928044E+03  0.00000000000E+00 0. -1.
        -11    1    3    3    0    0 -0.29805431525E+03  0.34586809855E+03 -0.30315928268E+02  0.45758078187E+03  0.00000000000E+00 0.  1.
          2    1    6    6  502    0 -0.34240519798E+02 -0.35476380178E+03  0.26269152238E+03  0.44276021070E+03  0.00000000000E+00 0. -1.
          3    1    5    5  503    0  0.53213777481E+03 -0.64931801420E+02  0.18853102411E+03  0.56826991586E+03  0.00000000000E+00 0. -1.
         -4    1    5    5    0  503  0.15867000971E+03  0.34915915657E+01  0.98127346815E+02  0.18659404971E+03  0.00000000000E+00 0.  1.
         -1    1    6    6    0  502 -0.43509666592E+02 -0.16985429827E+03  0.78074203897E+02  0.19193528868E+03  0.00000000000E+00 0.  1.
<mgrwt>
<rscale>  0 0.21623328E+04</rscale>
<asrwt>0</asrwt>
<pdfrwt beam="1">  1        1 0.21849298E+00 0.21623328E+04</pdfrwt>
<pdfrwt beam="2">  1       -1 0.12662541E+00 0.21623328E+04</pdfrwt>
<totfact> 0.36856836E+00</totfact>
</mgrwt>
</event>
<event>
12    1  0.1960998E-007  0.1918336E+04  0.7818608E-02  0.8645783E-01
          1   -1    0    0  501    0  0.00000000000E+00  0.00000000000E+00  0.21059461244E+04  0.21059461244E+04  0.00000000000E+00 0. -1.
         -1   -1    0    0    0  501 -0.00000000000E+00 -0.00000000000E+00 -0.43685972611E+03  0.43685972611E+03  0.00000000000E+00 0.  1.
         23    2    1    2    0    0 -0.58454097663E+03 -0.23572437696E+03  0.11718175522E+04  0.13340782195E+04  0.96717034924E+02 0.  0.
        254    2    1    2    0    0  0.58454097663E+03  0.23572437696E+03  0.49726884600E+03  0.12087276309E+04  0.90359949386E+03 0.  0.
        -24    2    4    4    0    0  0.71734325002E+03  0.19931346050E+03  0.69290985538E+02  0.75198212947E+03  0.79804063070E+02 0.  0.
         24    2    4    4    0    0 -0.13280227339E+03  0.36410916454E+02  0.42797786047E+03  0.45674550145E+03  0.80555604361E+02 0.  0.
         13    1    3    3    0    0 -0.40038560647E+03 -0.20508420630E+03  0.86325709739E+03  0.97343771334E+03  0.00000000000E+00 0. -1.
        -13    1    3    3    0    0 -0.18415537016E+03 -0.30640170662E+02  0.30856045485E+03  0.36064050620E+03  0.00000000000E+00 0.  1.
          4    1    6    6  502    0 -0.11170813184E+03  0.25575932803E+02  0.41321482381E+03  0.42881152699E+03  0.00000000000E+00 0. -1.
          1    1    5    5  503    0  0.71489710373E+03  0.19518530955E+03  0.62537608836E+02  0.74369760421E+03  0.00000000000E+00 0. -1.
         -2    1    5    5    0  503  0.24461462899E+01  0.41281509573E+01  0.67533767022E+01  0.82845252658E+01  0.00000000000E+00 0.  1.
         -3    1    6    6    0  502 -0.21094141543E+02  0.10834983651E+02  0.14763036652E+02  0.27933974464E+02  0.00000000000E+00 0.  1.
<mgrwt>
<rscale>  0 0.19183358E+04</rscale>
<asrwt>0</asrwt>
<pdfrwt beam="1">  1        1 0.32399170E+00 0.19183358E+04</pdfrwt>
<pdfrwt beam="2">  1       -1 0.67209190E-01 0.19183358E+04</pdfrwt>
<totfact> 0.52893251E+00</totfact>
</mgrwt>
</event>
<event>
12    1  0.1960998E-007  0.2384217E+04  0.7818608E-02  0.8445436E-01
         -2   -1    0    0    0  501 -0.00000000000E+00  0.00000000000E+00  0.68788006263E+03  0.68788006263E+03  0.00000000000E+00 0.  1.
          2   -1    0    0  501    0  0.00000000000E+00 -0.00000000000E+00 -0.20659456922E+04  0.20659456922E+04  0.00000000000E+00 0. -1.
         23    2    1    2    0    0  0.71313905614E+03 -0.67540191223E+03 -0.28121202218E+03  0.10255162744E+04  0.88703839268E+02 0.  0.
        254    2    1    2    0    0 -0.71313905614E+03  0.67540191223E+03 -0.10968536074E+04  0.17283094805E+04  0.90511367673E+03 0.  0.
        -24    2    4    4    0    0 -0.41918188249E+03  0.75998251317E+03 -0.11099953937E+04  0.14113023796E+04  0.79986009231E+02 0.  0.
         24    2    4    4    0    0 -0.29395717365E+03 -0.84580600936E+02  0.13141786380E+02  0.31700710083E+03  0.82195483063E+02 0.  0.
         13    1    3    3    0    0  0.70025907732E+03 -0.64240792604E+03 -0.26489229121E+03  0.98651844623E+03  0.00000000000E+00 0. -1.
        -13    1    3    3    0    0  0.12879978818E+02 -0.32993986190E+02 -0.16319730969E+02  0.38997828119E+02  0.00000000000E+00 0.  1.
          2    1    6    6  502    0 -0.28381558215E+03 -0.83102108750E+02  0.30029863837E+02  0.29725248169E+03  0.00000000000E+00 0. -1.
          3    1    5    5  503    0 -0.33869948937E+03  0.66446620016E+03 -0.97228367324E+03  0.12253849259E+04  0.00000000000E+00 0. -1.
         -4    1    5    5    0  503 -0.80482393125E+02  0.95516313008E+02 -0.13771172049E+03  0.18591745377E+03  0.00000000000E+00 0.  1.
         -1    1    6    6    0  502 -0.10141591499E+02 -0.14784921858E+01 -0.16888077457E+02  0.19754619143E+02  0.00000000000E+00 0.  1.
<mgrwt>
<rscale>  0 0.23842171E+04</rscale>
<asrwt>0</asrwt>
<pdfrwt beam="1">  1        2 0.31783779E+00 0.23842171E+04</pdfrwt>
<pdfrwt beam="2">  1       -2 0.10582770E+00 0.23842171E+04</pdfrwt>
<totfact> 0.39869067E+00</totfact>
</mgrwt>
</event>
<event>
12    1  0.1960998E-007  0.2170609E+04  0.7818608E-02  0.8530762E-01
          1   -1    0    0  501    0  0.00000000000E+00  0.00000000000E+00  0.24685623164E+04  0.24685623164E+04  0.00000000000E+00 0. -1.
         -1   -1    0    0    0  501 -0.00000000000E+00 -0.00000000000E+00 -0.47715476954E+03  0.47715476954E+03  0.00000000000E+00 0.  1.
         23    2    1    2    0    0 -0.70724559101E+03  0.54992606755E+03  0.80731751936E+03  0.12090955318E+04  0.86806809928E+02 0.  0.
        254    2    1    2    0    0  0.70724559101E+03 -0.54992606755E+03  0.11840900275E+04  0.17366215541E+04  0.90064988937E+03 0.  0.
        -24    2    4    4    0    0 -0.36251603144E+02 -0.34590681949E+03  0.45726990109E+02  0.35947765995E+03  0.78533584401E+02 0.  0.
         24    2    4    4    0    0  0.74349719416E+03 -0.20401924805E+03  0.11383630374E+04  0.13771438942E+04  0.79012461312E+02 0.  0.
         11    1    3    3    0    0 -0.26764491097E+03  0.16989307624E+03  0.32373230230E+03  0.45310049577E+03  0.00000000000E+00 0. -1.
        -11    1    3    3    0    0 -0.43960068005E+03  0.38003299130E+03  0.48358521707E+03  0.75599503606E+03  0.00000000000E+00 0.  1.
          4    1    6    6  502    0  0.31626256026E+03 -0.12711110990E+03  0.49172699965E+03  0.59830985573E+03  0.00000000000E+00 0. -1.
          1    1    5    5  503    0 -0.56602718154E+02 -0.22206709187E+03  0.11795100786E+02  0.22947066348E+03  0.00000000000E+00 0. -1.
         -2    1    5    5    0  503  0.20351115009E+02 -0.12383972762E+03  0.33931889322E+02  0.13000699647E+03  0.00000000000E+00 0.  1.
         -3    1    6    6    0  502  0.42723463389E+03 -0.76908138152E+02  0.64663603772E+03  0.77883403842E+03  0.00000000000E+00 0.  1.
<mgrwt>
<rscale>  0 0.21706094E+04</rscale>
<asrwt>0</asrwt>
<pdfrwt beam="1">  1        1 0.37977881E+00 0.21706094E+04</pdfrwt>
<pdfrwt beam="2">  1       -1 0.73408427E-01 0.21706094E+04</pdfrwt>
<totfact> 0.24347909E+00</totfact>
</mgrwt>
</event>
<event>
12    1  0.1960998E-007  0.2062875E+04  0.7818608E-02  0.8577776E-01
         -1   -1    0    0    0  501 -0.00000000000E+00  0.00000000000E+00  0.77357037968E+03  0.77357037968E+03  0.00000000000E+00 0.  1.
          1   -1    0    0  501    0  0.00000000000E+00 -0.00000000000E+00 -0.13752637474E+04  0.13752637474E+04  0.00000000000E+00 0. -1.
         23    2    1    2    0    0  0.44752304349E+03 -0.58806642205E+03 -0.64190972681E+03  0.98340112872E+03  0.94502335458E+02 0.  0.
        254    2    1    2    0    0 -0.44752304349E+03  0.58806642205E+03  0.40216359065E+02  0.11654329984E+04  0.90028758015E+03 0.  0.
        -24    2    4    4    0    0 -0.30187426457E+03  0.78785725656E+03  0.18580489271E+03  0.86759534799E+03  0.79693797553E+02 0.  0.
         24    2    4    4    0    0 -0.14564877893E+03 -0.19979083451E+03 -0.14558853364E+03  0.29783765039E+03  0.79883042658E+02 0.  0.
         13    1    3    3    0    0  0.22275343368E+03 -0.21666300588E+03 -0.25851333927E+03  0.40421664601E+03  0.00000000000E+00 0.  1.
        -13    1    3    3    0    0  0.22476960982E+03 -0.37140341617E+03 -0.38339638754E+03  0.57918448271E+03  0.00000000000E+00 0. -1.
          2    1    6    6  502    0 -0.14101460314E+03 -0.13932344057E+03 -0.12200396838E+03  0.23276835630E+03  0.00000000000E+00 0. -1.
          3    1    5    5  503    0 -0.76957707377E+02  0.26501864357E+03  0.91045529179E+02  0.29059707250E+03  0.00000000000E+00 0. -1.
         -4    1    5    5    0  503 -0.22491655719E+03  0.52283861299E+03  0.94759363531E+02  0.57699827548E+03  0.00000000000E+00 0.  1.
         -1    1    6    6    0  502 -0.46341757812E+01 -0.60467393942E+02 -0.23584565261E+02  0.65069294094E+02  0.00000000000E+00 0.  1.
<mgrwt>
<rscale>  0 0.20628750E+04</rscale>
<asrwt>0</asrwt>
<pdfrwt beam="1">  1        1 0.21157904E+00 0.20628750E+04</pdfrwt>
<pdfrwt beam="2">  1       -1 0.11901083E+00 0.20628750E+04</pdfrwt>
<totfact> 0.46618127E+00</totfact>
</mgrwt>
</event>
<event>
12    1  0.1960998E-007  0.1613379E+04  0.7818608E-02  0.8812371E-01
         -2   -1    0    0    0  501 -0.00000000000E+00  0.00000000000E+00  0.31327938781E+03  0.31327938781E+03  0.00000000000E+00 0.  1.
          2   -1    0    0  501    0  0.00000000000E+00 -0.00000000000E+00 -0.20772117202E+04  0.20772117202E+04  0.00000000000E+00 0. -1.
         23    2    1    2    0    0 -0.39039071432E+03 -0.38090677547E+03 -0.50127936739E+03  0.74643570632E+03  0.91599006893E+02 0.  0.
        254    2    1    2    0    0  0.39039071432E+03  0.38090677547E+03 -0.12626529650E+04  0.16440554017E+04  0.90062798781E+03 0.  0.
        -24    2    4    4    0    0 -0.15545136491E+03  0.67704947108E+02 -0.88782691516E+03  0.90756294456E+03  0.81760506000E+02 0.  0.
         24    2    4    4    0    0  0.54584207923E+03  0.31320182836E+03 -0.37482604988E+03  0.73649245717E+03  0.76730769927E+02 0.  0.
         11    1    3    3    0    0 -0.99250325241E+02 -0.93565833344E+02 -0.75092963030E+02  0.15570531567E+03  0.00000000000E+00 0.  1.
        -11    1    3    3    0    0 -0.29114038908E+03 -0.28734094213E+03 -0.42618640436E+03  0.59073039065E+03  0.00000000000E+00 0. -1.
          2    1    6    6  502    0  0.53231803095E+03  0.31507992754E+03 -0.35757276979E+03  0.71449012065E+03  0.00000000000E+00 0. -1.
          3    1    5    5  503    0 -0.11691826511E+03  0.59619901056E+02 -0.80761255437E+03  0.81820685116E+03  0.00000000000E+00 0. -1.
         -4    1    5    5    0  503 -0.38533099801E+02  0.80850460521E+01 -0.80214360794E+02  0.89356093399E+02  0.00000000000E+00 0.  1.
         -3    1    6    6    0  502  0.13524048280E+02 -0.18780991804E+01 -0.17253280090E+02  0.22002336519E+02  0.00000000000E+00 0.  1.
<mgrwt>
<rscale>  0 0.16133786E+04</rscale>
<asrwt>0</asrwt>
<pdfrwt beam="1">  1        2 0.31957104E+00 0.16133786E+04</pdfrwt>
<pdfrwt beam="2">  1       -2 0.48196828E-01 0.16133786E+04</pdfrwt>
<totfact> 0.23646854E+01</totfact>
</mgrwt>
</event>
<event>
12    1  0.1960998E-007  0.1690005E+04  0.7818608E-02  0.8767086E-01
         -1   -1    0    0    0  501 -0.00000000000E+00  0.00000000000E+00  0.73016595087E+03  0.73016595087E+03  0.00000000000E+00 0.  1.
          1   -1    0    0  501    0  0.00000000000E+00 -0.00000000000E+00 -0.97789980280E+03  0.97789980280E+03  0.00000000000E+00 0. -1.
         23    2    1    2    0    0 -0.43546421773E+03  0.19957069624E+03  0.27163202519E+03  0.55836966829E+03  0.92386046737E+02 0.  0.
        254    2    1    2    0    0  0.43546421773E+03 -0.19957069624E+03 -0.51936587711E+03  0.11496960854E+04  0.90697443553E+03 0.  0.
        -24    2    4    4    0    0  0.41266910875E+02  0.33533555045E+02 -0.65773656872E+03  0.66461718252E+03  0.79190581721E+02 0.  0.
         24    2    4    4    0    0  0.39419730686E+03 -0.23310425129E+03  0.13837069160E+03  0.48507890286E+03  0.80162241724E+02 0.  0.
         13    1    3    3    0    0 -0.32578741372E+03  0.18129811559E+03  0.17865499267E+03  0.41342962165E+03  0.00000000000E+00 0. -1.
        -13    1    3    3    0    0 -0.10967680401E+03  0.18272580652E+02  0.92977032520E+02  0.14494004663E+03  0.00000000000E+00 0.  1.
          4    1    6    6  502    0  0.34263807647E+03 -0.23030396819E+03  0.11620677954E+03  0.42888784643E+03  0.00000000000E+00 0. -1.
          1    1    5    5  503    0  0.11800525362E+02  0.56655890077E+02 -0.41066790444E+03  0.41472553576E+03  0.00000000000E+00 0. -1.
         -2    1    5    5    0  503  0.29466385513E+02 -0.23122335032E+02 -0.24706866428E+03  0.24989164676E+03  0.00000000000E+00 0.  1.
         -3    1    6    6    0  502  0.51559230391E+02 -0.28002831033E+01  0.22163912063E+02  0.56191056423E+02  0.00000000000E+00 0.  1.
<mgrwt>
<rscale>  0 0.16900049E+04</rscale>
<asrwt>0</asrwt>
<pdfrwt beam="1">  1        1 0.15044612E+00 0.16900049E+04</pdfrwt>
<pdfrwt beam="2">  1       -1 0.11233322E+00 0.16900049E+04</pdfrwt>
<totfact> 0.10892730E+01</totfact>
</mgrwt>
</event>
<event>
12    1  0.1960998E-007  0.3052402E+04  0.7818608E-02  0.8228924E-01
         -1   -1    0    0    0  501 -0.00000000000E+00  0.00000000000E+00  0.83266872592E+03  0.83266872592E+03  0.00000000000E+00 0.  1.
          1   -1    0    0  501    0  0.00000000000E+00 -0.00000000000E+00 -0.27973781948E+04  0.27973781948E+04  0.00000000000E+00 0. -1.
         23    2    1    2    0    0 -0.10430275796E+04 -0.16735928817E+03 -0.19708630531E+04  0.22379370323E+04  0.90251446117E+02 0.  0.
        254    2    1    2    0    0  0.10430275796E+04  0.16735928817E+03  0.61535841745E+01  0.13921098884E+04  0.90665120738E+03 0.  0.
        -24    2    4    4    0    0  0.27059379842E+03 -0.23257777646E+03  0.29736769460E+03  0.47130229545E+03  0.79905457034E+02 0.  0.
         24    2    4    4    0    0  0.77243378113E+03  0.39993706463E+03 -0.29121411042E+03  0.92080759298E+03  0.80482068100E+02 0.  0.
         13    1    3    3    0    0 -0.54274345357E+03 -0.13241519168E+03 -0.10495679951E+04  0.11889899982E+04  0.00000000000E+00 0. -1.
        -13    1    3    3    0    0 -0.50028412598E+03 -0.34944096488E+02 -0.92129505798E+03  0.10489470342E+04  0.00000000000E+00 0.  1.
          4    1    6    6  502    0  0.66373780050E+03  0.32860877486E+03 -0.22021621969E+03  0.77267507928E+03  0.00000000000E+00 0. -1.
          3    1    5    5  503    0  0.27240066919E+03 -0.22688991374E+03  0.27648415245E+03  0.44958274443E+03  0.00000000000E+00 0. -1.
         -2    1    5    5    0  503 -0.18068707676E+01 -0.56878627230E+01  0.20883542142E+02  0.21719551025E+02  0.00000000000E+00 0.  1.
         -3    1    6    6    0  502  0.10869598063E+03  0.71328289765E+02 -0.70997890733E+02  0.14813251370E+03  0.00000000000E+00 0.  1.
<mgrwt>
<rscale>  0 0.30524019E+04</rscale>
<asrwt>0</asrwt>
<pdfrwt beam="1">  1        1 0.43036588E+00 0.30524019E+04</pdfrwt>
<pdfrwt beam="2">  1       -1 0.12810288E+00 0.30524019E+04</pdfrwt>
<totfact> 0.37298989E-01</totfact>
</mgrwt>
</event>
<event>
12    1  0.1960998E-007  0.2878085E+04  0.7818608E-02  0.8279428E-01
          1   -1    0    0  501    0  0.00000000000E+00  0.00000000000E+00  0.18482064294E+04  0.18482064294E+04  0.00000000000E+00 0. -1.
         -1   -1    0    0    0  501 -0.00000000000E+00 -0.00000000000E+00 -0.11204607641E+04  0.11204607641E+04  0.00000000000E+00 0.  1.
         23    2    1    2    0    0  0.90296486686E+03  0.89550060582E+03  0.57015337756E+03  0.13966263884E+04  0.90683565418E+02 0.  0.
        254    2    1    2    0    0 -0.90296486686E+03 -0.89550060582E+03  0.15759228772E+03  0.15720408050E+04  0.91060972856E+03 0.  0.
        -24    2    4    4    0    0 -0.27844247409E+02 -0.19462045623E+03 -0.29228055575E+03  0.36153949916E+03  0.81427649386E+02 0.  0.
         24    2    4    4    0    0 -0.87512061945E+03 -0.70088014959E+03  0.44987284347E+03  0.12105013059E+04  0.76542495122E+02 0.  0.
         13    1    3    3    0    0  0.61803617814E+03  0.66907924362E+03  0.41751527322E+03  0.10019754264E+04  0.00000000000E+00 0.  1.
        -13    1    3    3    0    0  0.28492868872E+03  0.22642136220E+03  0.15263810433E+03  0.39465096201E+03  0.00000000000E+00 0. -1.
          2    1    6    6  502    0 -0.35618329882E+03 -0.30119827922E+03  0.14890678037E+03  0.48965311702E+03  0.00000000000E+00 0. -1.
          3    1    5    5  503    0  0.19195780847E+02 -0.12746107858E+03 -0.15452568798E+03  0.20122870770E+03  0.00000000000E+00 0. -1.
         -4    1    5    5    0  503 -0.47040028256E+02 -0.67159377647E+02 -0.13775486777E+03  0.16031079146E+03  0.00000000000E+00 0.  1.
         -3    1    6    6    0  502 -0.51893732063E+03 -0.39968187037E+03  0.30096606310E+03  0.72084818886E+03  0.00000000000E+00 0.  1.
<mgrwt>
<rscale>  0 0.28780846E+04</rscale>
<asrwt>0</asrwt>
<pdfrwt beam="1">  1        1 0.28433945E+00 0.28780846E+04</pdfrwt>
<pdfrwt beam="2">  1       -1 0.17237858E+00 0.28780846E+04</pdfrwt>
<totfact> 0.76797280E-01</totfact>
</mgrwt>
</event>
<event>
12    1  0.1960998E-007  0.2998318E+04  0.7818608E-02  0.8244211E-01
         -1   -1    0    0    0  501 -0.00000000000E+00  0.00000000000E+00  0.14151121498E+04  0.14151121498E+04  0.00000000000E+00 0.  1.
          1   -1    0    0  501    0  0.00000000000E+00 -0.00000000000E+00 -0.15881978512E+04  0.15881978512E+04  0.00000000000E+00 0. -1.
         23    2    1    2    0    0  0.12135428008E+04  0.84515415732E+02 -0.69318946035E+03  0.14030947530E+04  0.91292240347E+02 0.  0.
        254    2    1    2    0    0 -0.12135428008E+04 -0.84515415732E+02  0.52010375896E+03  0.16002152479E+04  0.90019549808E+03 0.  0.
        -24    2    4    4    0    0 -0.10417582057E+03  0.30613617146E+03  0.13456847212E+03  0.36017737723E+03  0.83947080423E+02 0.  0.
         24    2    4    4    0    0 -0.11093669802E+04 -0.39065158720E+03  0.38553528684E+03  0.12400378707E+04  0.75846581755E+02 0.  0.
         13    1    3    3    0    0  0.67895657466E+03  0.25281923217E+02 -0.34110388391E+03  0.76024539823E+03  0.00000000000E+00 0.  1.
        -13    1    3    3    0    0  0.53458622612E+03  0.59233492515E+02 -0.35208557645E+03  0.64284935477E+03  0.00000000000E+00 0. -1.
          2    1    6    6  502    0 -0.14488054102E+03 -0.59223431738E+02  0.25922311679E+02  0.15864977868E+03  0.00000000000E+00 0. -1.
          1    1    5    5  503    0 -0.60698462036E+02  0.64706885527E+02  0.32705606493E+02  0.94556549346E+02  0.00000000000E+00 0. -1.
         -2    1    5    5    0  503 -0.43477358529E+02  0.24142928594E+03  0.10186286563E+03  0.26562082789E+03  0.00000000000E+00 0.  1.
         -3    1    6    6    0  502 -0.96448643919E+03 -0.33142815546E+03  0.35961297517E+03  0.10813880920E+04  0.00000000000E+00 0.  1.
<mgrwt>
<rscale>  0 0.29983182E+04</rscale>
<asrwt>0</asrwt>
<pdfrwt beam="1">  1        1 0.24433813E+00 0.29983182E+04</pdfrwt>
<pdfrwt beam="2">  1       -1 0.21770956E+00 0.29983182E+04</pdfrwt>
<totfact> 0.55179157E-01</totfact>
</mgrwt>
</event>
<event>
12    1  0.1960998E-007  0.1937040E+04  0.7818608E-02  0.8636636E-01
         -2   -1    0    0    0  501 -0.00000000000E+00  0.00000000000E+00  0.43583422191E+03  0.43583422191E+03  0.00000000000E+00 0.  1.
          2   -1    0    0  501    0  0.00000000000E+00 -0.00000000000E+00 -0.21522656775E+04  0.21522656775E+04  0.00000000000E+00 0. -1.
         23    2    1    2    0    0  0.30494634951E+03  0.23409655065E+03 -0.15451751513E+04  0.15949669080E+04  0.92518746189E+02 0.  0.
        254    2    1    2    0    0 -0.30494634951E+03 -0.23409655065E+03 -0.17125630436E+03  0.99313299145E+03  0.89955041316E+03 0.  0.
        -24    2    4    4    0    0 -0.22914893764E+03 -0.56475885870E+03 -0.20953999311E+02  0.61469528863E+03  0.77132507286E+02 0.  0.
         24    2    4    4    0    0 -0.75797411865E+02  0.33066230804E+03 -0.15030230505E+03  0.37843770282E+03  0.74441268158E+02 0.  0.
         11    1    3    3    0    0  0.12562617163E+03  0.58434825373E+02 -0.42516327168E+03  0.44716928719E+03  0.00000000000E+00 0.  1.
        -11    1    3    3    0    0  0.17932017788E+03  0.17566172528E+03 -0.11200118796E+04  0.11477976208E+04  0.00000000000E+00 0. -1.
          4    1    6    6  502    0 -0.33545129192E+01  0.11302809381E+03 -0.80055055779E+02  0.13854751785E+03  0.00000000000E+00 0. -1.
          1    1    5    5  503    0 -0.41645384336E+02 -0.58848419401E+02  0.16153871207E+02  0.73881134652E+02  0.00000000000E+00 0. -1.
         -2    1    5    5    0  503 -0.18750355331E+03 -0.50591043930E+03 -0.37107870518E+02  0.54081415398E+03  0.00000000000E+00 0.  1.
         -3    1    6    6    0  502 -0.72442898946E+02  0.21763421423E+03 -0.70247249267E+02  0.23989018496E+03  0.00000000000E+00 0.  1.
<mgrwt>
<rscale>  0 0.19370400E+04</rscale>
<asrwt>0</asrwt>
<pdfrwt beam="1">  1        2 0.33111779E+00 0.19370400E+04</pdfrwt>
<pdfrwt beam="2">  1       -2 0.67051419E-01 0.19370400E+04</pdfrwt>
<totfact> 0.10471340E+01</totfact>
</mgrwt>
</event>
<event>
12    1  0.1987855E-007  0.1890325E+04  0.7818608E-02  0.8659687E-01
         -1   -1    0    0    0  501 -0.00000000000E+00  0.00000000000E+00  0.99499276435E+03  0.99499276435E+03  0.00000000000E+00 0.  1.
          1   -1    0    0  501    0  0.00000000000E+00 -0.00000000000E+00 -0.89782769631E+03  0.89782769631E+03  0.00000000000E+00 0. -1.
         23    2    1    2    0    0  0.71489168667E+03 -0.14263676138E+03  0.29599780534E+02  0.73416233955E+03  0.81870778955E+02 0.  0.
        254    2    1    2    0    0 -0.71489168667E+03  0.14263676138E+03  0.67565287500E+02  0.11586581211E+04  0.89805801826E+03 0.  0.
        -24    2    4    4    0    0 -0.50462932692E+01  0.31821510446E+03 -0.18999604029E+03  0.37924325070E+03  0.80253536371E+02 0.  0.
         24    2    4    4    0    0 -0.70984539340E+03 -0.17557834308E+03  0.25756132779E+03  0.77941487040E+03  0.80258741189E+02 0.  0.
         13    1    3    3    0    0  0.37417722106E+03 -0.76656578239E+02  0.56374901954E+02  0.38608671736E+03  0.00000000000E+00 0.  1.
        -13    1    3    3    0    0  0.34071446561E+03 -0.65980183137E+02 -0.26775121419E+02  0.34807562219E+03  0.00000000000E+00 0. -1.
          4    1    6    6  502    0 -0.11143385184E+03 -0.24220414020E+02  0.72025281000E+02  0.13487688051E+03  0.00000000000E+00 0. -1.
          3    1    5    5  503    0 -0.56675495499E+01  0.49310300123E+00  0.40206082566E+01  0.69663160439E+01  0.00000000000E+00 0. -1.
         -4    1    5    5    0  503  0.62125628064E+00  0.31772200146E+03 -0.19401664854E+03  0.37227693466E+03  0.00000000000E+00 0.  1.
         -3    1    6    6    0  502 -0.59841154156E+03 -0.15135792906E+03  0.18553604679E+03  0.64453798989E+03  0.00000000000E+00 0.  1.
<mgrwt>
<rscale>  0 0.18903249E+04</rscale>
<asrwt>0</asrwt>
<pdfrwt beam="1">  1        1 0.13812734E+00 0.18903249E+04</pdfrwt>
<pdfrwt beam="2">  1       -1 0.15307581E+00 0.18903249E+04</pdfrwt>
<totfact> 0.56500452E+00</totfact>
</mgrwt>
</event>
<event>
12    1  0.1960998E-007  0.1815440E+04  0.7818608E-02  0.8698131E-01
         -2   -1    0    0    0  501 -0.00000000000E+00  0.00000000000E+00  0.37645856603E+03  0.37645856603E+03  0.00000000000E+00 0.  1.
          2   -1    0    0  501    0  0.00000000000E+00 -0.00000000000E+00 -0.21887022277E+04  0.21887022277E+04  0.00000000000E+00 0. -1.
         23    2    1    2    0    0 -0.62976196155E+03 -0.32067965484E+02 -0.32140947435E+03  0.71355493711E+03  0.90708960133E+02 0.  0.
        254    2    1    2    0    0  0.62976196155E+03  0.32067965484E+02 -0.14908341873E+04  0.18516058566E+04  0.89901567924E+03 0.  0.
        -24    2    4    4    0    0  0.82036139930E+03  0.17717171968E+03 -0.12022112622E+04  0.14682871318E+04  0.78565504923E+02 0.  0.
         24    2    4    4    0    0 -0.19059943775E+03 -0.14510375420E+03 -0.28862292508E+03  0.38331872483E+03  0.79036743201E+02 0.  0.
         13    1    3    3    0    0 -0.25021534508E+03 -0.37586925182E+02 -0.17030132598E+03  0.30499678276E+03  0.00000000000E+00 0.  1.
        -13    1    3    3    0    0 -0.37954661647E+03  0.55189596977E+01 -0.15110814837E+03  0.40855815436E+03  0.00000000000E+00 0. -1.
          2    1    6    6  502    0 -0.59128481154E+02 -0.88672516715E+02 -0.96485738818E+02  0.14376540022E+03  0.00000000000E+00 0. -1.
          3    1    5    5  503    0  0.48040951950E+03  0.10337778982E+03 -0.77043955152E+03  0.91381473856E+03  0.00000000000E+00 0. -1.
         -4    1    5    5    0  503  0.33995187980E+03  0.73793929861E+02 -0.43177171070E+03  0.55447239320E+03  0.00000000000E+00 0.  1.
         -1    1    6    6    0  502 -0.13147095659E+03 -0.56431237483E+02 -0.19213718626E+03  0.23955332462E+03  0.00000000000E+00 0.  1.
<mgrwt>
<rscale>  0 0.18154401E+04</rscale>
<asrwt>0</asrwt>
<pdfrwt beam="1">  1        2 0.33672342E+00 0.18154401E+04</pdfrwt>
<pdfrwt beam="2">  1       -2 0.57916703E-01 0.18154401E+04</pdfrwt>
<totfact> 0.13790140E+01</totfact>
</mgrwt>
</event>
<event>
12    1  0.1960998E-007  0.2303034E+04  0.7818608E-02  0.8476726E-01
          2   -1    0    0  501    0  0.00000000000E+00  0.00000000000E+00  0.97091338462E+03  0.97091338462E+03  0.00000000000E+00 0. -1.
         -2   -1    0    0    0  501 -0.00000000000E+00 -0.00000000000E+00 -0.13657157543E+04  0.13657157543E+04  0.00000000000E+00 0.  1.
         23    2    1    2    0    0 -0.26373212551E+03  0.78904540492E+03 -0.68208660082E+03  0.10796414587E+04  0.90753861532E+02 0.  0.
        254    2    1    2    0    0  0.26373212551E+03 -0.78904540492E+03  0.28728423117E+03  0.12569876802E+04  0.89740654864E+03 0.  0.
        -24    2    4    4    0    0  0.10027293649E+02 -0.11922908448E+03 -0.29637297957E+03  0.32949864286E+03  0.80101756665E+02 0.  0.
         24    2    4    4    0    0  0.25370483187E+03 -0.66981632043E+03  0.58365721074E+03  0.92748903730E+03  0.80994628413E+02 0.  0.
         13    1    3    3    0    0 -0.13068085119E+03  0.38016650596E+03 -0.27136793391E+03  0.48502021883E+03  0.00000000000E+00 0. -1.
        -13    1    3    3    0    0 -0.13305127433E+03  0.40887889895E+03 -0.41071866691E+03  0.59462123991E+03  0.00000000000E+00 0.  1.
          2    1    6    6  502    0  0.23971316961E+03 -0.58690901382E+03  0.48737086642E+03  0.79965927471E+03  0.00000000000E+00 0. -1.
          1    1    5    5  503    0 -0.32875877069E+02 -0.70607721827E+02 -0.13985581110E+03  0.16008098442E+03  0.00000000000E+00 0. -1.
         -2    1    5    5    0  503  0.42903170718E+02 -0.48621362657E+02 -0.15651716847E+03  0.16941765844E+03  0.00000000000E+00 0.  1.
         -1    1    6    6    0  502  0.13991662257E+02 -0.82907306609E+02  0.96286344315E+02  0.12782976259E+03  0.00000000000E+00 0.  1.
<mgrwt>
<rscale>  0 0.23030343E+04</rscale>
<asrwt>0</asrwt>
<pdfrwt beam="1">  1        2 0.14937129E+00 0.23030343E+04</pdfrwt>
<pdfrwt beam="2">  1       -2 0.21011012E+00 0.23030343E+04</pdfrwt>
<totfact> 0.27251377E+00</totfact>
</mgrwt>
</event>
<event>
12    1  0.1960998E-007  0.3020043E+04  0.7818608E-02  0.8238030E-01
         -2   -1    0    0    0  501 -0.00000000000E+00  0.00000000000E+00  0.17066585547E+04  0.17066585547E+04  0.00000000000E+00 0.  1.
          2   -1    0    0  501    0  0.00000000000E+00 -0.00000000000E+00 -0.13360408272E+04  0.13360408272E+04  0.00000000000E+00 0. -1.
         23    2    1    2    0    0 -0.46253529043E+03  0.11016448708E+04 -0.51477302786E+03  0.13042387713E+04  0.92125924891E+02 0.  0.
        254    2    1    2    0    0  0.46253529043E+03 -0.11016448708E+04  0.88539075543E+03  0.17384606106E+04  0.90042667039E+03 0.  0.
        -24    2    4    4    0    0 -0.78501042610E+02  0.11617306408E+03  0.92286160258E+02  0.18564770260E+03  0.79307878542E+02 0.  0.
         24    2    4    4    0    0  0.54103633304E+03 -0.12178179349E+04  0.79310459517E+03  0.15528129080E+04  0.80076166023E+02 0.  0.
         13    1    3    3    0    0 -0.19460089085E+03  0.58098251222E+03 -0.25537207985E+03  0.66379596668E+03  0.00000000000E+00 0. -1.
        -13    1    3    3    0    0 -0.26793439958E+03  0.52066235856E+03 -0.25940094801E+03  0.64044280457E+03  0.00000000000E+00 0.  1.
          4    1    6    6  502    0  0.96401154514E+02 -0.25519775326E+03  0.19592188290E+03  0.33586375223E+03  0.00000000000E+00 0. -1.
          3    1    5    5  503    0 -0.58967175519E+02  0.12165130747E+03  0.60894698315E+02  0.14827114582E+03  0.00000000000E+00 0. -1.
         -4    1    5    5    0  503 -0.19533867092E+02 -0.54782433982E+01  0.31391461943E+02  0.37376556786E+02  0.00000000000E+00 0.  1.
         -3    1    6    6    0  502  0.44463517852E+03 -0.96262018159E+03  0.59718271228E+03  0.12169491558E+04  0.00000000000E+00 0.  1.
<mgrwt>
<rscale>  0 0.30200434E+04</rscale>
<asrwt>0</asrwt>
<pdfrwt beam="1">  1        2 0.20554474E+00 0.30200434E+04</pdfrwt>
<pdfrwt beam="2">  1       -2 0.26256285E+00 0.30200434E+04</pdfrwt>
<totfact> 0.72445056E-01</totfact>
</mgrwt>
</event>
<event>
12    1  0.1960998E-007  0.1612829E+04  0.7818608E-02  0.8812705E-01
          2   -1    0    0  501    0  0.00000000000E+00  0.00000000000E+00  0.89100099562E+03  0.89100099562E+03  0.00000000000E+00 0. -1.
         -2   -1    0    0    0  501 -0.00000000000E+00 -0.00000000000E+00 -0.72985805915E+03  0.72985805915E+03  0.00000000000E+00 0.  1.
         23    2    1    2    0    0 -0.47085836223E+03  0.46674325001E+02  0.34404364694E+03  0.59211240593E+03  0.91350864068E+02 0.  0.
        254    2    1    2    0    0  0.47085836223E+03 -0.46674325001E+02 -0.18290071047E+03  0.10287466488E+04  0.89497536710E+03 0.  0.
        -24    2    4    4    0    0  0.12980397392E+03  0.21438178426E+03 -0.44666220763E+03  0.51855229993E+03  0.81121753974E+02 0.  0.
         24    2    4    4    0    0  0.34105438831E+03 -0.26105610926E+03  0.26376149716E+03  0.51019434891E+03  0.79118634368E+02 0.  0.
         11    1    3    3    0    0 -0.11937212780E+03  0.29738575099E+02  0.13571789402E+03  0.18317596595E+03  0.00000000000E+00 0. -1.
        -11    1    3    3    0    0 -0.35148623443E+03  0.16935749903E+02  0.20832575292E+03  0.40893643998E+03  0.00000000000E+00 0.  1.
          4    1    6    6  502    0  0.20265165288E+03 -0.10600685612E+03  0.13075037297E+03  0.26344032719E+03  0.00000000000E+00 0. -1.
          3    1    5    5  503    0  0.54264073043E+02  0.15371205958E+03 -0.31954702412E+03  0.35872313490E+03  0.00000000000E+00 0. -1.
         -4    1    5    5    0  503  0.75539900872E+02  0.60669724678E+02 -0.12711518351E+03  0.15982916503E+03  0.00000000000E+00 0.  1.
         -3    1    6    6    0  502  0.13840273543E+03 -0.15504925314E+03  0.13301112419E+03  0.24675402172E+03  0.00000000000E+00 0.  1.
<mgrwt>
<rscale>  0 0.16128289E+04</rscale>
<asrwt>0</asrwt>
<pdfrwt beam="1">  1        2 0.13707708E+00 0.16128289E+04</pdfrwt>
<pdfrwt beam="2">  1       -2 0.11228586E+00 0.16128289E+04</pdfrwt>
<totfact> 0.17806841E+01</totfact>
</mgrwt>
</event>
<event>
12    1  0.1960998E-007  0.2665084E+04  0.7818608E-02  0.8346424E-01
         -1   -1    0    0    0  501 -0.00000000000E+00  0.00000000000E+00  0.14602222538E+04  0.14602222538E+04  0.00000000000E+00 0. -1.
          1   -1    0    0  501    0  0.00000000000E+00 -0.00000000000E+00 -0.12160262348E+04  0.12160262348E+04  0.00000000000E+00 0.  1.
         23    2    1    2    0    0  0.11726484389E+04  0.80075555125E+02  0.21283994245E+02  0.11791594898E+04  0.91911034058E+02 0.  0.
        254    2    1    2    0    0 -0.11726484389E+04 -0.80075555125E+02  0.22291202477E+03  0.14970889987E+04  0.90003846778E+03 0.  0.
        -24    2    4    4    0    0 -0.11093491233E+04  0.20807249906E+03  0.22407601256E+02  0.11315803036E+04  0.77603096569E+02 0.  0.
         24    2    4    4    0    0 -0.63299315622E+02 -0.28814805419E+03  0.20050442352E+03  0.36550869516E+03  0.79740064566E+02 0.  0.
         13    1    3    3    0    0  0.84391076068E+03  0.47046124143E+02  0.55252301635E+02  0.84702510390E+03  0.00000000000E+00 0. -1.
        -13    1    3    3    0    0  0.32873767823E+03  0.33029430981E+02 -0.33968307390E+02  0.33213438591E+03  0.00000000000E+00 0.  1.
          4    1    6    6  502    0 -0.41858089378E+02 -0.23642112985E+03  0.19487798023E+03  0.30923207702E+03  0.00000000000E+00 0. -1.
          1    1    5    5  503    0 -0.92484077653E+03  0.14384109359E+03  0.15436021439E+02  0.93608706480E+03  0.00000000000E+00 0. -1.
         -2    1    5    5    0  503 -0.18450834677E+03  0.64231405475E+02  0.69715798167E+01  0.19549323876E+03  0.00000000000E+00 0.  1.
         -3    1    6    6    0  502 -0.21441226245E+02 -0.51726924342E+02  0.56264432935E+01  0.56276618137E+02  0.00000000000E+00 0.  1.
<mgrwt>
<rscale>  0 0.26650843E+04</rscale>
<asrwt>0</asrwt>
<pdfrwt beam="1">  1        1 0.18708096E+00 0.26650843E+04</pdfrwt>
<pdfrwt beam="2">  1       -1 0.22464958E+00 0.26650843E+04</pdfrwt>
<totfact> 0.93324195E-01</totfact>
</mgrwt>
</event>
<event>
12    1  0.1960998E-007  0.1305228E+04  0.7818608E-02  0.9025429E-01
         -1   -1    0    0    0  501 -0.00000000000E+00  0.00000000000E+00  0.43761432489E+03  0.43761432489E+03  0.00000000000E+00 0.  1.
          1   -1    0    0  501    0  0.00000000000E+00 -0.00000000000E+00 -0.97324318704E+03  0.97324318704E+03  0.00000000000E+00 0. -1.
         23    2    1    2    0    0 -0.30429230842E+03 -0.10122437945E+03 -0.44074726137E+02  0.33638341746E+03  0.91493377360E+02 0.  0.
        254    2    1    2    0    0  0.30429230842E+03  0.10122437945E+03 -0.49155413601E+03  0.10744740945E+04  0.90001607046E+03 0.  0.
        -24    2    4    4    0    0  0.11687642791E+02  0.19863171476E+03  0.21304961677E+03  0.30112897036E+03  0.75480848449E+02 0.  0.
         24    2    4    4    0    0  0.29260466562E+03 -0.97407335307E+02 -0.70460375278E+03  0.77334512411E+03  0.80563969811E+02 0.  0.
         11    1    3    3    0    0 -0.45156048678E+02 -0.34424226262E+02  0.21741219644E+02  0.60801124312E+02  0.00000000000E+00 0.  1.
        -11    1    3    3    0    0 -0.25913625974E+03 -0.66800153191E+02 -0.65815945781E+02  0.27558229315E+03  0.00000000000E+00 0. -1.
          2    1    6    6  502    0  0.18283181714E+03 -0.30826956548E+02 -0.34761617956E+03  0.39397307383E+03  0.00000000000E+00 0. -1.
          1    1    5    5  503    0  0.20748246239E+02  0.83431776646E+02  0.14040558366E+03  0.16463620197E+03  0.00000000000E+00 0. -1.
         -2    1    5    5    0  503 -0.90606034476E+01  0.11519993812E+03  0.72644033105E+02  0.13649276839E+03  0.00000000000E+00 0.  1.
         -1    1    6    6    0  502  0.10977284848E+03 -0.66580378759E+02 -0.35698757322E+03  0.37937205028E+03  0.00000000000E+00 0.  1.
<mgrwt>
<rscale>  0 0.13052282E+04</rscale>
<asrwt>0</asrwt>
<pdfrwt beam="1">  1        1 0.14972972E+00 0.13052282E+04</pdfrwt>
<pdfrwt beam="2">  1       -1 0.67325281E-01 0.13052282E+04</pdfrwt>
<totfact> 0.34863127E+01</totfact>
</mgrwt>
</event>
<event>
12    1  0.1960998E-007  0.1032648E+04  0.7818608E-02  0.9273445E-01
         -2   -1    0    0    0  501 -0.00000000000E+00  0.00000000000E+00  0.17302038167E+03  0.17302038167E+03  0.00000000000E+00 0. -1.
          2   -1    0    0  501    0  0.00000000000E+00 -0.00000000000E+00 -0.15408033655E+04  0.15408033655E+04  0.00000000000E+00 0.  1.
         23    2    1    2    0    0  0.62441006474E+02 -0.45628499535E+02 -0.10546232366E+03  0.15976759777E+03  0.91774420883E+02 0.  0.
        254    2    1    2    0    0 -0.62441006474E+02  0.45628499535E+02 -0.12623206602E+04  0.15540561494E+04  0.90313688170E+03 0.  0.
        -24    2    4    4    0    0 -0.10797988561E+03 -0.32662624382E+03 -0.10673512018E+04  0.11240404218E+04  0.76706734704E+02 0.  0.
         24    2    4    4    0    0  0.45538879137E+02  0.37225474336E+03 -0.19496945837E+03  0.43001572753E+03  0.79076246490E+02 0.  0.
         11    1    3    3    0    0  0.12694965373E+02 -0.49552830141E+01 -0.93398923100E+02  0.94387900770E+02  0.00000000000E+00 0.  1.
        -11    1    3    3    0    0  0.49746041102E+02 -0.40673216521E+02 -0.12063400557E+02  0.65379697005E+02  0.00000000000E+00 0. -1.
          4    1    6    6  502    0 -0.14885688698E+02  0.18195158685E+03 -0.10903915835E+03  0.21264407290E+03  0.00000000000E+00 0. -1.
          1    1    5    5  503    0 -0.73691876801E+02 -0.22512522798E+03 -0.61171544201E+03  0.65597838606E+03  0.00000000000E+00 0. -1.
         -2    1    5    5    0  503 -0.34288008810E+02 -0.10150101584E+03 -0.45563575976E+03  0.46806203578E+03  0.00000000000E+00 0.  1.
         -3    1    6    6    0  502  0.60424567835E+02  0.19030315651E+03 -0.85930300024E+02  0.21737165463E+03  0.00000000000E+00 0.  1.
<mgrwt>
<rscale>  0 0.10326478E+04</rscale>
<asrwt>0</asrwt>
<pdfrwt beam="1">  1        2 0.23704666E+00 0.10326478E+04</pdfrwt>
<pdfrwt beam="2">  1       -2 0.26618521E-01 0.10326478E+04</pdfrwt>
<totfact> 0.15341222E+02</totfact>
</mgrwt>
</event>
<event>
12    1  0.1960998E-007  0.1664359E+04  0.7818608E-02  0.8781957E-01
         -1   -1    0    0    0  501 -0.00000000000E+00  0.00000000000E+00  0.60812521018E+03  0.60812521018E+03  0.00000000000E+00 0.  1.
          1   -1    0    0  501    0  0.00000000000E+00 -0.00000000000E+00 -0.11387828800E+04  0.11387828800E+04  0.00000000000E+00 0. -1.
         23    2    1    2    0    0 -0.56980270673E+03 -0.11816113421E+03 -0.14684075232E+03  0.60742116032E+03  0.93600647541E+02 0.  0.
        254    2    1    2    0    0  0.56980270673E+03  0.11816113421E+03 -0.38381691747E+03  0.11394869298E+04  0.90137553710E+03 0.  0.
        -24    2    4    4    0    0  0.36199160787E+03  0.45865386055E+03 -0.42921864065E+03  0.73004129224E+03  0.85617515273E+02 0.  0.
         24    2    4    4    0    0  0.20781109887E+03 -0.34049272634E+03  0.45401723182E+02  0.40944563760E+03  0.80396916441E+02 0.  0.
         11    1    3    3    0    0 -0.53387709694E+03 -0.10014156707E+03 -0.11285713574E+03  0.55478808673E+03  0.00000000000E+00 0.  1.
        -11    1    3    3    0    0 -0.35925609796E+02 -0.18019567141E+02 -0.33983616585E+02  0.52633073588E+02  0.00000000000E+00 0. -1.
          4    1    6    6  502    0  0.17877597576E+03 -0.32987973164E+03  0.48701367136E+02  0.37835606248E+03  0.00000000000E+00 0. -1.
          3    1    5    5  503    0  0.30795097245E+03  0.33204361506E+03 -0.32745205455E+03  0.55884846941E+03  0.00000000000E+00 0. -1.
         -4    1    5    5    0  503  0.54040635416E+02  0.12661024549E+03 -0.10176658610E+03  0.17119282282E+03  0.00000000000E+00 0.  1.
         -3    1    6    6    0  502  0.29035123113E+02 -0.10612994704E+02 -0.32996439535E+01  0.31089575118E+02  0.00000000000E+00 0.  1.
<mgrwt>
<rscale>  0 0.16643588E+04</rscale>
<asrwt>0</asrwt>
<pdfrwt beam="1">  1        1 0.17519737E+00 0.16643588E+04</pdfrwt>
<pdfrwt beam="2">  1       -1 0.93557725E-01 0.16643588E+04</pdfrwt>
<totfact> 0.12543612E+01</totfact>
</mgrwt>
</event>
<event>
12    1  0.1960998E-007  0.2957044E+04  0.7818608E-02  0.8256105E-01
         -1   -1    0    0    0  501 -0.00000000000E+00  0.00000000000E+00  0.20874628828E+04  0.20874628828E+04  0.00000000000E+00 0.  1.
          1   -1    0    0  501    0  0.00000000000E+00 -0.00000000000E+00 -0.10472175458E+04  0.10472175458E+04  0.00000000000E+00 0. -1.
         23    2    1    2    0    0  0.10273751306E+04  0.83345406570E+03  0.69938558906E+03  0.14990547966E+04  0.88767913264E+02 0.  0.
        254    2    1    2    0    0 -0.10273751306E+04 -0.83345406570E+03  0.34085974792E+03  0.16356256320E+04  0.89941119722E+03 0.  0.
        -24    2    4    4    0    0 -0.11517741314E+04 -0.81800206095E+03  0.19770052726E+03  0.14288122097E+04  0.81901225955E+02 0.  0.
         24    2    4    4    0    0  0.12439900075E+03 -0.15452004744E+02  0.14315922067E+03  0.20681342226E+03  0.81014525413E+02 0.  0.
         11    1    3    3    0    0  0.32415552601E+03  0.27534248998E+03  0.17974006533E+03  0.46173237152E+03  0.00000000000E+00 0. -1.
        -11    1    3    3    0    0  0.70321960459E+03  0.55811157572E+03  0.51964552373E+03  0.10373224251E+04  0.00000000000E+00 0.  1.
          2    1    6    6  502    0  0.11636239689E+03  0.52016684476E+01  0.14327842296E+03  0.18465094435E+03  0.00000000000E+00 0. -1.
          3    1    5    5  503    0 -0.35117315789E+03 -0.24010602755E+03  0.22489562265E+02  0.42600384001E+03  0.00000000000E+00 0. -1.
         -4    1    5    5    0  503 -0.80060097347E+03 -0.57789603340E+03  0.17521096499E+03  0.10028083697E+04  0.00000000000E+00 0.  1.
         -1    1    6    6    0  502  0.80366038614E+01 -0.20653673191E+02 -0.11920229403E+00  0.22162477910E+02  0.00000000000E+00 0.  1.
<mgrwt>
<rscale>  0 0.29570443E+04</rscale>
<asrwt>0</asrwt>
<pdfrwt beam="1">  1        1 0.16111039E+00 0.29570443E+04</pdfrwt>
<pdfrwt beam="2">  1       -1 0.32114813E+00 0.29570443E+04</pdfrwt>
<totfact> 0.28573636E-01</totfact>
</mgrwt>
</event>
<event>
12    1  0.1960998E-007  0.2022243E+04  0.7818608E-02  0.8596292E-01
         -2   -1    0    0    0  501 -0.00000000000E+00  0.00000000000E+00  0.16972078325E+04  0.16972078325E+04  0.00000000000E+00 0.  1.
          2   -1    0    0  501    0  0.00000000000E+00 -0.00000000000E+00 -0.60238133575E+03  0.60238133575E+03  0.00000000000E+00 0. -1.
         23    2    1    2    0    0 -0.58340895679E+03 -0.12551985357E+02  0.10759255702E+04  0.12274547339E+04  0.92226504043E+02 0.  0.
        254    2    1    2    0    0  0.58340895679E+03  0.12551985357E+02  0.18900926604E+02  0.10721344344E+04  0.89921712456E+03 0.  0.
        -24    2    4    4    0    0  0.34308964331E+02 -0.72696068581E+00  0.39316616655E+03  0.40233088863E+03  0.78184882930E+02 0.  0.
         24    2    4    4    0    0  0.54909999246E+03  0.13278946042E+02 -0.37426523994E+03  0.66980354573E+03  0.82916752918E+02 0.  0.
         11    1    3    3    0    0 -0.12074175334E+03 -0.20682404890E+02  0.29965490521E+03  0.32372734683E+03  0.00000000000E+00 0. -1.
        -11    1    3    3    0    0 -0.46266720345E+03  0.81304195330E+01  0.77627066496E+03  0.90372738707E+03  0.00000000000E+00 0.  1.
          2    1    6    6  502    0  0.21825487273E+02 -0.15793536325E+02 -0.12521839755E+02  0.29708317947E+02  0.00000000000E+00 0. -1.
          3    1    5    5  503    0 -0.82511335695E+01  0.21918798513E+02  0.25347435093E+03  0.25455404438E+03  0.00000000000E+00 0. -1.
         -4    1    5    5    0  503  0.42560097900E+02 -0.22645759199E+02  0.13969181562E+03  0.14777684424E+03  0.00000000000E+00 0.  1.
         -1    1    6    6    0  502  0.52727450519E+03  0.29072482367E+02 -0.36174340019E+03  0.64009522779E+03  0.00000000000E+00 0.  1.
<mgrwt>
<rscale>  0 0.20222426E+04</rscale>
<asrwt>0</asrwt>
<pdfrwt beam="1">  1        2 0.92674053E-01 0.20222426E+04</pdfrwt>
<pdfrwt beam="2">  1       -2 0.26110889E+00 0.20222426E+04</pdfrwt>
<totfact> 0.25143406E+00</totfact>
</mgrwt>
</event>
<event>
12    1  0.1960998E-007  0.2641397E+04  0.7818608E-02  0.8354274E-01
          2   -1    0    0  501    0  0.00000000000E+00  0.00000000000E+00  0.37437656622E+04  0.37437656622E+04  0.00000000000E+00 0. -1.
         -2   -1    0    0    0  501 -0.00000000000E+00 -0.00000000000E+00 -0.46590629019E+03  0.46590629019E+03  0.00000000000E+00 0.  1.
         23    2    1    2    0    0  0.76273726968E+03  0.83331334482E+03  0.18854871379E+04  0.21999032982E+04  0.91288010264E+02 0.  0.
        254    2    1    2    0    0 -0.76273726968E+03 -0.83331334482E+03  0.13923722341E+04  0.20097686542E+04  0.90790436281E+03 0.  0.
        -24    2    4    4    0    0 -0.39586919005E+03 -0.41541671955E+03  0.83710059944E+02  0.58509895341E+03  0.77781390030E+02 0.  0.
         24    2    4    4    0    0 -0.36686807962E+03 -0.41789662527E+03  0.13086621741E+04  0.14246697008E+04  0.88641373588E+02 0.  0.
         11    1    3    3    0    0  0.49209383543E+03  0.56741722419E+03  0.13251452024E+04  0.15231967886E+04  0.00000000000E+00 0. -1.
        -11    1    3    3    0    0  0.27064343425E+03  0.26589612063E+03  0.56034193547E+03  0.67670650958E+03  0.00000000000E+00 0.  1.
          4    1    6    6  502    0 -0.22374421083E+03 -0.23008920077E+03  0.85467296239E+03  0.91294489693E+03  0.00000000000E+00 0. -1.
          3    1    5    5  503    0 -0.22018321018E+03 -0.21375390338E+03  0.81983197324E+02  0.31763598962E+03  0.00000000000E+00 0. -1.
         -4    1    5    5    0  503 -0.17568597988E+03 -0.20166281616E+03  0.17268626192E+01  0.26746296380E+03  0.00000000000E+00 0.  1.
         -3    1    6    6    0  502 -0.14312386880E+03 -0.18780742450E+03  0.45398921174E+03  0.51172480386E+03  0.00000000000E+00 0.  1.
<mgrwt>
<rscale>  0 0.26413966E+04</rscale>
<asrwt>0</asrwt>
<pdfrwt beam="1">  1        2 0.57596393E+00 0.26413966E+04</pdfrwt>
<pdfrwt beam="2">  1       -2 0.71677893E-01 0.26413966E+04</pdfrwt>
<totfact> 0.84347322E-01</totfact>
</mgrwt>
</event>
<event>
12    1  0.1960998E-007  0.1384649E+04  0.7818608E-02  0.8965006E-01
         -1   -1    0    0    0  501 -0.00000000000E+00  0.00000000000E+00  0.29474151122E+03  0.29474151122E+03  0.00000000000E+00 0.  1.
          1   -1    0    0  501    0  0.00000000000E+00 -0.00000000000E+00 -0.16262144624E+04  0.16262144624E+04  0.00000000000E+00 0. -1.
         23    2    1    2    0    0  0.28988996960E+03 -0.26218972185E+03 -0.34401273098E+03  0.52880213387E+03  0.92234987913E+02 0.  0.
        254    2    1    2    0    0 -0.28988996960E+03  0.26218972185E+03 -0.98746022023E+03  0.13921538398E+04  0.90013053628E+03 0.  0.
        -24    2    4    4    0    0 -0.43937266016E+03  0.48280098226E+03 -0.48358426300E+03  0.81701160358E+03  0.86655051756E+02 0.  0.
         24    2    4    4    0    0  0.14948269056E+03 -0.22061126042E+03 -0.50387595723E+03  0.57514223619E+03  0.76702076734E+02 0.  0.
         11    1    3    3    0    0  0.15934695667E+03 -0.14083910493E+03 -0.12594528689E+03  0.24716254038E+03  0.00000000000E+00 0. -1.
        -11    1    3    3    0    0  0.13054301292E+03 -0.12135061692E+03 -0.21806744409E+03  0.28163959349E+03  0.00000000000E+00 0.  1.
          4    1    6    6  502    0  0.65998492092E+01 -0.41832385411E+02 -0.13057721573E+03  0.13727314285E+03  0.00000000000E+00 0. -1.
          3    1    5    5  503    0 -0.19403267744E+03  0.20346107849E+03 -0.15617942833E+03  0.32161639294E+03  0.00000000000E+00 0. -1.
         -4    1    5    5    0  503 -0.24533998272E+03  0.27933990377E+03 -0.32740483466E+03  0.49539521064E+03  0.00000000000E+00 0.  1.
         -3    1    6    6    0  502  0.14288284136E+03 -0.17877887500E+03 -0.37329874150E+03  0.43786909334E+03  0.00000000000E+00 0.  1.
<mgrwt>
<rscale>  0 0.13846486E+04</rscale>
<asrwt>0</asrwt>
<pdfrwt beam="1">  1        1 0.25018684E+00 0.13846486E+04</pdfrwt>
<pdfrwt beam="2">  1       -1 0.45344847E-01 0.13846486E+04</pdfrwt>
<totfact> 0.25233072E+01</totfact>
</mgrwt>
</event>
<event>
12    1  0.1960998E-007  0.2019857E+04  0.7818608E-02  0.8597393E-01
         -2   -1    0    0    0  501 -0.00000000000E+00  0.00000000000E+00  0.84941337881E+03  0.84941337881E+03  0.00000000000E+00 0.  1.
          2   -1    0    0  501    0  0.00000000000E+00 -0.00000000000E+00 -0.12007761905E+04  0.12007761905E+04  0.00000000000E+00 0. -1.
         23    2    1    2    0    0  0.69081822139E+03  0.15255559369E+03  0.25349221641E+03  0.75700093768E+03  0.91044449049E+02 0.  0.
        254    2    1    2    0    0 -0.69081822139E+03 -0.15255559369E+03 -0.60485502815E+03  0.12931886317E+04  0.89776623229E+03 0.  0.
        -24    2    4    4    0    0 -0.61326148684E+03  0.56107430564E+02 -0.78149766744E+03  0.99815732285E+03  0.79635054713E+02 0.  0.
         24    2    4    4    0    0 -0.77556734550E+02 -0.20866302426E+03  0.17664263929E+03  0.29503130882E+03  0.79281437958E+02 0.  0.
         13    1    3    3    0    0  0.51654173406E+03  0.14887554034E+03  0.21166073802E+03  0.57773658146E+03  0.00000000000E+00 0.  1.
        -13    1    3    3    0    0  0.17427648733E+03  0.36800533549E+01  0.41831478394E+02  0.17926435622E+03  0.00000000000E+00 0. -1.
          2    1    6    6  502    0 -0.16767547751E+02 -0.58773168505E+02  0.97222209754E+02  0.11483725033E+03  0.00000000000E+00 0. -1.
          1    1    5    5  503    0 -0.23623525075E+02  0.83736157272E+01 -0.12678137947E+02  0.28087783093E+02  0.00000000000E+00 0. -1.
         -2    1    5    5    0  503 -0.58963796176E+03  0.47733814836E+02 -0.76881952949E+03  0.97006953976E+03  0.00000000000E+00 0.  1.
         -1    1    6    6    0  502 -0.60789186799E+02 -0.14988985575E+03  0.79420429536E+02  0.18019405849E+03  0.00000000000E+00 0.  1.
<mgrwt>
<rscale>  0 0.20198568E+04</rscale>
<asrwt>0</asrwt>
<pdfrwt beam="1">  1        2 0.18473480E+00 0.20198568E+04</pdfrwt>
<pdfrwt beam="2">  1       -2 0.13067898E+00 0.20198568E+04</pdfrwt>
<totfact> 0.75230526E+00</totfact>
</mgrwt>
</event>
<event>
12    1  0.1960998E-007  0.1868524E+04  0.7818608E-02  0.8670685E-01
         -2   -1    0    0    0  501 -0.00000000000E+00  0.00000000000E+00  0.35054708000E+03  0.35054708000E+03  0.00000000000E+00 0. -1.
          2   -1    0    0  501    0  0.00000000000E+00 -0.00000000000E+00 -0.24899523618E+04  0.24899523618E+04  0.00000000000E+00 0.  1.
         23    2    1    2    0    0  0.55010123939E+03 -0.11431731064E+03 -0.15310935576E+03  0.58971101929E+03  0.92934333651E+02 0.  0.
        254    2    1    2    0    0 -0.55010123939E+03  0.11431731064E+03 -0.19862959261E+04  0.22507884225E+04  0.89721635962E+03 0.  0.
        -24    2    4    4    0    0 -0.40135807944E+03 -0.36176045574E+03 -0.90080758051E+03  0.10535043139E+04  0.80362347864E+02 0.  0.
         24    2    4    4    0    0 -0.14874315994E+03  0.47607776638E+03 -0.10854883456E+04  0.11972841087E+04  0.80185542554E+02 0.  0.
         11    1    3    3    0    0  0.35785191699E+03 -0.35437186520E+02 -0.12117187221E+03  0.37946859066E+03  0.00000000000E+00 0. -1.
        -11    1    3    3    0    0  0.19224932239E+03 -0.78880124120E+02 -0.31937483543E+02  0.21024242863E+03  0.00000000000E+00 0.  1.
          2    1    6    6  502    0 -0.13584337943E+03  0.33552444617E+03 -0.73055188055E+03  0.81531351509E+03  0.00000000000E+00 0. -1.
          3    1    5    5  503    0 -0.38390291823E+03 -0.31606552851E+03 -0.81458529001E+03  0.95437312601E+03  0.00000000000E+00 0. -1.
         -4    1    5    5    0  503 -0.17455161214E+02 -0.45694927230E+02 -0.86222290494E+02  0.99131187855E+02  0.00000000000E+00 0.  1.
         -1    1    6    6    0  502 -0.12899780513E+02  0.14055332021E+03 -0.35493646502E+03  0.38197059358E+03  0.00000000000E+00 0.  1.
<mgrwt>
<rscale>  0 0.18685240E+04</rscale>
<asrwt>0</asrwt>
<pdfrwt beam="1">  1        2 0.38306960E+00 0.18685240E+04</pdfrwt>
<pdfrwt beam="2">  1       -2 0.53930320E-01 0.18685240E+04</pdfrwt>
<totfact> 0.10737402E+01</totfact>
</mgrwt>
</event>
<event>
12    1  0.1960998E-007  0.2034159E+04  0.7818608E-02  0.8590814E-01
          2   -1    0    0  501    0  0.00000000000E+00  0.00000000000E+00  0.35854835011E+04  0.35854835011E+04  0.00000000000E+00 0. -1.
         -2   -1    0    0    0  501 -0.00000000000E+00 -0.00000000000E+00 -0.28851093436E+03  0.28851093436E+03  0.00000000000E+00 0.  1.
         23    2    1    2    0    0  0.66811812873E+03 -0.69398740077E+02  0.45284432889E+03  0.81540598926E+03  0.92848920509E+02 0.  0.
        254    2    1    2    0    0 -0.66811812873E+03  0.69398740077E+02  0.28441282379E+04  0.30585884462E+04  0.90260724065E+03 0.  0.
        -24    2    4    4    0    0  0.14584964737E+03 -0.96044886246E+02  0.16819629738E+03  0.25539908052E+03  0.80261797051E+02 0.  0.
         24    2    4    4    0    0 -0.81396777611E+03  0.16544362632E+03  0.26759319405E+04  0.28031893657E+04  0.85695599833E+02 0.  0.
         13    1    3    3    0    0  0.43212484973E+03 -0.48370556399E+01  0.31299235124E+03  0.53359113074E+03  0.00000000000E+00 0. -1.
        -13    1    3    3    0    0  0.23599327900E+03 -0.64561684437E+02  0.13985197765E+03  0.28181485852E+03  0.00000000000E+00 0.  1.
          2    1    6    6  502    0 -0.51811446688E+03  0.14691881138E+03  0.17398592096E+04  0.18213011302E+04  0.00000000000E+00 0. -1.
          3    1    5    5  503    0  0.64609188864E+02 -0.89916323194E+02  0.97385846991E+02  0.14745608043E+03  0.00000000000E+00 0. -1.
         -4    1    5    5    0  503  0.81240458509E+02 -0.61285630520E+01  0.70810450387E+02  0.10794300009E+03  0.00000000000E+00 0.  1.
         -1    1    6    6    0  502 -0.29585330923E+03  0.18524814941E+02  0.93607273091E+03  0.98188823544E+03  0.00000000000E+00 0.  1.
<mgrwt>
<rscale>  0 0.20341595E+04</rscale>
<asrwt>0</asrwt>
<pdfrwt beam="1">  1        2 0.55161282E+00 0.20341595E+04</pdfrwt>
<pdfrwt beam="2">  1       -2 0.44386300E-01 0.20341595E+04</pdfrwt>
<totfact> 0.31725612E+00</totfact>
</mgrwt>
</event>
<event>
12    1  0.1960998E-007  0.2912412E+04  0.7818608E-02  0.8269194E-01
          1   -1    0    0  501    0  0.00000000000E+00  0.00000000000E+00  0.11930396348E+04  0.11930396348E+04  0.00000000000E+00 0.  1.
         -1   -1    0    0    0  501 -0.00000000000E+00 -0.00000000000E+00 -0.17774230986E+04  0.17774230986E+04  0.00000000000E+00 0. -1.
         23    2    1    2    0    0 -0.10943069237E+04  0.71078338104E+03 -0.91785828111E+02  0.13112946855E+04  0.91369886642E+02 0.  0.
        254    2    1    2    0    0  0.10943069237E+04 -0.71078338104E+03 -0.49259763569E+03  0.16591680478E+04  0.89859085364E+03 0.  0.
        -24    2    4    4    0    0  0.52986144575E+03  0.11302006535E+03 -0.34331327434E+03  0.64625579054E+03  0.79093966963E+02 0.  0.
         24    2    4    4    0    0  0.56444547791E+03 -0.82380344639E+03 -0.14928436135E+03  0.10129122573E+04  0.80340553626E+02 0.  0.
         11    1    3    3    0    0 -0.12821969483E+03  0.57665175835E+02 -0.28407686244E+02  0.14343137483E+03  0.00000000000E+00 0. -1.
        -11    1    3    3    0    0 -0.96608722882E+03  0.65311820521E+03 -0.63378141867E+02  0.11678633107E+04  0.00000000000E+00 0.  1.
          2    1    6    6  502    0  0.54204555559E+03 -0.75718104053E+03 -0.13179774764E+03  0.94048240747E+03  0.00000000000E+00 0. -1.
          1    1    5    5  503    0  0.48175847471E+03  0.12525741400E+03 -0.30835197512E+03  0.58554383976E+03  0.00000000000E+00 0. -1.
         -2    1    5    5    0  503  0.48102971033E+02 -0.12237348657E+02 -0.34961299226E+02  0.60711950783E+02  0.00000000000E+00 0.  1.
         -1    1    6    6    0  502  0.22399922316E+02 -0.66622405859E+02 -0.17486613710E+02  0.72429849795E+02  0.00000000000E+00 0.  1.
<mgrwt>
<rscale>  0 0.29124122E+04</rscale>
<asrwt>0</asrwt>
<pdfrwt beam="1">  1        1 0.18354456E+00 0.29124122E+04</pdfrwt>
<pdfrwt beam="2">  1       -1 0.27344971E+00 0.29124122E+04</pdfrwt>
<totfact> 0.45492700E-01</totfact>
</mgrwt>
</event>
<event>
12    1  0.1960998E-007  0.1887158E+04  0.7818608E-02  0.8661275E-01
          1   -1    0    0  501    0  0.00000000000E+00  0.00000000000E+00  0.11005997951E+04  0.11005997951E+04  0.00000000000E+00 0. -1.
         -1   -1    0    0    0  501 -0.00000000000E+00 -0.00000000000E+00 -0.80896050029E+03  0.80896050029E+03  0.00000000000E+00 0.  1.
         23    2    1    2    0    0  0.63796944547E+03  0.27872256176E+03 -0.93537198913E+02  0.70859990208E+03  0.93130735276E+02 0.  0.
        254    2    1    2    0    0 -0.63796944547E+03 -0.27872256176E+03  0.38517649372E+03  0.12009603933E+04  0.89958526843E+03 0.  0.
        -24    2    4    4    0    0 -0.32539653578E+03 -0.49362515160E+03 -0.72999371555E+02  0.60082248066E+03  0.78166803866E+02 0.  0.
         24    2    4    4    0    0 -0.31257290969E+03  0.21490258984E+03  0.45817586528E+03  0.60013791264E+03  0.79721036634E+02 0.  0.
         13    1    3    3    0    0  0.44191450908E+03  0.18756472342E+03 -0.20947860493E+02  0.48052863771E+03  0.00000000000E+00 0. -1.
        -13    1    3    3    0    0  0.19605493640E+03  0.91157838341E+02 -0.72589338420E+02  0.22807126436E+03  0.00000000000E+00 0.  1.
          4    1    6    6  502    0 -0.19191538874E+03  0.15564568764E+03  0.34532201284E+03  0.42462264314E+03  0.00000000000E+00 0. -1.
          3    1    5    5  503    0 -0.25740263798E+03 -0.36885814900E+03 -0.86702567553E+02  0.45807181461E+03  0.00000000000E+00 0. -1.
         -4    1    5    5    0  503 -0.67993897804E+02 -0.12476700260E+03  0.13703195997E+02  0.14275066604E+03  0.00000000000E+00 0.  1.
         -3    1    6    6    0  502 -0.12065752095E+03  0.59256902196E+02  0.11285385244E+03  0.17551526950E+03  0.00000000000E+00 0.  1.
<mgrwt>
<rscale>  0 0.18871585E+04</rscale>
<asrwt>0</asrwt>
<pdfrwt beam="1">  1        1 0.16932305E+00 0.18871585E+04</pdfrwt>
<pdfrwt beam="2">  1       -1 0.12445546E+00 0.18871585E+04</pdfrwt>
<totfact> 0.67123369E+00</totfact>
</mgrwt>
</event>
<event>
12    1  0.1960998E-007  0.4313909E+04  0.7818608E-02  0.7944051E-01
         -2   -1    0    0    0  501 -0.00000000000E+00  0.00000000000E+00  0.20928122186E+04  0.20928122186E+04  0.00000000000E+00 0.  1.
          2   -1    0    0  501    0  0.00000000000E+00 -0.00000000000E+00 -0.22230623412E+04  0.22230623412E+04  0.00000000000E+00 0. -1.
         23    2    1    2    0    0 -0.98685887430E+03 -0.17509476764E+04 -0.52364446212E+03  0.20789819399E+04  0.90852519535E+02 0.  0.
        254    2    1    2    0    0  0.98685887430E+03  0.17509476764E+04  0.39339433951E+03  0.22368926199E+04  0.89956727571E+03 0.  0.
        -24    2    4    4    0    0  0.94564327872E+03  0.95947135933E+03  0.25050248760E+01  0.13496445670E+04  0.81900440209E+02 0.  0.
         24    2    4    4    0    0  0.41215595578E+02  0.79147631708E+03  0.39088931464E+03  0.88724805295E+03  0.79253803445E+02 0.  0.
         11    1    3    3    0    0 -0.77891630739E+02 -0.19016476441E+03 -0.43005886447E+02  0.20995058950E+03  0.00000000000E+00 0.  1.
        -11    1    3    3    0    0 -0.90896724356E+03 -0.15607829120E+04 -0.48063857567E+03  0.18690313504E+04  0.00000000000E+00 0. -1.
          2    1    6    6  502    0  0.14452346394E+02  0.22616027094E+02  0.17995803405E+02  0.32314144550E+02  0.00000000000E+00 0. -1.
          1    1    5    5  503    0  0.57174035196E+03  0.52448490518E+03  0.12164427492E+02  0.77596354239E+03  0.00000000000E+00 0. -1.
         -2    1    5    5    0  503  0.37390292676E+03  0.43498645415E+03 -0.96594026160E+01  0.57368102460E+03  0.00000000000E+00 0.  1.
         -1    1    6    6    0  502  0.26763249184E+02  0.76886028998E+03  0.37289351123E+03  0.85493390840E+03  0.00000000000E+00 0.  1.
<mgrwt>
<rscale>  0 0.43139087E+04</rscale>
<asrwt>0</asrwt>
<pdfrwt beam="1">  1        2 0.34200959E+00 0.43139087E+04</pdfrwt>
<pdfrwt beam="2">  1       -2 0.32197111E+00 0.43139087E+04</pdfrwt>
<totfact> 0.89743705E-02</totfact>
</mgrwt>
</event>
<event>
12    1  0.1960998E-007  0.1090261E+04  0.7818608E-02  0.9214736E-01
         -2   -1    0    0    0  501 -0.00000000000E+00  0.00000000000E+00  0.17914987021E+03  0.17914987021E+03  0.00000000000E+00 0.  1.
          2   -1    0    0  501    0  0.00000000000E+00 -0.00000000000E+00 -0.16587646981E+04  0.16587646981E+04  0.00000000000E+00 0. -1.
         23    2    1    2    0    0  0.11557240853E+03  0.79649073308E+02 -0.33816431671E+03  0.37801041144E+03  0.93998987065E+02 0.  0.
        254    2    1    2    0    0 -0.11557240853E+03 -0.79649073308E+02 -0.11414505111E+04  0.14599041568E+04  0.89928300400E+03 0.  0.
        -24    2    4    4    0    0 -0.18059506013E+03 -0.42435622287E+03 -0.33146327197E+03  0.57362733379E+03  0.80545873725E+02 0.  0.
         24    2    4    4    0    0  0.65022651602E+02  0.34470714956E+03 -0.80998723917E+03  0.88627682304E+03  0.79726502902E+02 0.  0.
         13    1    3    3    0    0  0.94091146156E+02  0.20695613498E+02 -0.26305248574E+03  0.28013936256E+03  0.00000000000E+00 0. -1.
        -13    1    3    3    0    0  0.21481262372E+02  0.58953459810E+02 -0.75111830971E+02  0.97871048879E+02  0.00000000000E+00 0.  1.
          4    1    6    6  502    0  0.64569638357E+02  0.25819378328E+03 -0.67900682959E+03  0.72930346397E+03  0.00000000000E+00 0. -1.
          1    1    5    5  503    0 -0.15945722879E+03 -0.30430663886E+03 -0.21656501898E+03  0.40611518774E+03  0.00000000000E+00 0. -1.
         -2    1    5    5    0  503 -0.21137831344E+02 -0.12004958402E+03 -0.11489825298E+03  0.16751214605E+03  0.00000000000E+00 0.  1.
         -3    1    6    6    0  502  0.45301324543E+00  0.86513366283E+02 -0.13098040958E+03  0.15697335908E+03  0.00000000000E+00 0.  1.
<mgrwt>
<rscale>  0 0.10902614E+04</rscale>
<asrwt>0</asrwt>
<pdfrwt beam="1">  1        2 0.25519457E+00 0.10902614E+04</pdfrwt>
<pdfrwt beam="2">  1       -2 0.27561518E-01 0.10902614E+04</pdfrwt>
<totfact> 0.12325279E+02</totfact>
</mgrwt>
</event>
<event>
12    1  0.1960998E-007  0.1218124E+04  0.7818608E-02  0.9097139E-01
          2   -1    0    0  501    0  0.00000000000E+00  0.00000000000E+00  0.10482244644E+04  0.10482244644E+04  0.00000000000E+00 0. -1.
         -2   -1    0    0    0  501 -0.00000000000E+00 -0.00000000000E+00 -0.35389028019E+03  0.35389028019E+03  0.00000000000E+00 0.  1.
         23    2    1    2    0    0  0.24090736669E+03  0.19731023239E+02  0.39753401369E+02  0.26086292002E+03  0.89685325003E+02 0.  0.
        254    2    1    2    0    0 -0.24090736669E+03 -0.19731023239E+02  0.65458078280E+03  0.11412518245E+04  0.90308031379E+03 0.  0.
        -24    2    4    4    0    0 -0.47688657852E+02  0.42033401447E+03  0.19923264803E+03  0.47424938542E+03  0.79145054958E+02 0.  0.
         24    2    4    4    0    0 -0.19321870883E+03 -0.44006503771E+03  0.45534813478E+03  0.66700243910E+03  0.80991499960E+02 0.  0.
         13    1    3    3    0    0  0.53945335691E+02  0.42428361435E+02  0.13057303449E+01  0.68643790896E+02  0.00000000000E+00 0.  1.
        -13    1    3    3    0    0  0.18696203100E+03 -0.22697338197E+02  0.38447671024E+02  0.19221912913E+03  0.00000000000E+00 0. -1.
          2    1    6    6  502    0 -0.44199113027E+02 -0.19899911820E+03  0.18275681493E+03  0.27377776396E+03  0.00000000000E+00 0. -1.
          1    1    5    5  503    0 -0.36230095668E+01  0.56553953954E+02  0.59236439914E+02  0.81978239306E+02  0.00000000000E+00 0. -1.
         -2    1    5    5    0  503 -0.44065648286E+02  0.36378006051E+03  0.13999620811E+03  0.39227114611E+03  0.00000000000E+00 0.  1.
         -1    1    6    6    0  502 -0.14901959581E+03 -0.24106591951E+03  0.27259131984E+03  0.39322467514E+03  0.00000000000E+00 0.  1.
<mgrwt>
<rscale>  0 0.12181239E+04</rscale>
<asrwt>0</asrwt>
<pdfrwt beam="1">  1        2 0.16126530E+00 0.12181239E+04</pdfrwt>
<pdfrwt beam="2">  1       -2 0.54444659E-01 0.12181239E+04</pdfrwt>
<totfact> 0.73441441E+01</totfact>
</mgrwt>
</event>
<event>
12    1  0.1960998E-007  0.1620396E+04  0.7818608E-02  0.8808115E-01
         -2   -1    0    0    0  501 -0.00000000000E+00  0.00000000000E+00  0.17680195182E+03  0.17680195182E+03  0.00000000000E+00 0.  1.
          2   -1    0    0  501    0  0.00000000000E+00 -0.00000000000E+00 -0.37127442782E+04  0.37127442782E+04  0.00000000000E+00 0. -1.
         23    2    1    2    0    0  0.17160939508E+03 -0.50895224019E+03 -0.89907868883E+03  0.10512555253E+04  0.91178525440E+02 0.  0.
        254    2    1    2    0    0 -0.17160939508E+03  0.50895224019E+03 -0.26368636375E+04  0.28382907047E+04  0.90242014279E+03 0.  0.
        -24    2    4    4    0    0  0.21561919310E+03 -0.37748678660E+02 -0.14878722616E+04  0.15058480166E+04  0.76797024433E+02 0.  0.
         24    2    4    4    0    0 -0.38722858818E+03  0.54670091885E+03 -0.11489913759E+04  0.13324426881E+04  0.79965373775E+02 0.  0.
         13    1    3    3    0    0  0.73726962761E+02 -0.10349758169E+03 -0.18935746289E+03  0.22804311699E+03  0.00000000000E+00 0. -1.
        -13    1    3    3    0    0  0.97882432318E+02 -0.40545465851E+03 -0.70972122594E+03  0.82321240832E+03  0.00000000000E+00 0.  1.
          4    1    6    6  502    0 -0.10307008645E+03  0.20536316491E+03 -0.36166698613E+03  0.42848626709E+03  0.00000000000E+00 0. -1.
          3    1    5    5  503    0  0.15014670200E+02 -0.27203004732E+02 -0.19172962077E+03  0.19423102550E+03  0.00000000000E+00 0. -1.
         -4    1    5    5    0  503  0.20060452290E+03 -0.10545673929E+02 -0.12961426409E+04  0.13116169911E+04  0.00000000000E+00 0.  1.
         -3    1    6    6    0  502 -0.28415850173E+03  0.34133775394E+03 -0.78732438975E+03  0.90395642100E+03  0.00000000000E+00 0.  1.
<mgrwt>
<rscale>  0 0.16203956E+04</rscale>
<asrwt>0</asrwt>
<pdfrwt beam="1">  1        2 0.57119136E+00 0.16203956E+04</pdfrwt>
<pdfrwt beam="2">  1       -2 0.27200303E-01 0.16203956E+04</pdfrwt>
<totfact> 0.68234364E+00</totfact>
</mgrwt>
</event>
<event>
12    1  0.1960998E-007  0.1265757E+04  0.7818608E-02  0.9057170E-01
          1   -1    0    0  501    0  0.00000000000E+00  0.00000000000E+00  0.44247058721E+03  0.44247058721E+03  0.00000000000E+00 0. -1.
         -1   -1    0    0    0  501 -0.00000000000E+00 -0.00000000000E+00 -0.90522425954E+03  0.90522425954E+03  0.00000000000E+00 0.  1.
         23    2    1    2    0    0  0.25043247552E+02 -0.24370114276E+02 -0.43361414539E+03  0.44451357886E+03  0.91378487538E+02 0.  0.
        254    2    1    2    0    0 -0.25043247552E+02  0.24370114276E+02 -0.29139526932E+02  0.90318126789E+03  0.90203449154E+03 0.  0.
        -24    2    4    4    0    0  0.17925417678E+03  0.48281669187E+02  0.38447520369E+03  0.43436375553E+03  0.79921901859E+02 0.  0.
         24    2    4    4    0    0 -0.20429742433E+03 -0.23911554911E+02 -0.41361473062E+03  0.46881751236E+03  0.80021962376E+02 0.  0.
         11    1    3    3    0    0  0.25286426748E+02 -0.54691791709E+02 -0.35818525908E+03  0.36321794461E+03  0.00000000000E+00 0.  1.
        -11    1    3    3    0    0 -0.24317919573E+00  0.30321677433E+02 -0.75428886309E+02  0.81295634251E+02  0.00000000000E+00 0. -1.
          2    1    6    6  502    0 -0.15608770712E+03  0.16797352191E+02 -0.31045602868E+03  0.34789146166E+03  0.00000000000E+00 0. -1.
          3    1    5    5  503    0  0.76114774879E+02  0.18914175921E+02  0.25200461337E+03  0.26392713040E+03  0.00000000000E+00 0. -1.
         -4    1    5    5    0  503  0.10313940190E+03  0.29367493266E+02  0.13247059033E+03  0.17043662513E+03  0.00000000000E+00 0.  1.
         -1    1    6    6    0  502 -0.48209717207E+02 -0.40708907102E+02 -0.10315870194E+03  0.12092605070E+03  0.00000000000E+00 0.  1.
<mgrwt>
<rscale>  0 0.12657569E+04</rscale>
<asrwt>0</asrwt>
<pdfrwt beam="1">  1        1 0.68072398E-01 0.12657569E+04</pdfrwt>
<pdfrwt beam="2">  1       -1 0.13926527E+00 0.12657569E+04</pdfrwt>
<totfact> 0.21933766E+01</totfact>
</mgrwt>
</event>
<event>
12    1  0.1960998E-007  0.1237217E+04  0.7818608E-02  0.9080891E-01
         -2   -1    0    0    0  501 -0.00000000000E+00  0.00000000000E+00  0.24527357404E+03  0.24527357404E+03  0.00000000000E+00 0. -1.
          2   -1    0    0  501    0  0.00000000000E+00 -0.00000000000E+00 -0.15602013883E+04  0.15602013883E+04  0.00000000000E+00 0.  1.
         23    2    1    2    0    0  0.23454056800E+03  0.73852447319E+02 -0.11653911482E+03  0.28724503459E+03  0.92004796636E+02 0.  0.
        254    2    1    2    0    0 -0.23454056800E+03 -0.73852447319E+02 -0.11983886995E+04  0.15182299278E+04  0.89912356024E+03 0.  0.
        -24    2    4    4    0    0 -0.26547665402E+03  0.31887519889E+03 -0.25518742407E+03  0.49364021045E+03  0.80004935328E+02 0.  0.
         24    2    4    4    0    0  0.30936086020E+02 -0.39272764620E+03 -0.94320127541E+03  0.10245897173E+04  0.70451383431E+02 0.  0.
         13    1    3    3    0    0  0.19017801465E+03  0.91255468788E+02 -0.74531055684E+02  0.22371883269E+03  0.00000000000E+00 0. -1.
        -13    1    3    3    0    0  0.44362553349E+02 -0.17403021469E+02 -0.42008059132E+02  0.63526201901E+02  0.00000000000E+00 0.  1.
          2    1    6    6  502    0  0.37065521370E+02 -0.38587287337E+03 -0.93535291715E+03  0.10125002750E+04  0.00000000000E+00 0. -1.
          3    1    5    5  503    0 -0.18757162578E+03  0.21175381397E+03 -0.21471215737E+03  0.35513955433E+03  0.00000000000E+00 0. -1.
         -4    1    5    5    0  503 -0.77905028238E+02  0.10712138491E+03 -0.40475266700E+02  0.13850065612E+03  0.00000000000E+00 0.  1.
         -1    1    6    6    0  502 -0.61294353506E+01 -0.68547728346E+01 -0.78483582526E+01  0.12089442319E+02  0.00000000000E+00 0.  1.
<mgrwt>
<rscale>  0 0.12372165E+04</rscale>
<asrwt>0</asrwt>
<pdfrwt beam="1">  1        2 0.24003097E+00 0.12372165E+04</pdfrwt>
<pdfrwt beam="2">  1       -2 0.37734398E-01 0.12372165E+04</pdfrwt>
<totfact> 0.76544497E+01</totfact>
</mgrwt>
</event>
<event>
12    1  0.1960998E-007  0.1713986E+04  0.7818608E-02  0.8753427E-01
          1   -1    0    0  501    0  0.00000000000E+00  0.00000000000E+00  0.76984472084E+03  0.76984472084E+03  0.00000000000E+00 0. -1.
         -1   -1    0    0    0  501 -0.00000000000E+00 -0.00000000000E+00 -0.95400721737E+03  0.95400721737E+03  0.00000000000E+00 0.  1.
         23    2    1    2    0    0  0.12600924846E+03  0.60088362587E+03 -0.12162021430E+03  0.63294474629E+03  0.94276788176E+02 0.  0.
        254    2    1    2    0    0 -0.12600924846E+03 -0.60088362587E+03 -0.62542282232E+02  0.10909071919E+04  0.89957073194E+03 0.  0.
        -24    2    4    4    0    0 -0.31601540366E+03 -0.23087829867E+03  0.32616726745E+03  0.51567143422E+03  0.79758495229E+02 0.  0.
         24    2    4    4    0    0  0.19000615521E+03 -0.37000532720E+03 -0.38870954968E+03  0.57523575770E+03  0.82430466132E+02 0.  0.
         11    1    3    3    0    0  0.77132915762E+02  0.24166004387E+03 -0.10998064778E+02  0.25390947388E+03  0.00000000000E+00 0. -1.
        -11    1    3    3    0    0  0.48876332695E+02  0.35922358200E+03 -0.11062214952E+03  0.37903527241E+03  0.00000000000E+00 0.  1.
          4    1    6    6  502    0  0.13913702307E+03 -0.29480093499E+03 -0.25624430961E+03  0.41464183178E+03  0.00000000000E+00 0. -1.
          1    1    5    5  503    0 -0.17615330668E+03 -0.12603714146E+03  0.23093910205E+03  0.31661998885E+03  0.00000000000E+00 0. -1.
         -2    1    5    5    0  503 -0.13986209698E+03 -0.10484115721E+03  0.95228165397E+02  0.19905144537E+03  0.00000000000E+00 0.  1.
         -3    1    6    6    0  502  0.50869132134E+02 -0.75204392213E+02 -0.13246524008E+03  0.16059392592E+03  0.00000000000E+00 0.  1.
<mgrwt>
<rscale>  0 0.17139865E+04</rscale>
<asrwt>0</asrwt>
<pdfrwt beam="1">  1        1 0.11843765E+00 0.17139865E+04</pdfrwt>
<pdfrwt beam="2">  1       -1 0.14677034E+00 0.17139865E+04</pdfrwt>
<totfact> 0.82660430E+00</totfact>
</mgrwt>
</event>
<event>
12    1  0.1960998E-007  0.2505973E+04  0.7818608E-02  0.8400861E-01
          2   -1    0    0  501    0  0.00000000000E+00  0.00000000000E+00  0.40470713132E+04  0.40470713132E+04  0.00000000000E+00 0.  1.
         -2   -1    0    0    0  501 -0.00000000000E+00 -0.00000000000E+00 -0.38792875601E+03  0.38792875601E+03  0.00000000000E+00 0. -1.
         23    2    1    2    0    0 -0.44237618418E+03 -0.68593350405E+03  0.32007581632E+03  0.88121758533E+03  0.88850684802E+02 0.  0.
        254    2    1    2    0    0  0.44237618418E+03  0.68593350405E+03  0.33390667409E+04  0.35537824839E+04  0.90210962885E+03 0.  0.
        -24    2    4    4    0    0  0.24323603864E+03 -0.18367777184E+03  0.10256869885E+04  0.10730496199E+04  0.80625020443E+02 0.  0.
         24    2    4    4    0    0  0.19914014554E+03  0.86961127589E+03  0.23133797524E+04  0.24807328641E+04  0.80181639352E+02 0.  0.
         11    1    3    3    0    0 -0.17009959840E+03 -0.23546767194E+03  0.15689660009E+03  0.33014457594E+03  0.00000000000E+00 0. -1.
        -11    1    3    3    0    0 -0.27227658578E+03 -0.45046583211E+03  0.16317921623E+03  0.55107300939E+03  0.00000000000E+00 0.  1.
          2    1    6    6  502    0 -0.56641937419E+01  0.35682685200E+02  0.11722668816E+03  0.12266798087E+03  0.00000000000E+00 0. -1.
          3    1    5    5  503    0  0.38734001949E+02 -0.48217956940E+02  0.32062325696E+03  0.32653417460E+03  0.00000000000E+00 0. -1.
         -4    1    5    5    0  503  0.20450203669E+03 -0.13545981490E+03  0.70506373155E+03  0.74651544526E+03  0.00000000000E+00 0.  1.
         -1    1    6    6    0  502  0.20480433928E+03  0.83392859069E+03  0.21961530642E+04  0.23580648832E+04  0.00000000000E+00 0.  1.
<mgrwt>
<rscale>  0 0.25059731E+04</rscale>
<asrwt>0</asrwt>
<pdfrwt beam="1">  1        2 0.62262633E+00 0.25059731E+04</pdfrwt>
<pdfrwt beam="2">  1       -2 0.59681350E-01 0.25059731E+04</pdfrwt>
<totfact> 0.73381549E-01</totfact>
</mgrwt>
</event>
<event>
12    1  0.1960998E-007  0.2482561E+04  0.7818608E-02  0.8409225E-01
          1   -1    0    0  501    0  0.00000000000E+00  0.00000000000E+00  0.10327110123E+04  0.10327110123E+04  0.00000000000E+00 0. -1.
         -1   -1    0    0    0  501 -0.00000000000E+00 -0.00000000000E+00 -0.14919739214E+04  0.14919739214E+04  0.00000000000E+00 0.  1.
         23    2    1    2    0    0 -0.19685499755E+03 -0.10174566443E+04  0.94794610891E+02  0.10446396339E+04  0.91192287687E+02 0.  0.
        254    2    1    2    0    0  0.19685499755E+03  0.10174566443E+04 -0.55405752000E+03  0.14800452998E+04  0.89976910414E+03 0.  0.
        -24    2    4    4    0    0  0.37270404824E+03  0.65637802331E+03  0.38575462329E+02  0.75966521232E+03  0.76568606220E+02 0.  0.
         24    2    4    4    0    0 -0.17584905070E+03  0.36107862100E+03 -0.59263298233E+03  0.72038008744E+03  0.80205732060E+02 0.  0.
         13    1    3    3    0    0 -0.20743614389E+01 -0.19103563971E+01 -0.50392076660E+01  0.57746039556E+01  0.00000000000E+00 0.  1.
        -13    1    3    3    0    0 -0.19478063611E+03 -0.10155462879E+04  0.99833818557E+02  0.10388650299E+04  0.00000000000E+00 0. -1.
          4    1    6    6  502    0 -0.15315007367E+03  0.31603002494E+03 -0.55756128010E+03  0.65894195708E+03  0.00000000000E+00 0. -1.
          3    1    5    5  503    0  0.27573729154E+03  0.53248253463E+03  0.51244965617E+02  0.60182617933E+03  0.00000000000E+00 0. -1.
         -4    1    5    5    0  503  0.96966756707E+02  0.12389548868E+03 -0.12669503287E+02  0.15783903299E+03  0.00000000000E+00 0.  1.
         -3    1    6    6    0  502 -0.22698977028E+02  0.45048596056E+02 -0.35071702233E+02  0.61438130361E+02  0.00000000000E+00 0.  1.
<mgrwt>
<rscale>  0 0.24825615E+04</rscale>
<asrwt>0</asrwt>
<pdfrwt beam="1">  1        1 0.15887862E+00 0.24825615E+04</pdfrwt>
<pdfrwt beam="2">  1       -1 0.22953445E+00 0.24825615E+04</pdfrwt>
<totfact> 0.12069864E+00</totfact>
</mgrwt>
</event>
<event>
12    1  0.1960998E-007  0.2908510E+04  0.7818608E-02  0.8270350E-01
         -2   -1    0    0    0  501 -0.00000000000E+00  0.00000000000E+00  0.97670477100E+03  0.97670477100E+03  0.00000000000E+00 0.  1.
          2   -1    0    0  501    0  0.00000000000E+00 -0.00000000000E+00 -0.21652984919E+04  0.21652984919E+04  0.00000000000E+00 0. -1.
         23    2    1    2    0    0  0.97446313026E+03  0.14024550754E+03 -0.14755233993E+04  0.17757093485E+04  0.82019473028E+02 0.  0.
        254    2    1    2    0    0 -0.97446313026E+03 -0.14024550754E+03  0.28692967839E+03  0.13662939144E+04  0.90287497777E+03 0.  0.
        -24    2    4    4    0    0 -0.47706908599E+03 -0.21441332725E+03 -0.28473287002E+03  0.60084462815E+03  0.79834029079E+02 0.  0.
         24    2    4    4    0    0 -0.49739404427E+03  0.74167819711E+02  0.57166254841E+03  0.76544928622E+03  0.78821569139E+02 0.  0.
         11    1    3    3    0    0  0.71493174858E+03  0.66428489279E+02 -0.10823769535E+04  0.12988764448E+04  0.00000000000E+00 0. -1.
        -11    1    3    3    0    0  0.25953138169E+03  0.73817018260E+02 -0.39314644578E+03  0.47683290374E+03  0.00000000000E+00 0.  1.
          2    1    6    6  502    0 -0.41359505018E+03  0.90843046163E+02  0.46894349292E+03  0.63183963482E+03  0.00000000000E+00 0. -1.
          3    1    5    5  503    0 -0.36467212884E+03 -0.12827200122E+03 -0.19254825954E+03  0.43187301386E+03  0.00000000000E+00 0. -1.
         -4    1    5    5    0  503 -0.11239695715E+03 -0.86141326029E+02 -0.92184610478E+02  0.16897161429E+03  0.00000000000E+00 0.  1.
         -1    1    6    6    0  502 -0.83798994088E+02 -0.16675226452E+02  0.10271905549E+03  0.13360965140E+03  0.00000000000E+00 0.  1.
<mgrwt>
<rscale>  0 0.29085098E+04</rscale>
<asrwt>0</asrwt>
<pdfrwt beam="1">  1        2 0.33312284E+00 0.29085098E+04</pdfrwt>
<pdfrwt beam="2">  1       -2 0.15026227E+00 0.29085098E+04</pdfrwt>
<totfact> 0.13892228E+00</totfact>
</mgrwt>
</event>
<event>
12    1  0.1960998E-007  0.2048436E+04  0.7818608E-02  0.8584304E-01
          2   -1    0    0  501    0  0.00000000000E+00  0.00000000000E+00  0.35347788931E+04  0.35347788931E+04  0.00000000000E+00 0. -1.
         -2   -1    0    0    0  501 -0.00000000000E+00 -0.00000000000E+00 -0.29677170344E+03  0.29677170344E+03  0.00000000000E+00 0.  1.
         23    2    1    2    0    0  0.75142671678E+03 -0.65299569239E+01  0.19440487626E+04  0.20862288493E+04  0.91326170123E+02 0.  0.
        254    2    1    2    0    0 -0.75142671678E+03  0.65299569239E+01  0.12939584271E+04  0.17453217472E+04  0.89840683398E+03 0.  0.
        -24    2    4    4    0    0 -0.26988681437E+03  0.13329088530E+03 -0.44930446686E+02  0.31469392728E+03  0.80051047192E+02 0.  0.
         24    2    4    4    0    0 -0.48153990241E+03 -0.12676092837E+03  0.13388888738E+04  0.14306278200E+04  0.78253002212E+02 0.  0.
         11    1    3    3    0    0  0.40101448235E+03 -0.28744431223E+02  0.11415849238E+04  0.12103119414E+04  0.00000000000E+00 0. -1.
        -11    1    3    3    0    0  0.35041223443E+03  0.22214474299E+02  0.80246383881E+03  0.87591690787E+03  0.00000000000E+00 0.  1.
          4    1    6    6  502    0 -0.67207870078E+02 -0.39422904722E+02  0.15916009522E+03  0.17720891380E+03  0.00000000000E+00 0. -1.
          3    1    5    5  503    0 -0.37424696717E+02  0.52313428046E+02 -0.19545674399E+02  0.67226007363E+02  0.00000000000E+00 0. -1.
         -4    1    5    5    0  503 -0.23246211765E+03  0.80977457252E+02 -0.25384772287E+02  0.24746791992E+03  0.00000000000E+00 0.  1.
         -3    1    6    6    0  502 -0.41433203233E+03 -0.87338023652E+02  0.11797287786E+04  0.12534189062E+04  0.00000000000E+00 0.  1.
<mgrwt>
<rscale>  0 0.20484358E+04</rscale>
<asrwt>0</asrwt>
<pdfrwt beam="1">  1        2 0.54381211E+00 0.20484358E+04</pdfrwt>
<pdfrwt beam="2">  1       -2 0.45657187E-01 0.20484358E+04</pdfrwt>
<totfact> 0.32522446E+00</totfact>
</mgrwt>
</event>
<event>
12    1  0.1960998E-007  0.1880144E+04  0.7818608E-02  0.8664803E-01
         -1   -1    0    0    0  501 -0.00000000000E+00  0.00000000000E+00  0.73813815656E+03  0.73813815656E+03  0.00000000000E+00 0.  1.
          1   -1    0    0  501    0  0.00000000000E+00 -0.00000000000E+00 -0.11972498975E+04  0.11972498975E+04  0.00000000000E+00 0. -1.
         23    2    1    2    0    0 -0.35607267921E+02 -0.50479559782E+03 -0.70734156201E+03  0.87443568003E+03  0.90659803998E+02 0.  0.
        254    2    1    2    0    0  0.35607267921E+02  0.50479559782E+03  0.24822982110E+03  0.10609523740E+04  0.89884115544E+03 0.  0.
        -24    2    4    4    0    0  0.14111224698E+03 -0.23007176160E+03  0.33371245900E+02  0.28370898750E+03  0.80817496890E+02 0.  0.
         24    2    4    4    0    0 -0.10550497906E+03  0.73486735942E+03  0.21485857520E+03  0.77724338650E+03  0.82351308268E+02 0.  0.
         13    1    3    3    0    0  0.30769110819E+02 -0.17684158924E+03 -0.24871716951E+03  0.30672449572E+03  0.00000000000E+00 0. -1.
        -13    1    3    3    0    0 -0.66376378740E+02 -0.32795400857E+03 -0.45862439250E+03  0.56771118431E+03  0.00000000000E+00 0.  1.
          2    1    6    6  502    0 -0.18625972263E+02  0.43457191436E+02  0.31041268958E+02  0.56559832998E+02  0.00000000000E+00 0. -1.
          3    1    5    5  503    0 -0.72198117922E+01 -0.21103883808E+02 -0.88430285133E+01  0.23993723083E+02  0.00000000000E+00 0. -1.
         -4    1    5    5    0  503  0.14833205877E+03 -0.20896787779E+03  0.42214274414E+02  0.25971526442E+03  0.00000000000E+00 0.  1.
         -1    1    6    6    0  502 -0.86879006798E+02  0.69141016798E+03  0.18381730624E+03  0.72068355350E+03  0.00000000000E+00 0.  1.
<mgrwt>
<rscale>  0 0.18801445E+04</rscale>
<asrwt>0</asrwt>
<pdfrwt beam="1">  1        1 0.18419229E+00 0.18801445E+04</pdfrwt>
<pdfrwt beam="2">  1       -1 0.11355972E+00 0.18801445E+04</pdfrwt>
<totfact> 0.71186204E+00</totfact>
</mgrwt>
</event>
<event>
12    1  0.1960998E-007  0.2518012E+04  0.7818608E-02  0.8396597E-01
          2   -1    0    0  501    0  0.00000000000E+00  0.00000000000E+00  0.25733481777E+04  0.25733481777E+04  0.00000000000E+00 0. -1.
         -2   -1    0    0    0  501 -0.00000000000E+00 -0.00000000000E+00 -0.61596641715E+03  0.61596641715E+03  0.00000000000E+00 0.  1.
         23    2    1    2    0    0 -0.76619456472E+03 -0.17303613914E+03  0.18204031797E+04  0.19849726375E+04  0.96192611533E+02 0.  0.
        254    2    1    2    0    0  0.76619456472E+03  0.17303613914E+03  0.13697858093E+03  0.12043419574E+04  0.90259669971E+03 0.  0.
        -24    2    4    4    0    0  0.57512288249E+03  0.47700669574E+03  0.29207514293E+03  0.80525273254E+03  0.69443188320E+02 0.  0.
         24    2    4    4    0    0  0.19107168223E+03 -0.30397055660E+03 -0.15509656200E+03  0.39908922488E+03  0.79440410632E+02 0.  0.
         11    1    3    3    0    0 -0.24299010083E+03 -0.10127966867E+03  0.60250272900E+03  0.65750383941E+03  0.00000000000E+00 0.  1.
        -11    1    3    3    0    0 -0.52320446389E+03 -0.71756470464E+02  0.12179004507E+04  0.13274687980E+04  0.00000000000E+00 0. -1.
          4    1    6    6  502    0  0.10593705020E+03 -0.17621262252E+03 -0.13071770421E+03  0.24364044232E+03  0.00000000000E+00 0. -1.
          3    1    5    5  503    0  0.29359594976E+03  0.19884963171E+03  0.14286710990E+03  0.38229670262E+03  0.00000000000E+00 0. -1.
         -4    1    5    5    0  503  0.28152693273E+03  0.27815706403E+03  0.14920803303E+03  0.42295602992E+03  0.00000000000E+00 0.  1.
         -3    1    6    6    0  502  0.85134632031E+02 -0.12775793408E+03 -0.24378857783E+02  0.15544878256E+03  0.00000000000E+00 0.  1.
<mgrwt>
<rscale>  0 0.25180120E+04</rscale>
<asrwt>0</asrwt>
<pdfrwt beam="1">  1        2 0.39589971E+00 0.25180120E+04</pdfrwt>
<pdfrwt beam="2">  1       -2 0.94764066E-01 0.25180120E+04</pdfrwt>
<totfact> 0.26333071E+00</totfact>
</mgrwt>
</event>
<event>
12    1  0.1960998E-007  0.1253089E+04  0.7818608E-02  0.9067617E-01
         -1   -1    0    0    0  501 -0.00000000000E+00  0.00000000000E+00  0.12903817418E+03  0.12903817418E+03  0.00000000000E+00 0.  1.
          1   -1    0    0  501    0  0.00000000000E+00 -0.00000000000E+00 -0.30421830563E+04  0.30421830563E+04  0.00000000000E+00 0. -1.
         23    2    1    2    0    0 -0.27547550321E+03  0.79487889474E+02 -0.85517159746E+03  0.90662705065E+03  0.91918825158E+02 0.  0.
        254    2    1    2    0    0  0.27547550321E+03 -0.79487889474E+02 -0.20579732847E+04  0.22645941798E+04  0.90051523116E+03 0.  0.
        -24    2    4    4    0    0 -0.31789720926E+03  0.16475929741E+02 -0.88670304519E+03  0.94544507127E+03  0.79334737161E+02 0.  0.
         24    2    4    4    0    0  0.59337271247E+03 -0.95963819215E+02 -0.11712702395E+04  0.13191491086E+04  0.83547389398E+02 0.  0.
         11    1    3    3    0    0 -0.13641116603E+03  0.69455692734E+02 -0.55379748599E+03  0.57456396943E+03  0.00000000000E+00 0. -1.
        -11    1    3    3    0    0 -0.13906433718E+03  0.10032196741E+02 -0.30137411147E+03  0.33206308122E+03  0.00000000000E+00 0.  1.
          4    1    6    6  502    0  0.24647734664E+03 -0.81126181994E+02 -0.48585409615E+03  0.55080553969E+03  0.00000000000E+00 0. -1.
          1    1    5    5  503    0 -0.22718229213E+03 -0.23722088727E+02 -0.63973971987E+03  0.67929481120E+03  0.00000000000E+00 0. -1.
         -2    1    5    5    0  503 -0.90714917131E+02  0.40198018468E+02 -0.24696332533E+03  0.26615026007E+03  0.00000000000E+00 0.  1.
         -3    1    6    6    0  502  0.34689536583E+03 -0.14837637221E+02 -0.68541614331E+03  0.76834356887E+03  0.00000000000E+00 0.  1.
<mgrwt>
<rscale>  0 0.12530886E+04</rscale>
<asrwt>0</asrwt>
<pdfrwt beam="1">  1        1 0.46802817E+00 0.12530886E+04</pdfrwt>
<pdfrwt beam="2">  1       -1 0.19852027E-01 0.12530886E+04</pdfrwt>
<totfact> 0.11504807E+01</totfact>
</mgrwt>
</event>
<event>
12    1  0.2273288E-007  0.3183327E+04  0.7818608E-02  0.8193234E-01
         -2   -1    0    0    0  501 -0.00000000000E+00  0.00000000000E+00  0.12107482695E+04  0.12107482695E+04  0.00000000000E+00 0.  1.
          2   -1    0    0  501    0  0.00000000000E+00 -0.00000000000E+00 -0.20924193240E+04  0.20924193240E+04  0.00000000000E+00 0. -1.
         23    2    1    2    0    0  0.33866760257E+03  0.12172991022E+04 -0.11677635305E+04  0.17227582537E+04  0.87815079718E+02 0.  0.
        254    2    1    2    0    0 -0.33866760257E+03 -0.12172991022E+04  0.28609247594E+03  0.15804093399E+04  0.90516955737E+03 0.  0.
        -24    2    4    4    0    0 -0.40607333711E+03 -0.12965677645E+04  0.12154526674E+03  0.13668071652E+04  0.86052610051E+02 0.  0.
         24    2    4    4    0    0  0.67405734535E+02  0.79268662368E+02  0.16454720920E+03  0.21360217472E+03  0.87880891599E+02 0.  0.
         11    1    3    3    0    0  0.26565540264E+03  0.98717826499E+03 -0.98856225570E+03  0.14220931943E+04  0.00000000000E+00 0. -1.
        -11    1    3    3    0    0  0.73012199936E+02  0.23012083719E+03 -0.17920127478E+03  0.30066505937E+03  0.00000000000E+00 0.  1.
          2    1    6    6  502    0  0.70434319228E+02  0.59836622458E+02  0.16973301292E+03  0.19326331879E+03  0.00000000000E+00 0. -1.
          3    1    5    5  503    0 -0.37257467085E+03 -0.11062419160E+04  0.87423127195E+02  0.11705664719E+04  0.00000000000E+00 0. -1.
         -4    1    5    5    0  503 -0.33498666255E+02 -0.19032584857E+03  0.34122139548E+02  0.19624069323E+03  0.00000000000E+00 0.  1.
         -1    1    6    6    0  502 -0.30285846928E+01  0.19432039910E+02 -0.51858037275E+01  0.20338855931E+02  0.00000000000E+00 0.  1.
<mgrwt>
<rscale>  0 0.31833272E+04</rscale>
<asrwt>0</asrwt>
<pdfrwt beam="1">  1        2 0.32191066E+00 0.31833272E+04</pdfrwt>
<pdfrwt beam="2">  1       -2 0.18626897E+00 0.31833272E+04</pdfrwt>
<totfact> 0.82185169E-01</totfact>
</mgrwt>
</event>
<event>
12    1  0.1960998E-007  0.2112427E+04  0.7818608E-02  0.8555789E-01
          2   -1    0    0  501    0  0.00000000000E+00  0.00000000000E+00  0.13453954498E+04  0.13453954498E+04  0.00000000000E+00 0.  1.
         -2   -1    0    0    0  501 -0.00000000000E+00 -0.00000000000E+00 -0.82918875685E+03  0.82918875685E+03  0.00000000000E+00 0. -1.
         23    2    1    2    0    0  0.57802906329E+03  0.58215365471E+03 -0.63511140680E+02  0.82704049296E+03  0.83317683004E+02 0.  0.
        254    2    1    2    0    0 -0.57802906329E+03 -0.58215365471E+03  0.57971783362E+03  0.13475437137E+04  0.89820978506E+03 0.  0.
        -24    2    4    4    0    0  0.17027866541E+03 -0.23554026941E+03 -0.51427706797E+02  0.30603590741E+03  0.80864857559E+02 0.  0.
         24    2    4    4    0    0 -0.74830772870E+03 -0.34661338530E+03  0.63114554041E+03  0.10415078063E+04  0.79300199520E+02 0.  0.
         11    1    3    3    0    0  0.45074425245E+03  0.49961095071E+03 -0.51148921525E+02  0.67483160518E+03  0.00000000000E+00 0. -1.
        -11    1    3    3    0    0  0.12728481084E+03  0.82542704005E+02 -0.12362219155E+02  0.15220888778E+03  0.00000000000E+00 0.  1.
          4    1    6    6  502    0 -0.57408287844E+03 -0.25787750167E+03  0.43863255588E+03  0.76711829353E+03  0.00000000000E+00 0. -1.
          3    1    5    5  503    0  0.17869660396E+03 -0.21558549877E+03 -0.48348179405E+02  0.28416039485E+03  0.00000000000E+00 0. -1.
         -4    1    5    5    0  503 -0.84179385524E+01 -0.19954770643E+02 -0.30795273919E+01  0.21875512562E+02  0.00000000000E+00 0.  1.
         -3    1    6    6    0  502 -0.17422485026E+03 -0.88735883626E+02  0.19251298453E+03  0.27438951275E+03  0.00000000000E+00 0.  1.
<mgrwt>
<rscale>  0 0.21124268E+04</rscale>
<asrwt>0</asrwt>
<pdfrwt beam="1">  1        2 0.20698392E+00 0.21124268E+04</pdfrwt>
<pdfrwt beam="2">  1       -2 0.12756750E+00 0.21124268E+04</pdfrwt>
<totfact> 0.65256049E+00</totfact>
</mgrwt>
</event>
<event>
12    1  0.1960998E-007  0.2134289E+04  0.7818608E-02  0.8546287E-01
         -1   -1    0    0    0  501 -0.00000000000E+00  0.00000000000E+00  0.11108961162E+04  0.11108961162E+04  0.00000000000E+00 0.  1.
          1   -1    0    0  501    0  0.00000000000E+00 -0.00000000000E+00 -0.10251162259E+04  0.10251162259E+04  0.00000000000E+00 0. -1.
         23    2    1    2    0    0  0.67805288167E+03 -0.16573665499E+03 -0.49440552912E+03  0.86008824448E+03  0.89947828934E+02 0.  0.
        254    2    1    2    0    0 -0.67805288167E+03  0.16573665499E+03  0.58018541933E+03  0.12759240976E+04  0.89674011450E+03 0.  0.
        -24    2    4    4    0    0 -0.39353021452E+03  0.14766950180E+03  0.79948301281E+03  0.90733009656E+03  0.86037810596E+02 0.  0.
         24    2    4    4    0    0 -0.28452266715E+03  0.18067153194E+02 -0.21929759347E+03  0.36859400107E+03  0.80563844092E+02 0.  0.
         13    1    3    3    0    0  0.43647190547E+03 -0.14976948973E+03 -0.33456223552E+03  0.56997413429E+03  0.00000000000E+00 0.  1.
        -13    1    3    3    0    0  0.24158097620E+03 -0.15967165260E+02 -0.15984329360E+03  0.29011411019E+03  0.00000000000E+00 0. -1.
          2    1    6    6  502    0 -0.26817683260E+03  0.34466963082E+02 -0.21404561449E+03  0.34485114204E+03  0.00000000000E+00 0. -1.
          1    1    5    5  503    0 -0.36501214737E+03  0.11900994023E+03  0.75634553713E+03  0.84820740691E+03  0.00000000000E+00 0. -1.
         -2    1    5    5    0  503 -0.28518067148E+02  0.28659561572E+02  0.43137475675E+02  0.59122689646E+02  0.00000000000E+00 0.  1.
         -1    1    6    6    0  502 -0.16345834548E+02 -0.16399809888E+02 -0.52519789877E+01  0.23742859026E+02  0.00000000000E+00 0.  1.
<mgrwt>
<rscale>  0 0.21342892E+04</rscale>
<asrwt>0</asrwt>
<pdfrwt beam="1">  1        1 0.15771019E+00 0.21342892E+04</pdfrwt>
<pdfrwt beam="2">  1       -1 0.17090710E+00 0.21342892E+04</pdfrwt>
<totfact> 0.32139839E+00</totfact>
</mgrwt>
</event>
<event>
12    1  0.1960998E-007  0.1446534E+04  0.7818608E-02  0.8920807E-01
          1   -1    0    0  501    0  0.00000000000E+00  0.00000000000E+00  0.89259022193E+03  0.89259022193E+03  0.00000000000E+00 0. -1.
         -1   -1    0    0    0  501 -0.00000000000E+00 -0.00000000000E+00 -0.58606397892E+03  0.58606397892E+03  0.00000000000E+00 0.  1.
         23    2    1    2    0    0 -0.35640334949E+03 -0.16194713477E+03  0.27932566431E+03  0.48934893284E+03  0.90494913366E+02 0.  0.
        254    2    1    2    0    0  0.35640334949E+03  0.16194713477E+03  0.27200578703E+02  0.98930526801E+03  0.90814911762E+03 0.  0.
        -24    2    4    4    0    0  0.55088578940E+03  0.43817367961E+02 -0.25824169506E+03  0.61512099114E+03  0.79309179630E+02 0.  0.
         24    2    4    4    0    0 -0.19448243991E+03  0.11812976681E+03  0.28544227376E+03  0.37418427687E+03  0.82210219344E+02 0.  0.
         13    1    3    3    0    0 -0.13431860392E+03 -0.38211581835E+02  0.54290183824E+02  0.14983002504E+03  0.00000000000E+00 0. -1.
        -13    1    3    3    0    0 -0.22208474557E+03 -0.12373555294E+03  0.22503548049E+03  0.33951890780E+03  0.00000000000E+00 0.  1.
          2    1    6    6  502    0 -0.94824520601E+02  0.91325547532E+02  0.20366883060E+03  0.24251399526E+03  0.00000000000E+00 0. -1.
          3    1    5    5  503    0  0.47336090160E+03  0.11455189255E+02 -0.23071787932E+03  0.52671861972E+03  0.00000000000E+00 0. -1.
         -4    1    5    5    0  503  0.77524887800E+02  0.32362178706E+02 -0.27523815738E+02  0.88402371415E+02  0.00000000000E+00 0.  1.
         -1    1    6    6    0  502 -0.99657919312E+02  0.26804219280E+02  0.81773443167E+02  0.13167028161E+03  0.00000000000E+00 0.  1.
<mgrwt>
<rscale>  0 0.14465338E+04</rscale>
<asrwt>0</asrwt>
<pdfrwt beam="1">  1        1 0.13732157E+00 0.14465338E+04</pdfrwt>
<pdfrwt beam="2">  1       -1 0.90163689E-01 0.14465338E+04</pdfrwt>
<totfact> 0.21576458E+01</totfact>
</mgrwt>
</event>
<event>
12    1  0.1960998E-007  0.1771580E+04  0.7818608E-02  0.8721560E-01
         -2   -1    0    0    0  501 -0.00000000000E+00  0.00000000000E+00  0.36582581828E+03  0.36582581828E+03  0.00000000000E+00 0.  1.
          2   -1    0    0  501    0  0.00000000000E+00 -0.00000000000E+00 -0.21448029638E+04  0.21448029638E+04  0.00000000000E+00 0. -1.
         23    2    1    2    0    0 -0.10504314553E+03 -0.56431103745E+03 -0.11038830257E+04  0.12473430828E+04  0.88464809369E+02 0.  0.
        254    2    1    2    0    0  0.10504314553E+03  0.56431103745E+03 -0.67509411985E+03  0.12632856993E+04  0.90036530247E+03 0.  0.
        -24    2    4    4    0    0  0.32487461947E+03  0.53110003579E+03 -0.92679545361E+02  0.63490102976E+03  0.83060538640E+02 0.  0.
         24    2    4    4    0    0 -0.21983147394E+03  0.33211001664E+02 -0.58241457449E+03  0.62838466950E+03  0.78941172530E+02 0.  0.
         13    1    3    3    0    0 -0.34486099273E+02 -0.25542689564E+03 -0.40598834384E+03  0.48089367368E+03  0.00000000000E+00 0.  1.
        -13    1    3    3    0    0 -0.70557046259E+02 -0.30888414181E+03 -0.69789468183E+03  0.76644940914E+03  0.00000000000E+00 0. -1.
          4    1    6    6  502    0 -0.16426440742E+03  0.58903426117E+02 -0.44225122627E+03  0.47543512311E+03  0.00000000000E+00 0. -1.
          3    1    5    5  503    0  0.29601282947E+03  0.44800338783E+03 -0.57025349068E+02  0.53998381564E+03  0.00000000000E+00 0. -1.
         -4    1    5    5    0  503  0.28861789999E+02  0.83096647954E+02 -0.35654196292E+02  0.94917214120E+02  0.00000000000E+00 0.  1.
         -3    1    6    6    0  502 -0.55567066519E+02 -0.25692424453E+02 -0.14016334822E+03  0.15294954639E+03  0.00000000000E+00 0.  1.
<mgrwt>
<rscale>  0 0.17715804E+04</rscale>
<asrwt>0</asrwt>
<pdfrwt beam="1">  1        2 0.32996969E+00 0.17715804E+04</pdfrwt>
<pdfrwt beam="2">  1       -2 0.56280895E-01 0.17715804E+04</pdfrwt>
<totfact> 0.15553526E+01</totfact>
</mgrwt>
</event>
<event>
12    1  0.1960998E-007  0.3122120E+04  0.7818608E-02  0.8209693E-01
         -2   -1    0    0    0  501 -0.00000000000E+00  0.00000000000E+00  0.77050316646E+03  0.77050316646E+03  0.00000000000E+00 0. -1.
          2   -1    0    0  501    0  0.00000000000E+00 -0.00000000000E+00 -0.31627501043E+04  0.31627501043E+04  0.00000000000E+00 0.  1.
         23    2    1    2    0    0  0.65266130223E+03 -0.18344357731E+03 -0.26841978047E+04  0.27700006778E+04  0.91474469078E+02 0.  0.
        254    2    1    2    0    0 -0.65266130223E+03  0.18344357731E+03  0.29195086687E+03  0.11632525930E+04  0.89905670845E+03 0.  0.
        -24    2    4    4    0    0  0.42000262635E+02  0.26343259073E+03 -0.16542484494E+03  0.32388593311E+03  0.79849648832E+02 0.  0.
         24    2    4    4    0    0 -0.69466156486E+03 -0.79989013424E+02  0.45737571181E+03  0.83936665991E+03  0.79943205136E+02 0.  0.
         13    1    3    3    0    0  0.34599844957E+03 -0.67010885188E+02 -0.12470371710E+04  0.12958808169E+04  0.00000000000E+00 0. -1.
        -13    1    3    3    0    0  0.30666285266E+03 -0.11643269212E+03 -0.14371606338E+04  0.14741198609E+04  0.00000000000E+00 0.  1.
          4    1    6    6  502    0 -0.57733235194E+03 -0.90828540341E+02  0.35916615595E+03  0.68597579834E+03  0.00000000000E+00 0. -1.
          1    1    5    5  503    0  0.54525208958E+02  0.25943328089E+03 -0.15485226649E+03  0.30701441347E+03  0.00000000000E+00 0. -1.
         -2    1    5    5    0  503 -0.12524946323E+02  0.39993098479E+01 -0.10572578452E+02  0.16871519634E+02  0.00000000000E+00 0.  1.
         -3    1    6    6    0  502 -0.11732921293E+03  0.10839526917E+02  0.98209555859E+02  0.15339086156E+03  0.00000000000E+00 0.  1.
<mgrwt>
<rscale>  0 0.31221204E+04</rscale>
<asrwt>0</asrwt>
<pdfrwt beam="1">  1        2 0.48657694E+00 0.31221204E+04</pdfrwt>
<pdfrwt beam="2">  1       -2 0.11853895E+00 0.31221204E+04</pdfrwt>
<totfact> 0.63558641E-01</totfact>
</mgrwt>
</event>
<event>
12    1  0.1960998E-007  0.1663512E+04  0.7818608E-02  0.8782453E-01
         -1   -1    0    0    0  501 -0.00000000000E+00  0.00000000000E+00  0.47919350554E+03  0.47919350554E+03  0.00000000000E+00 0.  1.
          1   -1    0    0  501    0  0.00000000000E+00 -0.00000000000E+00 -0.14437140239E+04  0.14437140239E+04  0.00000000000E+00 0. -1.
         23    2    1    2    0    0  0.41462963884E+03  0.37172668121E+03 -0.13601366574E+03  0.57898378573E+03  0.81388229736E+02 0.  0.
        254    2    1    2    0    0 -0.41462963884E+03 -0.37172668121E+03 -0.82850685257E+03  0.13439237437E+04  0.89978272992E+03 0.  0.
        -24    2    4    4    0    0 -0.43495680111E+03 -0.40379258044E+03 -0.99209812630E+03  0.11588184158E+04  0.79784469969E+02 0.  0.
         24    2    4    4    0    0  0.20327162263E+02  0.32065899232E+02  0.16359127373E+03  0.18510532789E+03  0.77848970161E+02 0.  0.
         13    1    3    3    0    0  0.63001531045E+02  0.83436353849E+02 -0.51299539122E+02  0.11645797857E+03  0.00000000000E+00 0. -1.
        -13    1    3    3    0    0  0.35162810780E+03  0.28829032736E+03 -0.84714126619E+02  0.46252580716E+03  0.00000000000E+00 0.  1.
          4    1    6    6  502    0 -0.26434362655E+02  0.14103702849E+02  0.98587193524E+02  0.10303943269E+03  0.00000000000E+00 0. -1.
          1    1    5    5  503    0 -0.15067201360E+03 -0.10643144844E+03 -0.25565517008E+03  0.31526064596E+03  0.00000000000E+00 0. -1.
         -2    1    5    5    0  503 -0.28428478751E+03 -0.29736113200E+03 -0.73644295622E+03  0.84355776980E+03  0.00000000000E+00 0.  1.
         -3    1    6    6    0  502  0.46761524918E+02  0.17962196383E+02  0.65004080205E+02  0.82065895199E+02  0.00000000000E+00 0.  1.
<mgrwt>
<rscale>  0 0.16635124E+04</rscale>
<asrwt>0</asrwt>
<pdfrwt beam="1">  1        1 0.22210985E+00 0.16635124E+04</pdfrwt>
<pdfrwt beam="2">  1       -1 0.73722078E-01 0.16635124E+04</pdfrwt>
<totfact> 0.12664732E+01</totfact>
</mgrwt>
</event>
<event>
12    1  0.1960998E-007  0.2035331E+04  0.7818608E-02  0.8590278E-01
          2   -1    0    0  501    0  0.00000000000E+00  0.00000000000E+00  0.19638279379E+04  0.19638279379E+04  0.00000000000E+00 0. -1.
         -2   -1    0    0    0  501 -0.00000000000E+00 -0.00000000000E+00 -0.52735932024E+03  0.52735932024E+03  0.00000000000E+00 0.  1.
         23    2    1    2    0    0  0.14321506289E+03  0.66257854654E+03  0.25714841848E+02  0.68585783844E+03  0.10108826285E+03 0.  0.
        254    2    1    2    0    0 -0.14321506289E+03 -0.66257854654E+03  0.14107537758E+04  0.18053294197E+04  0.89970395859E+03 0.  0.
        -24    2    4    4    0    0 -0.24216859734E+03 -0.74676659954E+03  0.14485313266E+04  0.16495428222E+04  0.80265399841E+02 0.  0.
         24    2    4    4    0    0  0.98953534454E+02  0.84188053004E+02 -0.37777550746E+02  0.15578659753E+03  0.77219753828E+02 0.  0.
         11    1    3    3    0    0  0.68565742384E+02  0.50925404236E+03  0.33000781619E+01  0.51385973885E+03  0.00000000000E+00 0.  1.
        -11    1    3    3    0    0  0.74649320501E+02  0.15332450417E+03  0.22414763686E+02  0.17199809959E+03  0.00000000000E+00 0. -1.
          4    1    6    6  502    0  0.49987886774E+02  0.82009875934E+02 -0.45313436327E+02  0.10619659169E+03  0.00000000000E+00 0. -1.
          3    1    5    5  503    0 -0.23353041376E+03 -0.74394041308E+03  0.14363368993E+04  0.16343339563E+04  0.00000000000E+00 0. -1.
         -4    1    5    5    0  503 -0.86381835762E+01 -0.28261864629E+01  0.12194427290E+02  0.15208865913E+02  0.00000000000E+00 0.  1.
         -3    1    6    6    0  502  0.48965647681E+02  0.21781770700E+01  0.75358855810E+01  0.49590005844E+02  0.00000000000E+00 0.  1.
<mgrwt>
<rscale>  0 0.20353309E+04</rscale>
<asrwt>0</asrwt>
<pdfrwt beam="1">  1        2 0.30212737E+00 0.20353309E+04</pdfrwt>
<pdfrwt beam="2">  1       -2 0.81132204E-01 0.20353309E+04</pdfrwt>
<totfact> 0.86812532E+00</totfact>
</mgrwt>
</event>
<event>
12    1  0.1960998E-007  0.1091125E+04  0.7818608E-02  0.9213885E-01
         -1   -1    0    0    0  501 -0.00000000000E+00  0.00000000000E+00  0.10510423512E+04  0.10510423512E+04  0.00000000000E+00 0.  1.
          1   -1    0    0  501    0  0.00000000000E+00 -0.00000000000E+00 -0.28318423938E+03  0.28318423938E+03  0.00000000000E+00 0. -1.
         23    2    1    2    0    0 -0.54515763818E+02  0.19626149390E+02  0.30045912357E+03  0.31929966125E+03  0.91210934081E+02 0.  0.
        254    2    1    2    0    0  0.54515763818E+02 -0.19626149390E+02  0.46739898826E+03  0.10149269293E+04  0.89903153639E+03 0.  0.
        -24    2    4    4    0    0 -0.34611792540E+03  0.18734209041E+03  0.68168541145E+02  0.40738462057E+03  0.80128658736E+02 0.  0.
         24    2    4    4    0    0  0.40063368922E+03 -0.20696823980E+03  0.39923044712E+03  0.60754230878E+03  0.79871783668E+02 0.  0.
         11    1    3    3    0    0  0.44199757373E+00 -0.28676548449E+02  0.14054875350E+03  0.14344508323E+03  0.00000000000E+00 0.  1.
        -11    1    3    3    0    0 -0.54957761392E+02  0.48302697838E+02  0.15991037007E+03  0.17585457802E+03  0.00000000000E+00 0. -1.
          2    1    6    6  502    0  0.27514705340E+03 -0.10059566315E+03  0.24206424857E+03  0.38002695809E+03  0.00000000000E+00 0. -1.
          1    1    5    5  503    0 -0.29922961194E+03  0.12685178397E+03  0.51620183041E+02  0.32908111319E+03  0.00000000000E+00 0. -1.
         -2    1    5    5    0  503 -0.46888313456E+02  0.60490306437E+02  0.16548358105E+02  0.78303507377E+02  0.00000000000E+00 0.  1.
         -1    1    6    6    0  502  0.12548663581E+03 -0.10637257665E+03  0.15716619855E+03  0.22751535068E+03  0.00000000000E+00 0.  1.
<mgrwt>
<rscale>  0 0.10911253E+04</rscale>
<asrwt>0</asrwt>
<pdfrwt beam="1">  1        1 0.43566807E-01 0.10911253E+04</pdfrwt>
<pdfrwt beam="2">  1       -1 0.16169882E+00 0.10911253E+04</pdfrwt>
<totfact> 0.26745814E+01</totfact>
</mgrwt>
</event>
<event>
12    1  0.1960998E-007  0.2212754E+04  0.7818608E-02  0.8513138E-01
          1   -1    0    0  501    0  0.00000000000E+00  0.00000000000E+00  0.13414702080E+04  0.13414702080E+04  0.00000000000E+00 0. -1.
         -1   -1    0    0    0  501 -0.00000000000E+00 -0.00000000000E+00 -0.91248384103E+03  0.91248384103E+03  0.00000000000E+00 0.  1.
         23    2    1    2    0    0 -0.16315785725E+03  0.46370753490E+03 -0.61410721240E+03  0.79131454282E+03  0.86057382298E+02 0.  0.
        254    2    1    2    0    0  0.16315785725E+03 -0.46370753490E+03  0.10430935794E+04  0.14626395062E+04  0.89979161226E+03 0.  0.
        -24    2    4    4    0    0  0.28557041429E+03 -0.64265379716E+03  0.48482015797E+03  0.85861733782E+03  0.87285638630E+02 0.  0.
         24    2    4    4    0    0 -0.12241255704E+03  0.17894626226E+03  0.55827342141E+03  0.60402216839E+03  0.78530044977E+02 0.  0.
         11    1    3    3    0    0 -0.97783917155E+02  0.31434009515E+03 -0.34648747613E+03  0.47793823972E+03  0.00000000000E+00 0. -1.
        -11    1    3    3    0    0 -0.65373940092E+02  0.14936743975E+03 -0.26761973627E+03  0.31337630310E+03  0.00000000000E+00 0.  1.
          2    1    6    6  502    0 -0.86278567469E+02  0.79246341113E+02  0.36794716894E+03  0.38614646562E+03  0.00000000000E+00 0. -1.
          1    1    5    5  503    0  0.23708165930E+03 -0.48222050418E+03  0.33089919720E+03  0.63106149188E+03  0.00000000000E+00 0. -1.
         -2    1    5    5    0  503  0.48488754992E+02 -0.16043329297E+03  0.15392096077E+03  0.22755584594E+03  0.00000000000E+00 0.  1.
         -1    1    6    6    0  502 -0.36133989573E+02  0.99699921142E+02  0.19032625247E+03  0.21787570277E+03  0.00000000000E+00 0.  1.
<mgrwt>
<rscale>  0 0.22127538E+04</rscale>
<asrwt>0</asrwt>
<pdfrwt beam="1">  1        1 0.20638003E+00 0.22127538E+04</pdfrwt>
<pdfrwt beam="2">  1       -1 0.14038213E+00 0.22127538E+04</pdfrwt>
<totfact> 0.32030436E+00</totfact>
</mgrwt>
</event>
<event>
12    1  0.1960998E-007  0.2047307E+04  0.7818608E-02  0.8584817E-01
         -2   -1    0    0    0  501 -0.00000000000E+00  0.00000000000E+00  0.51899416613E+03  0.51899416613E+03  0.00000000000E+00 0.  1.
          2   -1    0    0  501    0  0.00000000000E+00 -0.00000000000E+00 -0.20190334494E+04  0.20190334494E+04  0.00000000000E+00 0. -1.
         23    2    1    2    0    0  0.77611502437E+03  0.26848868086E+03 -0.58531187402E+03  0.10130427526E+04  0.96046477703E+02 0.  0.
        254    2    1    2    0    0 -0.77611502437E+03 -0.26848868086E+03 -0.91472740926E+03  0.15249848630E+04  0.90244772490E+03 0.  0.
        -24    2    4    4    0    0  0.29666070984E+02  0.26376196850E+02 -0.60208994747E+03  0.60847761185E+03  0.78466042020E+02 0.  0.
         24    2    4    4    0    0 -0.80578109536E+03 -0.29486487771E+03 -0.31263746179E+03  0.91650725111E+03  0.77555715895E+02 0.  0.
         11    1    3    3    0    0  0.31913000544E+03  0.61353613896E+02 -0.22134990296E+03  0.39319715900E+03  0.00000000000E+00 0.  1.
        -11    1    3    3    0    0  0.45698501894E+03  0.20713506697E+03 -0.36396197106E+03  0.61984559358E+03  0.00000000000E+00 0. -1.
          4    1    6    6  502    0 -0.27144174732E+03 -0.11631976873E+03 -0.14317734737E+03  0.32819302794E+03  0.00000000000E+00 0. -1.
          3    1    5    5  503    0  0.52934988160E+02  0.14742657084E+02 -0.28014162064E+03  0.28547992315E+03  0.00000000000E+00 0. -1.
         -4    1    5    5    0  503 -0.23268917176E+02  0.11633539766E+02 -0.32194832683E+03  0.32299768869E+03  0.00000000000E+00 0.  1.
         -3    1    6    6    0  502 -0.53433934804E+03 -0.17854510898E+03 -0.16946011442E+03  0.58831422317E+03  0.00000000000E+00 0.  1.
<mgrwt>
<rscale>  0 0.20473071E+04</rscale>
<asrwt>0</asrwt>
<pdfrwt beam="1">  1        2 0.31062053E+00 0.20473071E+04</pdfrwt>
<pdfrwt beam="2">  1       -2 0.79845256E-01 0.20473071E+04</pdfrwt>
<totfact> 0.83770934E+00</totfact>
</mgrwt>
</event>
<event>
12    1  0.1960998E-007  0.1984736E+04  0.7818608E-02  0.8613791E-01
         -1   -1    0    0    0  501 -0.00000000000E+00  0.00000000000E+00  0.26753142698E+04  0.26753142698E+04  0.00000000000E+00 0.  1.
          1   -1    0    0  501    0  0.00000000000E+00 -0.00000000000E+00 -0.36810399542E+03  0.36810399542E+03  0.00000000000E+00 0. -1.
         23    2    1    2    0    0  0.56255485864E+03 -0.28964141843E+03  0.16318511115E+04  0.17517410863E+04  0.72791914679E+02 0.  0.
        254    2    1    2    0    0 -0.56255485864E+03  0.28964141843E+03  0.67535916287E+03  0.12916771790E+04  0.90108812863E+03 0.  0.
        -24    2    4    4    0    0 -0.76622166891E+03  0.66055432582E+02  0.57394595369E+03  0.96293908402E+03  0.79867112696E+02 0.  0.
         24    2    4    4    0    0  0.20366681027E+03  0.22358598584E+03  0.10141320918E+03  0.32873809496E+03  0.79455858247E+02 0.  0.
         11    1    3    3    0    0  0.51804133434E+03 -0.28644057451E+03  0.15310677511E+04  0.16415186522E+04  0.00000000000E+00 0.  1.
        -11    1    3    3    0    0  0.44513524306E+02 -0.32008439205E+01  0.10078336040E+03  0.11022243411E+03  0.00000000000E+00 0. -1.
          2    1    6    6  502    0  0.19642980792E+03  0.17393646313E+03  0.81245156105E+02  0.27466222535E+03  0.00000000000E+00 0. -1.
          1    1    5    5  503    0 -0.72334510219E+03  0.65861688632E+02  0.51650258627E+03  0.89125799885E+03  0.00000000000E+00 0. -1.
         -2    1    5    5    0  503 -0.42876566724E+02  0.19374395019E+00  0.57443367415E+02  0.71681085167E+02  0.00000000000E+00 0.  1.
         -1    1    6    6    0  502  0.72370023510E+01  0.49649522717E+02  0.20168053079E+02  0.54075869609E+02  0.00000000000E+00 0.  1.
<mgrwt>
<rscale>  0 0.19847356E+04</rscale>
<asrwt>0</asrwt>
<pdfrwt beam="1">  1        1 0.56631386E-01 0.19847356E+04</pdfrwt>
<pdfrwt beam="2">  1       -1 0.41158680E+00 0.19847356E+04</pdfrwt>
<totfact> 0.37147725E-01</totfact>
</mgrwt>
</event>
<event>
12    1  0.1960998E-007  0.1853268E+04  0.7818608E-02  0.8678474E-01
         -1   -1    0    0    0  501 -0.00000000000E+00  0.00000000000E+00  0.16892297599E+03  0.16892297599E+03  0.00000000000E+00 0.  1.
          1   -1    0    0  501    0  0.00000000000E+00 -0.00000000000E+00 -0.50830888173E+04  0.50830888173E+04  0.00000000000E+00 0. -1.
         23    2    1    2    0    0  0.42201678106E+03  0.53562717612E+03 -0.13717648150E+04  0.15345821860E+04  0.90604318712E+02 0.  0.
        254    2    1    2    0    0 -0.42201678106E+03 -0.53562717612E+03 -0.35424010263E+04  0.37174296073E+04  0.89759858440E+03 0.  0.
        -24    2    4    4    0    0  0.15328966021E+03  0.12526081763E+03 -0.11294968939E+04  0.11491749980E+04  0.75179454147E+02 0.  0.
         24    2    4    4    0    0 -0.57530644128E+03 -0.66088799375E+03 -0.24129041324E+04  0.25682546093E+04  0.77941929350E+02 0.  0.
         11    1    3    3    0    0  0.35600321069E+03  0.49684754087E+03 -0.12101865082E+04  0.13557828548E+04  0.00000000000E+00 0.  1.
        -11    1    3    3    0    0  0.66013570373E+02  0.38779635250E+02 -0.16157830682E+03  0.17879933115E+03  0.00000000000E+00 0. -1.
          2    1    6    6  502    0 -0.19207394324E+02 -0.23045560878E+02 -0.13380355301E+03  0.13712553618E+03  0.00000000000E+00 0. -1.
          3    1    5    5  503    0  0.90616054125E+02  0.27925572637E+02 -0.44928771310E+03  0.45918466439E+03  0.00000000000E+00 0. -1.
         -2    1    5    5    0  503  0.62673606087E+02  0.97335244994E+02 -0.68020918080E+03  0.68999033360E+03  0.00000000000E+00 0.  1.
         -1    1    6    6    0  502 -0.55609904695E+03 -0.63784243288E+03 -0.22791005794E+04  0.24311290731E+04  0.00000000000E+00 0.  1.
<mgrwt>
<rscale>  0 0.18532679E+04</rscale>
<asrwt>0</asrwt>
<pdfrwt beam="1">  1        1 0.78201356E+00 0.18532679E+04</pdfrwt>
<pdfrwt beam="2">  1       -1 0.25988154E-01 0.18532679E+04</pdfrwt>
<totfact> 0.85173952E-02</totfact>
</mgrwt>
</event>
<event>
12    1  0.1960998E-007  0.2736362E+04  0.7818608E-02  0.8323302E-01
         -1   -1    0    0    0  501 -0.00000000000E+00  0.00000000000E+00  0.12157872915E+04  0.12157872915E+04  0.00000000000E+00 0.  1.
          1   -1    0    0  501    0  0.00000000000E+00 -0.00000000000E+00 -0.15396766075E+04  0.15396766075E+04  0.00000000000E+00 0. -1.
         23    2    1    2    0    0  0.94668366134E+03  0.35524488293E+03  0.53842046721E+03  0.11491266866E+04  0.90480167736E+02 0.  0.
        254    2    1    2    0    0 -0.94668366134E+03 -0.35524488293E+03 -0.86230978319E+03  0.16063372124E+04  0.90240356626E+03 0.  0.
        -24    2    4    4    0    0  0.16327016559E+02 -0.37978014717E+03 -0.25674206852E+03  0.46560797720E+03  0.79842138144E+02 0.  0.
         24    2    4    4    0    0 -0.96301067790E+03  0.24535264241E+02 -0.60556771467E+03  0.11407292352E+04  0.80990037408E+02 0.  0.
         13    1    3    3    0    0  0.59709016505E+03  0.26431062716E+03  0.32231998381E+03  0.72819430428E+03  0.00000000000E+00 0.  1.
        -13    1    3    3    0    0  0.34959349629E+03  0.90934255770E+02  0.21610048340E+03  0.42093238227E+03  0.00000000000E+00 0. -1.
          2    1    6    6  502    0 -0.52695383423E+02 -0.15416701464E+02 -0.25237904923E+02  0.60427063167E+02  0.00000000000E+00 0. -1.
          3    1    5    5  503    0 -0.21147558584E+02 -0.17426914682E+03 -0.15057177778E+03  0.23127649044E+03  0.00000000000E+00 0. -1.
         -4    1    5    5    0  503  0.37474575142E+02 -0.20551100036E+03 -0.10617029074E+03  0.23433148676E+03  0.00000000000E+00 0.  1.
         -1    1    6    6    0  502 -0.91031529448E+03  0.39951965705E+02 -0.58032980974E+03  0.10803021721E+04  0.00000000000E+00 0.  1.
<mgrwt>
<rscale>  0 0.27363620E+04</rscale>
<asrwt>0</asrwt>
<pdfrwt beam="1">  1        1 0.23687332E+00 0.27363620E+04</pdfrwt>
<pdfrwt beam="2">  1       -1 0.18704420E+00 0.27363620E+04</pdfrwt>
<totfact> 0.99094075E-01</totfact>
</mgrwt>
</event>
<event>
12    1  0.1960998E-007  0.1446021E+04  0.7818608E-02  0.8921164E-01
          2   -1    0    0  501    0  0.00000000000E+00  0.00000000000E+00  0.40919988894E+03  0.40919988894E+03  0.00000000000E+00 0. -1.
         -2   -1    0    0    0  501 -0.00000000000E+00 -0.00000000000E+00 -0.12774791475E+04  0.12774791475E+04  0.00000000000E+00 0.  1.
         23    2    1    2    0    0 -0.39006980478E+03 -0.22519088916E+03 -0.33449904810E+03  0.56829322773E+03  0.90565944704E+02 0.  0.
        254    2    1    2    0    0  0.39006980478E+03  0.22519088916E+03 -0.53378021050E+03  0.11183858088E+04  0.87349877788E+03 0.  0.
        -24    2    4    4    0    0 -0.14688009535E+03  0.30448232446E+03  0.80655884276E+01  0.34744360212E+03  0.79804477423E+02 0.  0.
         24    2    4    4    0    0  0.53694990013E+03 -0.79291435298E+02 -0.54184579893E+03  0.77094220664E+03  0.78439079548E+02 0.  0.
         13    1    3    3    0    0 -0.50117635212E+01 -0.17013992001E+02 -0.59155001362E+00  0.17746651200E+02  0.00000000000E+00 0.  1.
        -13    1    3    3    0    0 -0.38505804125E+03 -0.20817689716E+03 -0.33390749809E+03  0.55054657653E+03  0.00000000000E+00 0. -1.
          2    1    6    6  502    0  0.42585657931E+03 -0.30161604237E+02 -0.41937600844E+03  0.59844781307E+03  0.00000000000E+00 0. -1.
          3    1    5    5  503    0 -0.11283770851E+03  0.14986656759E+03 -0.11345853658E+02  0.18793899260E+03  0.00000000000E+00 0. -1.
         -4    1    5    5    0  503 -0.34042386840E+02  0.15461575687E+03  0.19411442085E+02  0.15950460952E+03  0.00000000000E+00 0.  1.
         -1    1    6    6    0  502  0.11109332081E+03 -0.49129831061E+02 -0.12246979049E+03  0.17249439357E+03  0.00000000000E+00 0.  1.
<mgrwt>
<rscale>  0 0.14460212E+04</rscale>
<asrwt>0</asrwt>
<pdfrwt beam="1">  1        2 0.62953830E-01 0.14460212E+04</pdfrwt>
<pdfrwt beam="2">  1       -2 0.19653525E+00 0.14460212E+04</pdfrwt>
<totfact> 0.10528259E+01</totfact>
</mgrwt>
</event>
<event>
12    1  0.1960998E-007  0.2732496E+04  0.7818608E-02  0.8324538E-01
         -2   -1    0    0    0  501 -0.00000000000E+00  0.00000000000E+00  0.68908621073E+03  0.68908621073E+03  0.00000000000E+00 0.  1.
          2   -1    0    0  501    0  0.00000000000E+00 -0.00000000000E+00 -0.27088526071E+04  0.27088526071E+04  0.00000000000E+00 0. -1.
         23    2    1    2    0    0 -0.43092099476E+03  0.82451291605E+03  0.68451369469E+02  0.93726493589E+03  0.90914892121E+02 0.  0.
        254    2    1    2    0    0  0.43092099476E+03 -0.82451291605E+03 -0.20882177659E+04  0.24606738820E+04  0.91035600909E+03 0.  0.
        -24    2    4    4    0    0  0.29736942313E+03 -0.76435047926E+01 -0.12203704032E+04  0.12587742818E+04  0.81986429250E+02 0.  0.
         24    2    4    4    0    0  0.13355157163E+03 -0.81686941126E+03 -0.86784736265E+03  0.12018996001E+04  0.79321791567E+02 0.  0.
         13    1    3    3    0    0 -0.14455873200E+03  0.26438312525E+03 -0.20025664360E+02  0.30198789900E+03  0.00000000000E+00 0. -1.
        -13    1    3    3    0    0 -0.28636226276E+03  0.56012979080E+03  0.88477033829E+02  0.63527703689E+03  0.00000000000E+00 0.  1.
          2    1    6    6  502    0  0.12567647507E+03 -0.58693065198E+03 -0.59793737816E+03  0.84723743709E+03  0.00000000000E+00 0. -1.
          3    1    5    5  503    0  0.26656882531E+03 -0.32929204994E+02 -0.10738455042E+04  0.11069270247E+04  0.00000000000E+00 0. -1.
         -2    1    5    5    0  503  0.30800597827E+02  0.25285700201E+02 -0.14652489900E+03  0.15184725710E+03  0.00000000000E+00 0.  1.
         -3    1    6    6    0  502  0.78750965610E+01 -0.22993875928E+03 -0.26990998450E+03  0.35466216305E+03  0.00000000000E+00 0.  1.
<mgrwt>
<rscale>  0 0.27324955E+04</rscale>
<asrwt>0</asrwt>
<pdfrwt beam="1">  1        2 0.41674656E+00 0.27324955E+04</pdfrwt>
<pdfrwt beam="2">  1       -2 0.10601326E+00 0.27324955E+04</pdfrwt>
<totfact> 0.16482634E+00</totfact>
</mgrwt>
</event>
<event>
12    1  0.1960998E-007  0.2900909E+04  0.7818608E-02  0.8272607E-01
          1   -1    0    0  501    0  0.00000000000E+00  0.00000000000E+00  0.10795030533E+04  0.10795030533E+04  0.00000000000E+00 0. -1.
         -1   -1    0    0    0  501 -0.00000000000E+00 -0.00000000000E+00 -0.19488763387E+04  0.19488763387E+04  0.00000000000E+00 0.  1.
         23    2    1    2    0    0  0.12188743555E+04  0.48605068561E+03 -0.41677982866E+03  0.13797501854E+04  0.90028800844E+02 0.  0.
        254    2    1    2    0    0 -0.12188743555E+04 -0.48605068561E+03 -0.45259345678E+03  0.16486292067E+04  0.88951529533E+03 0.  0.
        -24    2    4    4    0    0 -0.93803320297E+03 -0.56424069394E+03  0.83310445980E+01  0.10975731380E+04  0.79520666061E+02 0.  0.
         24    2    4    4    0    0 -0.28084115251E+03  0.78190008326E+02 -0.46092450138E+03  0.55105606872E+03  0.78904781586E+02 0.  0.
         13    1    3    3    0    0  0.68133528864E+03  0.30132874768E+03 -0.27315043224E+03  0.79349098820E+03  0.00000000000E+00 0.  1.
        -13    1    3    3    0    0  0.53753906684E+03  0.18472193793E+03 -0.14362939643E+03  0.58625919715E+03  0.00000000000E+00 0. -1.
          4    1    6    6  502    0 -0.24616619974E+03  0.73538995073E+02 -0.34619612560E+03  0.43111197974E+03  0.00000000000E+00 0. -1.
          3    1    5    5  503    0 -0.84898989242E+03 -0.50010467836E+03 -0.14696672864E+02  0.98544635518E+03  0.00000000000E+00 0. -1.
         -4    1    5    5    0  503 -0.89043310547E+02 -0.64136015578E+02  0.23027717462E+02  0.11212678279E+03  0.00000000000E+00 0.  1.
         -3    1    6    6    0  502 -0.34674952769E+02  0.46510132534E+01 -0.11472837577E+03  0.11994408898E+03  0.00000000000E+00 0.  1.
<mgrwt>
<rscale>  0 0.29009088E+04</rscale>
<asrwt>0</asrwt>
<pdfrwt beam="1">  1        1 0.16607739E+00 0.29009088E+04</pdfrwt>
<pdfrwt beam="2">  1       -1 0.29982713E+00 0.29009088E+04</pdfrwt>
<totfact> 0.37337441E-01</totfact>
</mgrwt>
</event>
<event>
12    1  0.1960998E-007  0.1266712E+04  0.7818608E-02  0.9056387E-01
          1   -1    0    0  501    0  0.00000000000E+00  0.00000000000E+00  0.17036187748E+04  0.17036187748E+04  0.00000000000E+00 0. -1.
         -1   -1    0    0    0  501 -0.00000000000E+00 -0.00000000000E+00 -0.23546342906E+03  0.23546342906E+03  0.00000000000E+00 0.  1.
         23    2    1    2    0    0 -0.29764516814E+03 -0.24416331094E+02  0.30164034197E+03  0.43420780585E+03  0.91436969642E+02 0.  0.
        254    2    1    2    0    0  0.29764516814E+03  0.24416331094E+02  0.11665150038E+04  0.15048743980E+04  0.90260783092E+03 0.  0.
        -24    2    4    4    0    0  0.77249870053E+02  0.30094400370E+03  0.10879848087E+04  0.11343202300E+04  0.80228451568E+02 0.  0.
         24    2    4    4    0    0  0.22039529808E+03 -0.27652767261E+03  0.78530195037E+02  0.37055416798E+03  0.78113755145E+02 0.  0.
         13    1    3    3    0    0 -0.98851745666E+02 -0.50313660135E+02  0.12380001557E+03  0.16622146634E+03  0.00000000000E+00 0. -1.
        -13    1    3    3    0    0 -0.19879342247E+03  0.25897329041E+02  0.17784032640E+03  0.26798633951E+03  0.00000000000E+00 0.  1.
          2    1    6    6  502    0  0.69688657418E+02 -0.46178932601E+02 -0.24002913260E+01  0.83634706835E+02  0.00000000000E+00 0. -1.
          1    1    5    5  503    0  0.42054628077E+02  0.10564407636E+03  0.53104339275E+03  0.54308042461E+03  0.00000000000E+00 0. -1.
         -2    1    5    5    0  503  0.35195241976E+02  0.19529992734E+03  0.55694141597E+03  0.59123980541E+03  0.00000000000E+00 0.  1.
         -1    1    6    6    0  502  0.15070664067E+03 -0.23034874001E+03  0.80930486363E+02  0.28691946115E+03  0.00000000000E+00 0.  1.
<mgrwt>
<rscale>  0 0.12667122E+04</rscale>
<asrwt>0</asrwt>
<pdfrwt beam="1">  1        1 0.26209519E+00 0.12667122E+04</pdfrwt>
<pdfrwt beam="2">  1       -1 0.36225144E-01 0.12667122E+04</pdfrwt>
<totfact> 0.34052805E+01</totfact>
</mgrwt>
</event>
<event>
12    1  0.1960998E-007  0.1617393E+04  0.7818608E-02  0.8809934E-01
         -2   -1    0    0    0  501 -0.00000000000E+00  0.00000000000E+00  0.18743830617E+03  0.18743830617E+03  0.00000000000E+00 0.  1.
          2   -1    0    0  501    0  0.00000000000E+00 -0.00000000000E+00 -0.34890947805E+04  0.34890947805E+04  0.00000000000E+00 0. -1.
         23    2    1    2    0    0 -0.34753768194E+03 -0.38470995275E+03 -0.14381047787E+04  0.15313373379E+04  0.89802560855E+02 0.  0.
        254    2    1    2    0    0  0.34753768194E+03  0.38470995275E+03 -0.18635516956E+04  0.21451957487E+04  0.92749969812E+03 0.  0.
        -24    2    4    4    0    0 -0.97806156809E+02 -0.12566105221E+03 -0.21308771717E+02  0.18095531300E+03  0.83270746355E+02 0.  0.
         24    2    4    4    0    0  0.44534383875E+03  0.51037100497E+03 -0.18422429239E+04  0.19642404357E+04  0.74644499136E+02 0.  0.
         13    1    3    3    0    0 -0.16244058282E+03 -0.18422949775E+03 -0.81258348588E+03  0.84889302760E+03  0.00000000000E+00 0. -1.
        -13    1    3    3    0    0 -0.18509709912E+03 -0.20048045501E+03 -0.62552129281E+03  0.68244431033E+03  0.00000000000E+00 0.  1.
          4    1    6    6  502    0  0.42440060117E+03  0.49202151370E+03 -0.17996006093E+04  0.19133121526E+04  0.00000000000E+00 0. -1.
          3    1    5    5  503    0 -0.10328644838E+03 -0.12680574916E+03 -0.49034552188E+01  0.16362100205E+03  0.00000000000E+00 0. -1.
         -4    1    5    5    0  503  0.54802915690E+01  0.11446969472E+01 -0.16405316498E+02  0.17334310952E+02  0.00000000000E+00 0.  1.
         -3    1    6    6    0  502  0.20943237573E+02  0.18349491262E+02 -0.42642314631E+02  0.50928283171E+02  0.00000000000E+00 0.  1.
<mgrwt>
<rscale>  0 0.16173930E+04</rscale>
<asrwt>0</asrwt>
<pdfrwt beam="1">  1        2 0.53678376E+00 0.16173930E+04</pdfrwt>
<pdfrwt beam="2">  1       -2 0.28836665E-01 0.16173930E+04</pdfrwt>
<totfact> 0.88463401E+00</totfact>
</mgrwt>
</event>
<event>
12    1  0.1960998E-007  0.3950046E+04  0.7818608E-02  0.8014700E-01
          1   -1    0    0  501    0  0.00000000000E+00  0.00000000000E+00  0.29636047999E+04  0.29636047999E+04  0.00000000000E+00 0. -1.
         -1   -1    0    0    0  501 -0.00000000000E+00 -0.00000000000E+00 -0.13162063834E+04  0.13162063834E+04  0.00000000000E+00 0.  1.
         23    2    1    2    0    0 -0.10881149724E+04 -0.12398583813E+04 -0.17688354689E+03  0.16611551943E+04  0.83101092173E+02 0.  0.
        254    2    1    2    0    0  0.10881149724E+04  0.12398583813E+04  0.18242819634E+04  0.26186559891E+04  0.89895022572E+03 0.  0.
        -24    2    4    4    0    0  0.33836344099E+03  0.60780758580E+03  0.13623485860E+04  0.15315952453E+04  0.76618836270E+02 0.  0.
         24    2    4    4    0    0  0.74975153139E+03  0.63205079547E+03  0.46193337739E+03  0.10870607438E+04  0.81872147854E+02 0.  0.
         11    1    3    3    0    0 -0.87809720717E+03 -0.99409536046E+03 -0.10916538399E+03  0.13308633934E+04  0.00000000000E+00 0. -1.
        -11    1    3    3    0    0 -0.21001776520E+03 -0.24576302081E+03 -0.67718162905E+02  0.33029180081E+03  0.00000000000E+00 0.  1.
          4    1    6    6  502    0  0.54346484231E+02  0.43033787352E+02  0.10729711165E+02  0.70146802520E+02  0.00000000000E+00 0. -1.
          1    1    5    5  503    0  0.70163541700E+02  0.12537595969E+03  0.21807283617E+03  0.26114711510E+03  0.00000000000E+00 0. -1.
         -2    1    5    5    0  503  0.26819989929E+03  0.48243162611E+03  0.11442757498E+04  0.12704481302E+04  0.00000000000E+00 0.  1.
         -3    1    6    6    0  502  0.69540504715E+03  0.58901700812E+03  0.45120366623E+03  0.10169139412E+04  0.00000000000E+00 0.  1.
<mgrwt>
<rscale>  0 0.39500459E+04</rscale>
<asrwt>0</asrwt>
<pdfrwt beam="1">  1        1 0.45593920E+00 0.39500459E+04</pdfrwt>
<pdfrwt beam="2">  1       -1 0.20249329E+00 0.39500459E+04</pdfrwt>
<totfact> 0.72199162E-02</totfact>
</mgrwt>
</event>
<event>
12    1  0.1960998E-007  0.1832732E+04  0.7818608E-02  0.8689084E-01
         -2   -1    0    0    0  501 -0.00000000000E+00  0.00000000000E+00  0.27128639751E+03  0.27128639751E+03  0.00000000000E+00 0.  1.
          2   -1    0    0  501    0  0.00000000000E+00 -0.00000000000E+00 -0.30953523486E+04  0.30953523486E+04  0.00000000000E+00 0. -1.
         23    2    1    2    0    0  0.64744509410E+03  0.22956652224E+03 -0.92945515355E+03  0.11593426207E+04  0.91118009453E+02 0.  0.
        254    2    1    2    0    0 -0.64744509410E+03 -0.22956652224E+03 -0.18946107975E+04  0.22072961254E+04  0.90040000735E+03 0.  0.
        -24    2    4    4    0    0 -0.16010992681E+03  0.33664167234E+03 -0.63935676745E+03  0.74435975972E+03  0.79571173131E+02 0.  0.
         24    2    4    4    0    0 -0.48733516729E+03 -0.56620819458E+03 -0.12552540301E+04  0.14629363657E+04  0.80205019763E+02 0.  0.
         11    1    3    3    0    0  0.45803024762E+03  0.15508935926E+03 -0.58219566394E+03  0.75683301210E+03  0.00000000000E+00 0.  1.
        -11    1    3    3    0    0  0.18941484648E+03  0.74477162977E+02 -0.34725948961E+03  0.40250960858E+03  0.00000000000E+00 0. -1.
          4    1    6    6  502    0 -0.85199694180E+02 -0.62393908638E+02 -0.15025152302E+03  0.18365050475E+03  0.00000000000E+00 0. -1.
          3    1    5    5  503    0  0.41419734294E+01  0.11121345551E+02 -0.54188186383E+01  0.13046220380E+02  0.00000000000E+00 0. -1.
         -4    1    5    5    0  503 -0.16425190024E+03  0.32552032679E+03 -0.63393794881E+03  0.73131353934E+03  0.00000000000E+00 0.  1.
         -3    1    6    6    0  502 -0.40213547311E+03 -0.50381428594E+03 -0.11050025071E+04  0.12792858610E+04  0.00000000000E+00 0.  1.
<mgrwt>
<rscale>  0 0.18327324E+04</rscale>
<asrwt>0</asrwt>
<pdfrwt beam="1">  1        2 0.47620808E+00 0.18327324E+04</pdfrwt>
<pdfrwt beam="2">  1       -2 0.41736366E-01 0.18327324E+04</pdfrwt>
<totfact> 0.77938044E+00</totfact>
</mgrwt>
</event>
<event>
12    1  0.1960998E-007  0.1830917E+04  0.7818608E-02  0.8690029E-01
         -1   -1    0    0    0  501 -0.00000000000E+00  0.00000000000E+00  0.44358753720E+03  0.44358753720E+03  0.00000000000E+00 0.  1.
          1   -1    0    0  501    0  0.00000000000E+00 -0.00000000000E+00 -0.18892869077E+04  0.18892869077E+04  0.00000000000E+00 0. -1.
         23    2    1    2    0    0 -0.64785377005E+03  0.19580461890E+03 -0.37486689142E+03  0.77773931310E+03  0.79368108870E+02 0.  0.
        254    2    1    2    0    0  0.64785377005E+03 -0.19580461890E+03 -0.10708324791E+04  0.15551351318E+04  0.90205827071E+03 0.  0.
        -24    2    4    4    0    0  0.45794269037E+03 -0.19751550498E+03 -0.12075031726E+04  0.13088956013E+04  0.80124284137E+02 0.  0.
         24    2    4    4    0    0  0.18991107968E+03  0.17108860793E+01  0.13667069356E+03  0.24623953046E+03  0.76719505786E+02 0.  0.
         13    1    3    3    0    0 -0.30443625941E+03  0.80098331591E+02 -0.21769196229E+03  0.38273616136E+03  0.00000000000E+00 0. -1.
        -13    1    3    3    0    0 -0.34341751064E+03  0.11570628731E+03 -0.15717492914E+03  0.39500315174E+03  0.00000000000E+00 0.  1.
          2    1    6    6  502    0  0.31398396631E+01 -0.16167292361E+02  0.17163419943E+02  0.23787032592E+02  0.00000000000E+00 0. -1.
          1    1    5    5  503    0  0.34472624788E+03 -0.12707237441E+03 -0.80493545929E+03  0.88481900293E+03  0.00000000000E+00 0. -1.
         -2    1    5    5    0  503  0.11321644250E+03 -0.70443130566E+02 -0.40256771333E+03  0.42407659840E+03  0.00000000000E+00 0.  1.
         -1    1    6    6    0  502  0.18677124002E+03  0.17878178440E+02  0.11950727361E+03  0.22245249787E+03  0.00000000000E+00 0.  1.
<mgrwt>
<rscale>  0 0.18309168E+04</rscale>
<asrwt>0</asrwt>
<pdfrwt beam="1">  1        1 0.29065952E+00 0.18309168E+04</pdfrwt>
<pdfrwt beam="2">  1       -1 0.68244236E-01 0.18309168E+04</pdfrwt>
<totfact> 0.72472787E+00</totfact>
</mgrwt>
</event>
<event>
12    1  0.1960998E-007  0.1652954E+04  0.7818608E-02  0.8788661E-01
          2   -1    0    0  501    0  0.00000000000E+00  0.00000000000E+00  0.73365550779E+03  0.73365550779E+03  0.00000000000E+00 0.  1.
         -2   -1    0    0    0  501 -0.00000000000E+00 -0.00000000000E+00 -0.93104222155E+03  0.93104222155E+03  0.00000000000E+00 0. -1.
         23    2    1    2    0    0  0.24884975765E+03  0.33884974569E+03 -0.46685129909E+03  0.63477566760E+03  0.90800113865E+02 0.  0.
        254    2    1    2    0    0 -0.24884975765E+03 -0.33884974569E+03  0.26946458534E+03  0.10299220617E+04  0.90076797149E+03 0.  0.
        -24    2    4    4    0    0  0.10921269865E+02 -0.52356074134E+03  0.41439644447E+03  0.67266151771E+03  0.80709232480E+02 0.  0.
         24    2    4    4    0    0 -0.25977102752E+03  0.18471099565E+03 -0.14493185913E+03  0.35726054403E+03  0.70927525510E+02 0.  0.
         11    1    3    3    0    0  0.52126906950E+02  0.13826615163E+03 -0.13715570824E+03  0.20160960150E+03  0.00000000000E+00 0.  1.
        -11    1    3    3    0    0  0.19672285070E+03  0.20058359406E+03 -0.32969559085E+03  0.43316606610E+03  0.00000000000E+00 0. -1.
          2    1    6    6  502    0 -0.44628417023E+02  0.33665552314E+02 -0.57588264094E+02  0.80258788802E+02  0.00000000000E+00 0. -1.
          1    1    5    5  503    0 -0.84152539642E+01 -0.30050750516E+01  0.74467772233E+01  0.11631915851E+02  0.00000000000E+00 0. -1.
         -2    1    5    5    0  503  0.19336523829E+02 -0.52055566629E+03  0.40694966724E+03  0.66102960186E+03  0.00000000000E+00 0.  1.
         -1    1    6    6    0  502 -0.21514261050E+03  0.15104544334E+03 -0.87343595033E+02  0.27700175523E+03  0.00000000000E+00 0.  1.
<mgrwt>
<rscale>  0 0.16529540E+04</rscale>
<asrwt>0</asrwt>
<pdfrwt beam="1">  1        2 0.11287008E+00 0.16529540E+04</pdfrwt>
<pdfrwt beam="2">  1       -2 0.14323726E+00 0.16529540E+04</pdfrwt>
<totfact> 0.12463204E+01</totfact>
</mgrwt>
</event>
<event>
12    1  0.1960998E-007  0.2794806E+04  0.7818608E-02  0.8304883E-01
          2   -1    0    0  501    0  0.00000000000E+00  0.00000000000E+00  0.13247604775E+04  0.13247604775E+04  0.00000000000E+00 0.  1.
         -2   -1    0    0    0  501 -0.00000000000E+00 -0.00000000000E+00 -0.14740284607E+04  0.14740284607E+04  0.00000000000E+00 0. -1.
         23    2    1    2    0    0 -0.90886194920E+03  0.15016892675E+03 -0.91352955855E+03  0.13011224140E+04  0.99007739631E+02 0.  0.
        254    2    1    2    0    0  0.90886194920E+03 -0.15016892675E+03  0.76426157535E+03  0.14976665242E+04  0.90018248868E+03 0.  0.
        -24    2    4    4    0    0  0.29324553027E+02  0.91504441713E+02  0.54036309718E+03  0.55477595765E+03  0.80938829547E+02 0.  0.
         24    2    4    4    0    0  0.87953739617E+03 -0.24167336846E+03  0.22389847817E+03  0.94289056656E+03  0.83186800004E+02 0.  0.
         11    1    3    3    0    0 -0.75963695149E+02 -0.14849318949E+02 -0.76585849509E+02  0.10888699463E+03  0.00000000000E+00 0. -1.
        -11    1    3    3    0    0 -0.83289825405E+03  0.16501824570E+03 -0.83694370904E+03  0.11922354193E+04  0.00000000000E+00 0.  1.
          2    1    6    6  502    0  0.87806246440E+03 -0.24504411331E+03  0.22514630365E+03  0.93900541367E+03  0.00000000000E+00 0. -1.
          1    1    5    5  503    0  0.44249689570E+02  0.77080376632E+02  0.51184453629E+03  0.51950384870E+03  0.00000000000E+00 0. -1.
         -2    1    5    5    0  503 -0.14925136543E+02  0.14424065080E+02  0.28518560896E+02  0.35272108951E+02  0.00000000000E+00 0.  1.
         -1    1    6    6    0  502  0.14749317761E+01  0.33707448501E+01 -0.12478254779E+01  0.38851528943E+01  0.00000000000E+00 0.  1.
<mgrwt>
<rscale>  0 0.27948056E+04</rscale>
<asrwt>0</asrwt>
<pdfrwt beam="1">  1        2 0.20380931E+00 0.27948056E+04</pdfrwt>
<pdfrwt beam="2">  1       -2 0.22677361E+00 0.27948056E+04</pdfrwt>
<totfact> 0.12470101E+00</totfact>
</mgrwt>
</event>
<event>
12    1  0.2072842E-007  0.1562251E+04  0.7818608E-02  0.8844080E-01
         -2   -1    0    0    0  501 -0.00000000000E+00  0.00000000000E+00  0.17415739492E+03  0.17415739492E+03  0.00000000000E+00 0.  1.
          2   -1    0    0  501    0  0.00000000000E+00 -0.00000000000E+00 -0.35034811009E+04  0.35034811009E+04  0.00000000000E+00 0. -1.
         23    2    1    2    0    0 -0.40526987295E+03 -0.19815846100E+03 -0.17182190644E+04  0.17787695267E+04  0.90740456535E+02 0.  0.
        254    2    1    2    0    0  0.40526987295E+03  0.19815846100E+03 -0.16111046416E+04  0.18988689691E+04  0.89807279772E+03 0.  0.
        -24    2    4    4    0    0  0.35044083090E+03  0.21237222576E+03 -0.16523329970E+03  0.44961603182E+03  0.83317432187E+02 0.  0.
         24    2    4    4    0    0  0.54829042044E+02 -0.14213764759E+02 -0.14458713419E+04  0.14492529372E+04  0.81128810433E+02 0.  0.
         13    1    3    3    0    0 -0.24476395426E+03 -0.12797010051E+03 -0.87545249153E+03  0.91798845573E+03  0.00000000000E+00 0.  1.
        -13    1    3    3    0    0 -0.16050591868E+03 -0.70188360488E+02 -0.84276657285E+03  0.86078107101E+03  0.00000000000E+00 0. -1.
          4    1    6    6  502    0 -0.14779362398E+01 -0.14080361502E+02 -0.43382105997E+02  0.45633847046E+02  0.00000000000E+00 0. -1.
          1    1    5    5  503    0  0.28626657295E+02  0.44686980647E+01 -0.33916446859E+02  0.44606951676E+02  0.00000000000E+00 0. -1.
         -2    1    5    5    0  503  0.32181417361E+03  0.20790352769E+03 -0.13131685284E+03  0.40500908015E+03  0.00000000000E+00 0.  1.
         -3    1    6    6    0  502  0.56306978284E+02 -0.13340325661E+00 -0.14024892359E+04  0.14036190902E+04  0.00000000000E+00 0.  1.
<mgrwt>
<rscale>  0 0.15622511E+04</rscale>
<asrwt>0</asrwt>
<pdfrwt beam="1">  1        2 0.53899706E+00 0.15622511E+04</pdfrwt>
<pdfrwt beam="2">  1       -2 0.26793447E-01 0.15622511E+04</pdfrwt>
<totfact> 0.99545858E+00</totfact>
</mgrwt>
</event>
<event>
12    1  0.1960998E-007  0.3043011E+04  0.7818608E-02  0.8231554E-01
          2   -1    0    0  501    0  0.00000000000E+00  0.00000000000E+00  0.21611858180E+04  0.21611858180E+04  0.00000000000E+00 0. -1.
         -2   -1    0    0    0  501 -0.00000000000E+00 -0.00000000000E+00 -0.10711614799E+04  0.10711614799E+04  0.00000000000E+00 0.  1.
         23    2    1    2    0    0  0.73327513335E+02 -0.10504374700E+04  0.14558922404E+04  0.17991015761E+04  0.91369923622E+02 0.  0.
        254    2    1    2    0    0 -0.73327513335E+02  0.10504374700E+04 -0.36586790228E+03  0.14332457219E+04  0.90085413618E+03 0.  0.
        -24    2    4    4    0    0 -0.13737171662E+03 -0.12725186915E+03 -0.36611875573E+02  0.20605968070E+03  0.77821178668E+02 0.  0.
         24    2    4    4    0    0  0.64044203286E+02  0.11776893392E+04 -0.32925602671E+03  0.12271860412E+04  0.80760193991E+02 0.  0.
         11    1    3    3    0    0  0.62463826928E+02 -0.55683307226E+03  0.70722153056E+03  0.90228991645E+03  0.00000000000E+00 0. -1.
        -11    1    3    3    0    0  0.10863686407E+02 -0.49360439776E+03  0.74867070980E+03  0.89681165965E+03  0.00000000000E+00 0.  1.
          2    1    6    6  502    0  0.67042710847E+02  0.11234112309E+04 -0.33008562228E+03  0.11728188423E+04  0.00000000000E+00 0. -1.
          1    1    5    5  503    0 -0.13750209875E+03 -0.11554101165E+03 -0.13448513737E+02  0.18010390072E+03  0.00000000000E+00 0. -1.
         -2    1    5    5    0  503  0.13038212680E+00 -0.11710857492E+02 -0.23163361836E+02  0.25955779978E+02  0.00000000000E+00 0.  1.
         -1    1    6    6    0  502 -0.29985075614E+01  0.54278108238E+02  0.82959556886E+00  0.54367198846E+02  0.00000000000E+00 0.  1.
<mgrwt>
<rscale>  0 0.30430110E+04</rscale>
<asrwt>0</asrwt>
<pdfrwt beam="1">  1        2 0.33249013E+00 0.30430110E+04</pdfrwt>
<pdfrwt beam="2">  1       -2 0.16479407E+00 0.30430110E+04</pdfrwt>
<totfact> 0.10760278E+00</totfact>
</mgrwt>
</event>
<event>
12    1  0.1960998E-007  0.3537405E+04  0.7818608E-02  0.8104982E-01
          2   -1    0    0  501    0  0.00000000000E+00  0.00000000000E+00  0.32515979606E+04  0.32515979606E+04  0.00000000000E+00 0. -1.
         -2   -1    0    0    0  501 -0.00000000000E+00 -0.00000000000E+00 -0.96208319338E+03  0.96208319338E+03  0.00000000000E+00 0.  1.
         23    2    1    2    0    0  0.13490077498E+04  0.23311205391E+03 -0.32590556889E+02  0.13723184965E+04  0.89625736249E+02 0.  0.
        254    2    1    2    0    0 -0.13490077498E+04 -0.23311205391E+03  0.23221053241E+04  0.28413626575E+04  0.89833483531E+03 0.  0.
        -24    2    4    4    0    0 -0.11708115606E+04  0.73844555016E+02  0.12845282503E+04  0.17416226479E+04  0.83569689800E+02 0.  0.
         24    2    4    4    0    0 -0.17819618924E+03 -0.30695660892E+03  0.10375770738E+04  0.10997400096E+04  0.82979895352E+02 0.  0.
         11    1    3    3    0    0  0.30339250534E+02  0.98164980180E+01  0.12164314051E+02  0.34129229301E+02  0.00000000000E+00 0. -1.
        -11    1    3    3    0    0  0.13186684993E+04  0.22329555589E+03 -0.44754870940E+02  0.13381892672E+04  0.00000000000E+00 0.  1.
          2    1    6    6  502    0 -0.12097853471E+03 -0.13965802387E+03  0.59945917077E+03  0.62728898198E+03  0.00000000000E+00 0. -1.
          1    1    5    5  503    0 -0.68772767573E+03  0.25777570472E+01  0.74207478907E+03  0.10117563903E+04  0.00000000000E+00 0. -1.
         -2    1    5    5    0  503 -0.48308388486E+03  0.71266797969E+02  0.54245346124E+03  0.72986625756E+03  0.00000000000E+00 0.  1.
         -1    1    6    6    0  502 -0.57217654526E+02 -0.16729858505E+03  0.43811790303E+03  0.47245102763E+03  0.00000000000E+00 0.  1.
<mgrwt>
<rscale>  0 0.35374046E+04</rscale>
<asrwt>0</asrwt>
<pdfrwt beam="1">  1        2 0.50024583E+00 0.35374046E+04</pdfrwt>
<pdfrwt beam="2">  1       -2 0.14801280E+00 0.35374046E+04</pdfrwt>
<totfact> 0.30463364E-01</totfact>
</mgrwt>
</event>
<event>
12    1  0.1960998E-007  0.3182312E+04  0.7818608E-02  0.8193504E-01
         -2   -1    0    0    0  501 -0.00000000000E+00  0.00000000000E+00  0.95313335848E+03  0.95313335848E+03  0.00000000000E+00 0.  1.
          2   -1    0    0  501    0  0.00000000000E+00 -0.00000000000E+00 -0.26562670139E+04  0.26562670139E+04  0.00000000000E+00 0. -1.
         23    2    1    2    0    0  0.12835062973E+04 -0.65191674375E+03 -0.10750204223E+04  0.17990106745E+04  0.91578614858E+02 0.  0.
        254    2    1    2    0    0 -0.12835062973E+04  0.65191674375E+03 -0.62811323316E+03  0.18103896979E+04  0.90033369839E+03 0.  0.
        -24    2    4    4    0    0 -0.39284044466E+03  0.51606797952E+03  0.84653269626E+02  0.65890911758E+03  0.79657232667E+02 0.  0.
         24    2    4    4    0    0 -0.89066585266E+03  0.13584876423E+03 -0.71276650279E+03  0.11514805803E+04  0.78300009401E+02 0.  0.
         11    1    3    3    0    0  0.69316577929E+03 -0.34043238433E+03 -0.52101215930E+03  0.93157215288E+03  0.00000000000E+00 0.  1.
        -11    1    3    3    0    0  0.59034051803E+03 -0.31148435942E+03 -0.55400826296E+03  0.86743852164E+03  0.00000000000E+00 0. -1.
          4    1    6    6  502    0 -0.23005250924E+03  0.35810003802E+02 -0.14179589983E+03  0.27260335763E+03  0.00000000000E+00 0. -1.
          3    1    5    5  503    0 -0.35500611053E+03  0.41995159056E+03  0.77963042851E+02  0.55539797711E+03  0.00000000000E+00 0. -1.
         -4    1    5    5    0  503 -0.37834334135E+02  0.96116388964E+02  0.66902267751E+01  0.10351114047E+03  0.00000000000E+00 0.  1.
         -3    1    6    6    0  502 -0.66061334342E+03  0.10003876042E+03 -0.57097060296E+03  0.87887722267E+03  0.00000000000E+00 0.  1.
<mgrwt>
<rscale>  0 0.31823115E+04</rscale>
<asrwt>0</asrwt>
<pdfrwt beam="1">  1        2 0.40865647E+00 0.31823115E+04</pdfrwt>
<pdfrwt beam="2">  1       -2 0.14663590E+00 0.31823115E+04</pdfrwt>
<totfact> 0.75611863E-01</totfact>
</mgrwt>
</event>
<event>
12    1  0.1960998E-007  0.1752290E+04  0.7818608E-02  0.8732091E-01
         -2   -1    0    0    0  501 -0.00000000000E+00  0.00000000000E+00  0.45463033805E+03  0.45463033805E+03  0.00000000000E+00 0.  1.
          2   -1    0    0  501    0  0.00000000000E+00 -0.00000000000E+00 -0.16884713393E+04  0.16884713393E+04  0.00000000000E+00 0. -1.
         23    2    1    2    0    0  0.32904082429E+03 -0.55358412562E+03 -0.52317205036E+03  0.83473931701E+03  0.91419280817E+02 0.  0.
        254    2    1    2    0    0 -0.32904082429E+03  0.55358412562E+03 -0.71066895090E+03  0.13083623603E+04  0.88996542630E+03 0.  0.
        -24    2    4    4    0    0 -0.17745713634E+03 -0.24728402965E+02  0.15866125567E+03  0.25026429811E+03  0.73186718108E+02 0.  0.
         24    2    4    4    0    0 -0.15158368795E+03  0.57831252858E+03 -0.86933020657E+03  0.10580980622E+04  0.80084368562E+02 0.  0.
         13    1    3    3    0    0  0.24214958733E+03 -0.33972284113E+03 -0.37068968431E+03  0.55808500561E+03  0.00000000000E+00 0. -1.
        -13    1    3    3    0    0  0.86891236953E+02 -0.21386128449E+03 -0.15248236605E+03  0.27665431140E+03  0.00000000000E+00 0.  1.
          2    1    6    6  502    0 -0.13744609685E+03  0.50644923318E+03 -0.71137793999E+03  0.88399141898E+03  0.00000000000E+00 0. -1.
          3    1    5    5  503    0 -0.34459149947E+02 -0.25864240794E+02  0.69409713291E+02  0.81695166724E+02  0.00000000000E+00 0. -1.
         -4    1    5    5    0  503 -0.14299798639E+03  0.11358378292E+01  0.89251542380E+02  0.16856913139E+03  0.00000000000E+00 0.  1.
         -1    1    6    6    0  502 -0.14137591101E+02  0.71863295403E+02 -0.15795226658E+03  0.17410664326E+03  0.00000000000E+00 0.  1.
<mgrwt>
<rscale>  0 0.17522903E+04</rscale>
<asrwt>0</asrwt>
<pdfrwt beam="1">  1        2 0.25976482E+00 0.17522903E+04</pdfrwt>
<pdfrwt beam="2">  1       -2 0.69943130E-01 0.17522903E+04</pdfrwt>
<totfact> 0.17562527E+01</totfact>
</mgrwt>
</event>
<event>
12    1  0.1960998E-007  0.1728952E+04  0.7818608E-02  0.8745022E-01
          2   -1    0    0  501    0  0.00000000000E+00  0.00000000000E+00  0.29401565875E+04  0.29401565875E+04  0.00000000000E+00 0. -1.
         -2   -1    0    0    0  501 -0.00000000000E+00 -0.00000000000E+00 -0.25417651804E+03  0.25417651804E+03  0.00000000000E+00 0.  1.
         23    2    1    2    0    0  0.38494718496E+03  0.48066427194E+03  0.11748016780E+04  0.13295896768E+04  0.91800045276E+02 0.  0.
        254    2    1    2    0    0 -0.38494718496E+03 -0.48066427194E+03  0.15111783914E+04  0.18647434288E+04  0.90243307061E+03 0.  0.
        -24    2    4    4    0    0  0.28020267016E+03 -0.24864620774E+03  0.51171106696E+03  0.63931578857E+03  0.80857828801E+02 0.  0.
         24    2    4    4    0    0 -0.66514985512E+03 -0.23201806419E+03  0.99946732447E+03  0.12254276402E+04  0.80506253339E+02 0.  0.
         11    1    3    3    0    0  0.30968026085E+03  0.43696223184E+03  0.10081659851E+04  0.11415938461E+04  0.00000000000E+00 0. -1.
        -11    1    3    3    0    0  0.75266924114E+02  0.43702040092E+02  0.16663569297E+03  0.18799583066E+03  0.00000000000E+00 0.  1.
          2    1    6    6  502    0 -0.55117497124E+03 -0.16257341047E+03  0.78579473474E+03  0.97349747193E+03  0.00000000000E+00 0. -1.
          3    1    5    5  503    0  0.10830863192E+03 -0.65150350186E+02  0.12292718547E+03  0.17631341641E+03  0.00000000000E+00 0. -1.
         -4    1    5    5    0  503  0.17189403823E+03 -0.18349585756E+03  0.38878388149E+03  0.46300237216E+03  0.00000000000E+00 0.  1.
         -1    1    6    6    0  502 -0.11397488388E+03 -0.69444653723E+02  0.21367258973E+03  0.25193016828E+03  0.00000000000E+00 0.  1.
<mgrwt>
<rscale>  0 0.17289520E+04</rscale>
<asrwt>0</asrwt>
<pdfrwt beam="1">  1        2 0.45233176E+00 0.17289520E+04</pdfrwt>
<pdfrwt beam="2">  1       -2 0.39104082E-01 0.17289520E+04</pdfrwt>
<totfact> 0.11182593E+01</totfact>
</mgrwt>
</event>
<event>
12    1  0.1960998E-007  0.1758915E+04  0.7818608E-02  0.8728458E-01
         -1   -1    0    0    0  501 -0.00000000000E+00  0.00000000000E+00  0.33283544295E+03  0.33283544295E+03  0.00000000000E+00 0.  1.
          1   -1    0    0  501    0  0.00000000000E+00 -0.00000000000E+00 -0.23238074405E+04  0.23238074405E+04  0.00000000000E+00 0. -1.
         23    2    1    2    0    0 -0.10589397831E+03 -0.60388895886E+03 -0.39861918716E+03  0.73686983275E+03  0.90468142295E+02 0.  0.
        254    2    1    2    0    0  0.10589397831E+03  0.60388895886E+03 -0.15923528104E+04  0.19197730507E+04  0.87979866117E+03 0.  0.
        -24    2    4    4    0    0  0.32669292164E+03  0.89038686775E+02 -0.16609705916E+03  0.38530524865E+03  0.78840020173E+02 0.  0.
         24    2    4    4    0    0 -0.22079894334E+03  0.51485027209E+03 -0.14262557513E+04  0.15344678021E+04  0.81012292804E+02 0.  0.
         11    1    3    3    0    0 -0.67012620729E+02 -0.35143791508E+03 -0.28454337354E+03  0.45712605583E+03  0.00000000000E+00 0. -1.
        -11    1    3    3    0    0 -0.38881357577E+02 -0.25245104378E+03 -0.11407581362E+03  0.27974377692E+03  0.00000000000E+00 0.  1.
          4    1    6    6  502    0 -0.16479832723E+03  0.44087442189E+03 -0.12414895255E+04  0.13277141960E+04  0.00000000000E+00 0. -1.
          1    1    5    5  503    0  0.18128281856E+03  0.29892903138E+02 -0.51078088587E+02  0.19069876009E+03  0.00000000000E+00 0. -1.
         -2    1    5    5    0  503  0.14541010308E+03  0.59145783636E+02 -0.11501897057E+03  0.19460648856E+03  0.00000000000E+00 0.  1.
         -3    1    6    6    0  502 -0.56000616105E+02  0.73975850194E+02 -0.18476622578E+03  0.20675360603E+03  0.00000000000E+00 0.  1.
<mgrwt>
<rscale>  0 0.17589150E+04</rscale>
<asrwt>0</asrwt>
<pdfrwt beam="1">  1        1 0.35750883E+00 0.17589150E+04</pdfrwt>
<pdfrwt beam="2">  1       -1 0.51205453E-01 0.17589150E+04</pdfrwt>
<totfact> 0.65145489E+00</totfact>
</mgrwt>
</event>
<event>
12    1  0.2109810E-007  0.2871951E+04  0.7818608E-02  0.8281272E-01
         -1   -1    0    0    0  501 -0.00000000000E+00  0.00000000000E+00  0.14969887186E+04  0.14969887186E+04  0.00000000000E+00 0.  1.
          1   -1    0    0  501    0  0.00000000000E+00 -0.00000000000E+00 -0.13774489622E+04  0.13774489622E+04  0.00000000000E+00 0. -1.
         23    2    1    2    0    0  0.89442454246E+03  0.91996484699E+03 -0.10498531822E+03  0.12907841909E+04  0.93655371627E+02 0.  0.
        254    2    1    2    0    0 -0.89442454246E+03 -0.91996484699E+03  0.22452507470E+03  0.15836534899E+04  0.90067546042E+03 0.  0.
        -24    2    4    4    0    0 -0.98678890457E+03 -0.96561343594E+03  0.74961259812E+02  0.13849343373E+04  0.79134557687E+02 0.  0.
         24    2    4    4    0    0  0.92364362108E+02  0.45648588949E+02  0.14956381489E+03  0.19871915262E+03  0.80653566765E+02 0.  0.
         11    1    3    3    0    0  0.35885472052E+03  0.32962795903E+03 -0.35829029673E+01  0.48728240170E+03  0.00000000000E+00 0.  1.
        -11    1    3    3    0    0  0.53556982194E+03  0.59033688795E+03 -0.10140241525E+03  0.80350178921E+03  0.00000000000E+00 0. -1.
          4    1    6    6  502    0 -0.41340790865E+01 -0.15585648737E+02  0.13532902772E+02  0.21050950427E+02  0.00000000000E+00 0. -1.
          3    1    5    5  503    0 -0.99816058882E+02 -0.67153105853E+02  0.10808230119E+02  0.12078742929E+03  0.00000000000E+00 0. -1.
         -4    1    5    5    0  503 -0.88697284568E+03 -0.89846033008E+03  0.64153029693E+02  0.12641469080E+04  0.00000000000E+00 0.  1.
         -3    1    6    6    0  502  0.96498441195E+02  0.61234237686E+02  0.13603091212E+03  0.17766820219E+03  0.00000000000E+00 0.  1.
<mgrwt>
<rscale>  0 0.28719509E+04</rscale>
<asrwt>0</asrwt>
<pdfrwt beam="1">  1        1 0.21191522E+00 0.28719509E+04</pdfrwt>
<pdfrwt beam="2">  1       -1 0.23030596E+00 0.28719509E+04</pdfrwt>
<totfact> 0.64421423E-01</totfact>
</mgrwt>
</event>
<event>
12    1  0.1960998E-007  0.4107020E+04  0.7818608E-02  0.7983298E-01
          1   -1    0    0  501    0  0.00000000000E+00  0.00000000000E+00  0.18789601607E+04  0.18789601607E+04  0.00000000000E+00 0. -1.
         -1   -1    0    0    0  501 -0.00000000000E+00 -0.00000000000E+00 -0.22442753573E+04  0.22442753573E+04  0.00000000000E+00 0.  1.
         23    2    1    2    0    0  0.58203840638E+03  0.16059029010E+04 -0.11267900688E+04  0.20479677997E+04  0.82603968288E+02 0.  0.
        254    2    1    2    0    0 -0.58203840638E+03 -0.16059029010E+04  0.76147487225E+03  0.20752677183E+04  0.89955504969E+03 0.  0.
        -24    2    4    4    0    0 -0.21400854466E+03 -0.12177783212E+04  0.88216431891E+03  0.15212517624E+04  0.84907846181E+02 0.  0.
         24    2    4    4    0    0 -0.36802986173E+03 -0.38812457983E+03 -0.12068944666E+03  0.55401595586E+03  0.79253190581E+02 0.  0.
         11    1    3    3    0    0  0.16195237857E+03  0.52631523953E+03 -0.39623065110E+03  0.67840624493E+03  0.00000000000E+00 0.  1.
        -11    1    3    3    0    0  0.42008602781E+03  0.10795876615E+04 -0.73055941773E+03  0.13695615548E+04  0.00000000000E+00 0. -1.
          2    1    6    6  502    0 -0.35059939640E+03 -0.38427296290E+03 -0.10593285576E+03  0.53085536326E+03  0.00000000000E+00 0. -1.
          1    1    5    5  503    0 -0.18375307766E+03 -0.93739879518E+03  0.71748649104E+03  0.11946834558E+04  0.00000000000E+00 0. -1.
         -2    1    5    5    0  503 -0.30255466997E+02 -0.28037952600E+03  0.16467782787E+03  0.32656830660E+03  0.00000000000E+00 0.  1.
         -3    1    6    6    0  502 -0.17430465328E+02 -0.38516169305E+01 -0.14756590898E+02  0.23160592597E+02  0.00000000000E+00 0.  1.
<mgrwt>
<rscale>  0 0.41070203E+04</rscale>
<asrwt>0</asrwt>
<pdfrwt beam="1">  1        1 0.28907079E+00 0.41070203E+04</pdfrwt>
<pdfrwt beam="2">  1       -1 0.34527313E+00 0.41070203E+04</pdfrwt>
<totfact> 0.46636661E-02</totfact>
</mgrwt>
</event>
<event>
12    1  0.1960998E-007  0.1861217E+04  0.7818608E-02  0.8674405E-01
          2   -1    0    0  501    0  0.00000000000E+00  0.00000000000E+00  0.20406846832E+04  0.20406846832E+04  0.00000000000E+00 0.  1.
         -2   -1    0    0    0  501 -0.00000000000E+00 -0.00000000000E+00 -0.42438330114E+03  0.42438330114E+03  0.00000000000E+00 0. -1.
         23    2    1    2    0    0  0.38923803379E+03 -0.40349018986E+02 -0.16244471084E+03  0.43269592576E+03  0.87767817623E+02 0.  0.
        254    2    1    2    0    0 -0.38923803379E+03  0.40349018986E+02  0.17787460929E+04  0.20323720586E+04  0.90192251952E+03 0.  0.
        -24    2    4    4    0    0  0.13020993222E+00  0.38491974222E+03  0.11326081324E+04  0.11988795997E+04  0.79673634905E+02 0.  0.
         24    2    4    4    0    0 -0.38936824372E+03 -0.34457072323E+03  0.64613796056E+03  0.83349245893E+03  0.82938546503E+02 0.  0.
         11    1    3    3    0    0  0.29623929050E+03 -0.68120971850E+02 -0.12487495768E+03  0.32862127000E+03  0.00000000000E+00 0.  1.
        -11    1    3    3    0    0  0.92998743286E+02  0.27771952864E+02 -0.37569753168E+02  0.10407465576E+03  0.00000000000E+00 0. -1.
          2    1    6    6  502    0 -0.31163681339E+03 -0.28650078660E+03  0.57084277469E+03  0.71067691506E+03  0.00000000000E+00 0. -1.
          3    1    5    5  503    0  0.28877183338E+01  0.12290688752E+03  0.25675173874E+03  0.28466804750E+03  0.00000000000E+00 0. -1.
         -4    1    5    5    0  503 -0.27575084016E+01  0.26201285470E+03  0.87585639364E+03  0.91421155219E+03  0.00000000000E+00 0.  1.
         -1    1    6    6    0  502 -0.77731430332E+02 -0.58069936631E+02  0.75295185865E+02  0.12281554387E+03  0.00000000000E+00 0.  1.
<mgrwt>
<rscale>  0 0.18612173E+04</rscale>
<asrwt>0</asrwt>
<pdfrwt beam="1">  1        2 0.31395148E+00 0.18612173E+04</pdfrwt>
<pdfrwt beam="2">  1       -2 0.65289740E-01 0.18612173E+04</pdfrwt>
<totfact> 0.12882190E+01</totfact>
</mgrwt>
</event>
<event>
12    1  0.1960998E-007  0.1496058E+04  0.7818608E-02  0.8887078E-01
         -1   -1    0    0    0  501 -0.00000000000E+00  0.00000000000E+00  0.36164085555E+03  0.36164085555E+03  0.00000000000E+00 0.  1.
          1   -1    0    0  501    0  0.00000000000E+00 -0.00000000000E+00 -0.15472463375E+04  0.15472463375E+04  0.00000000000E+00 0. -1.
         23    2    1    2    0    0  0.25334296691E+03  0.39526322286E+03 -0.28234832194E+03  0.55266409294E+03  0.72810373581E+02 0.  0.
        254    2    1    2    0    0 -0.25334296691E+03 -0.39526322286E+03 -0.90325716000E+03  0.13562231001E+04  0.89613164543E+03 0.  0.
        -24    2    4    4    0    0 -0.47195101866E+03 -0.54291854652E+03 -0.55366693407E+03  0.91136297294E+03  0.80852225718E+02 0.  0.
         24    2    4    4    0    0  0.21860805175E+03  0.14765532366E+03 -0.34959022593E+03  0.44486012716E+03  0.78074527071E+02 0.  0.
         11    1    3    3    0    0  0.80687047240E+02  0.15306265776E+03 -0.67431114205E+02  0.18570280546E+03  0.00000000000E+00 0.  1.
        -11    1    3    3    0    0  0.17265591967E+03  0.24220056509E+03 -0.21491720774E+03  0.36696128748E+03  0.00000000000E+00 0. -1.
          4    1    6    6  502    0  0.74400095833E+02  0.92766374772E+02 -0.12661246265E+03  0.17370000071E+03  0.00000000000E+00 0. -1.
          1    1    5    5  503    0 -0.46776127712E+02 -0.67412548488E+02 -0.96019039472E+02  0.12630167758E+03  0.00000000000E+00 0. -1.
         -2    1    5    5    0  503 -0.42517489095E+03 -0.47550599803E+03 -0.45764789460E+03  0.78506129537E+03  0.00000000000E+00 0.  1.
         -3    1    6    6    0  502  0.14420795592E+03  0.54888948888E+02 -0.22297776328E+03  0.27116012645E+03  0.00000000000E+00 0.  1.
<mgrwt>
<rscale>  0 0.14960581E+04</rscale>
<asrwt>0</asrwt>
<pdfrwt beam="1">  1        1 0.23803790E+00 0.14960581E+04</pdfrwt>
<pdfrwt beam="2">  1       -1 0.55637053E-01 0.14960581E+04</pdfrwt>
<totfact> 0.19179679E+01</totfact>
</mgrwt>
</event>
<event>
12    1  0.1960998E-007  0.2010838E+04  0.7818608E-02  0.8601570E-01
         -1   -1    0    0    0  501 -0.00000000000E+00  0.00000000000E+00  0.11891899567E+04  0.11891899567E+04  0.00000000000E+00 0.  1.
          1   -1    0    0  501    0  0.00000000000E+00 -0.00000000000E+00 -0.85004689867E+03  0.85004689867E+03  0.00000000000E+00 0. -1.
         23    2    1    2    0    0 -0.15147363096E+03  0.34288547865E+03  0.85401024493E+03  0.93710407462E+03  0.91191205114E+02 0.  0.
        254    2    1    2    0    0  0.15147363096E+03 -0.34288547865E+03 -0.51486718690E+03  0.11021327807E+04  0.89949637792E+03 0.  0.
        -24    2    4    4    0    0  0.34722604920E+03 -0.36926157506E+03 -0.66626807301E+03  0.84087252197E+03  0.78951966580E+02 0.  0.
         24    2    4    4    0    0 -0.19575241823E+03  0.26376096419E+02  0.15140088611E+03  0.26126025877E+03  0.79498344584E+02 0.  0.
         13    1    3    3    0    0 -0.14850300019E+03  0.33198382324E+03  0.76130789462E+03  0.84371565730E+03  0.00000000000E+00 0. -1.
        -13    1    3    3    0    0 -0.29706307733E+01  0.10901655402E+02  0.92702350308E+02  0.93388417325E+02  0.00000000000E+00 0.  1.
          2    1    6    6  502    0 -0.35999961237E+02 -0.21947315227E+02  0.12098790906E+02  0.43864137927E+02  0.00000000000E+00 0. -1.
          1    1    5    5  503    0  0.26440791614E+03 -0.23921332455E+03 -0.50009516524E+03  0.61419030850E+03  0.00000000000E+00 0. -1.
         -2    1    5    5    0  503  0.82818133054E+02 -0.13004825052E+03 -0.16617290777E+03  0.22668221347E+03  0.00000000000E+00 0.  1.
         -1    1    6    6    0  502 -0.15975245700E+03  0.48323411646E+02  0.13930209521E+03  0.21739612085E+03  0.00000000000E+00 0.  1.
<mgrwt>
<rscale>  0 0.20108379E+04</rscale>
<asrwt>0</asrwt>
<pdfrwt beam="1">  1        1 0.13077645E+00 0.20108379E+04</pdfrwt>
<pdfrwt beam="2">  1       -1 0.18295230E+00 0.20108379E+04</pdfrwt>
<totfact> 0.36786893E+00</totfact>
</mgrwt>
</event>
<event>
12    1  0.1960998E-007  0.1791613E+04  0.7818608E-02  0.8710772E-01
          2   -1    0    0  501    0  0.00000000000E+00  0.00000000000E+00  0.22096823219E+04  0.22096823219E+04  0.00000000000E+00 0. -1.
         -2   -1    0    0    0  501 -0.00000000000E+00 -0.00000000000E+00 -0.36316048715E+03  0.36316048715E+03  0.00000000000E+00 0.  1.
         23    2    1    2    0    0 -0.10326924318E+03 -0.37195700319E+03  0.14708076457E+04  0.15232682612E+04  0.89746956736E+02 0.  0.
        254    2    1    2    0    0  0.10326924318E+03  0.37195700319E+03  0.37571418909E+03  0.10495745479E+04  0.90079355616E+03 0.  0.
        -24    2    4    4    0    0  0.15920479110E+03 -0.12904038267E+03  0.48097532682E+03  0.52893592787E+03  0.80239422466E+02 0.  0.
         24    2    4    4    0    0 -0.55935547922E+02  0.50099738587E+03 -0.10526113773E+03  0.52063861998E+03  0.76534301669E+02 0.  0.
         11    1    3    3    0    0 -0.86048159601E+02 -0.16127011266E+03  0.76149513638E+03  0.78312654005E+03  0.00000000000E+00 0. -1.
        -11    1    3    3    0    0 -0.17221083577E+02 -0.21068689054E+03  0.70931250932E+03  0.74014172119E+03  0.00000000000E+00 0.  1.
          4    1    6    6  502    0 -0.52285293382E+02  0.50060772842E+03 -0.10942454063E+03  0.51508793400E+03  0.00000000000E+00 0. -1.
          3    1    5    5  503    0  0.12082070683E+03 -0.10004710017E+03  0.43490105854E+03  0.46232672016E+03  0.00000000000E+00 0. -1.
         -4    1    5    5    0  503  0.38384084267E+02 -0.28993282498E+02  0.46074268278E+02  0.66609207714E+02  0.00000000000E+00 0.  1.
         -3    1    6    6    0  502 -0.36502545400E+01  0.38965744230E+00  0.41634028991E+01  0.55506859783E+01  0.00000000000E+00 0.  1.
<mgrwt>
<rscale>  0 0.17916130E+04</rscale>
<asrwt>0</asrwt>
<pdfrwt beam="1">  1        2 0.33995112E+00 0.17916130E+04</pdfrwt>
<pdfrwt beam="2">  1       -2 0.55870846E-01 0.17916130E+04</pdfrwt>
<totfact> 0.14499351E+01</totfact>
</mgrwt>
</event>
<event>
12    1  0.1960998E-007  0.1865387E+04  0.7818608E-02  0.8672280E-01
         -2   -1    0    0    0  501 -0.00000000000E+00  0.00000000000E+00  0.32057458449E+03  0.32057458449E+03  0.00000000000E+00 0.  1.
          2   -1    0    0  501    0  0.00000000000E+00 -0.00000000000E+00 -0.27136173194E+04  0.27136173194E+04  0.00000000000E+00 0. -1.
         23    2    1    2    0    0  0.49708808528E+03  0.17010097282E+03 -0.13831413071E+03  0.55060593649E+03  0.89471744454E+02 0.  0.
        254    2    1    2    0    0 -0.49708808528E+03 -0.17010097282E+03 -0.22547286042E+04  0.24835859674E+04  0.89909247209E+03 0.  0.
        -24    2    4    4    0    0  0.33957575130E+02 -0.29945005436E+03 -0.15869536802E+04  0.16173293072E+04  0.80676223048E+02 0.  0.
         24    2    4    4    0    0 -0.53104566041E+03  0.12934908154E+03 -0.66777492400E+03  0.86625666016E+03  0.75740173069E+02 0.  0.
         13    1    3    3    0    0  0.26445925206E+03  0.12649267063E+03 -0.46884197701E+02  0.29687913318E+03  0.00000000000E+00 0.  1.
        -13    1    3    3    0    0  0.23262883322E+03  0.43608302187E+02 -0.91429933004E+02  0.25372680330E+03  0.00000000000E+00 0. -1.
          2    1    6    6  502    0 -0.21706550364E+03  0.69891713274E+02 -0.33149408644E+03  0.40235632691E+03  0.00000000000E+00 0. -1.
          3    1    5    5  503    0  0.43602739410E+02 -0.29178234365E+03 -0.14430449772E+04  0.14728940699E+04  0.00000000000E+00 0. -1.
         -4    1    5    5    0  503 -0.96451642805E+01 -0.76677107098E+01 -0.14390870298E+03  0.14443523730E+03  0.00000000000E+00 0.  1.
         -1    1    6    6    0  502 -0.31398015677E+03  0.59457368262E+02 -0.33628083755E+03  0.46390033325E+03  0.00000000000E+00 0.  1.
<mgrwt>
<rscale>  0 0.18653865E+04</rscale>
<asrwt>0</asrwt>
<pdfrwt beam="1">  1        2 0.41747959E+00 0.18653865E+04</pdfrwt>
<pdfrwt beam="2">  1       -2 0.49319167E-01 0.18653865E+04</pdfrwt>
<totfact> 0.95424052E+00</totfact>
</mgrwt>
</event>
<event>
12    1  0.1960998E-007  0.2339183E+04  0.7818608E-02  0.8462630E-01
          2   -1    0    0  501    0  0.00000000000E+00  0.00000000000E+00  0.12604556810E+04  0.12604556810E+04  0.00000000000E+00 0. -1.
         -2   -1    0    0    0  501 -0.00000000000E+00 -0.00000000000E+00 -0.10852773665E+04  0.10852773665E+04  0.00000000000E+00 0.  1.
         23    2    1    2    0    0 -0.47157399634E+03  0.23414797975E+03  0.91999596251E+03  0.10640547713E+04  0.92804497715E+02 0.  0.
        254    2    1    2    0    0  0.47157399634E+03 -0.23414797975E+03 -0.74481764797E+03  0.12816782762E+04  0.90041022010E+03 0.  0.
        -24    2    4    4    0    0 -0.20359932099E+03  0.14688387184E+03 -0.18638126448E+03  0.32245294213E+03  0.78805893327E+02 0.  0.
         24    2    4    4    0    0  0.67517331733E+03 -0.38103185159E+03 -0.55843638349E+03  0.95922533405E+03  0.84957440633E+02 0.  0.
         13    1    3    3    0    0 -0.33700227459E+03  0.20069248315E+03  0.73180167042E+03  0.83029012441E+03  0.00000000000E+00 0. -1.
        -13    1    3    3    0    0 -0.13457172175E+03  0.33455496603E+02  0.18819429210E+03  0.23376464687E+03  0.00000000000E+00 0.  1.
          2    1    6    6  502    0  0.28220552050E+03 -0.16720993203E+03 -0.28765928736E+03  0.43628772934E+03  0.00000000000E+00 0. -1.
          3    1    5    5  503    0 -0.17835090148E+03  0.93075957579E+02 -0.12416632500E+03  0.23640950531E+03  0.00000000000E+00 0. -1.
         -4    1    5    5    0  503 -0.25248419517E+02  0.53807914263E+02 -0.62214939479E+02  0.86043436821E+02  0.00000000000E+00 0.  1.
         -1    1    6    6    0  502  0.39296779683E+03 -0.21382191956E+03 -0.27077709613E+03  0.52293760471E+03  0.00000000000E+00 0.  1.
<mgrwt>
<rscale>  0 0.23391828E+04</rscale>
<asrwt>0</asrwt>
<pdfrwt beam="1">  1        2 0.19391626E+00 0.23391828E+04</pdfrwt>
<pdfrwt beam="2">  1       -2 0.16696575E+00 0.23391828E+04</pdfrwt>
<totfact> 0.35313810E+00</totfact>
</mgrwt>
</event>
<event>
12    1  0.1960998E-007  0.2796648E+04  0.7818608E-02  0.8304310E-01
          2   -1    0    0  501    0  0.00000000000E+00  0.00000000000E+00  0.16981204135E+04  0.16981204135E+04  0.00000000000E+00 0. -1.
         -2   -1    0    0    0  501 -0.00000000000E+00 -0.00000000000E+00 -0.11514551281E+04  0.11514551281E+04  0.00000000000E+00 0.  1.
         23    2    1    2    0    0  0.11938427505E+04 -0.12660631176E+03 -0.11604719315E+03  0.12095357062E+04  0.90664228886E+02 0.  0.
        254    2    1    2    0    0 -0.11938427505E+04  0.12660631176E+03  0.66271247860E+03  0.16400398355E+04  0.89958499406E+03 0.  0.
        -24    2    4    4    0    0 -0.86181030473E+03  0.49311920562E+03  0.39328733510E+03  0.10713789931E+04  0.85407649651E+02 0.  0.
         24    2    4    4    0    0 -0.33203244575E+03 -0.36651289386E+03  0.26942514350E+03  0.56866084236E+03  0.78790857873E+02 0.  0.
         11    1    3    3    0    0  0.58368649664E+03 -0.17482526902E+02 -0.66451878071E+02  0.58771712346E+03  0.00000000000E+00 0.  1.
        -11    1    3    3    0    0  0.61015625384E+03 -0.10912378486E+03 -0.49595315078E+02  0.62181858271E+03  0.00000000000E+00 0. -1.
          4    1    6    6  502    0 -0.25646676754E+03 -0.24855771781E+03  0.22314700777E+03  0.42113029933E+03  0.00000000000E+00 0. -1.
          3    1    5    5  503    0 -0.85334475903E+03  0.47588206780E+03  0.38188926262E+03  0.10490473913E+04  0.00000000000E+00 0. -1.
         -4    1    5    5    0  503 -0.84655456949E+01  0.17237137818E+02  0.11398072477E+02  0.22331601829E+02  0.00000000000E+00 0.  1.
         -3    1    6    6    0  502 -0.75565678210E+02 -0.11795517605E+03  0.46278135736E+02  0.14753054303E+03  0.00000000000E+00 0.  1.
<mgrwt>
<rscale>  0 0.27966476E+04</rscale>
<asrwt>0</asrwt>
<pdfrwt beam="1">  1        2 0.26124929E+00 0.27966476E+04</pdfrwt>
<pdfrwt beam="2">  1       -2 0.17714694E+00 0.27966476E+04</pdfrwt>
<totfact> 0.16242158E+00</totfact>
</mgrwt>
</event>
<event>
12    1  0.1960998E-007  0.2821571E+04  0.7818608E-02  0.8296602E-01
         -1   -1    0    0    0  501 -0.00000000000E+00  0.00000000000E+00  0.69259735341E+03  0.69259735341E+03  0.00000000000E+00 0.  1.
          1   -1    0    0  501    0  0.00000000000E+00 -0.00000000000E+00 -0.28736986732E+04  0.28736986732E+04  0.00000000000E+00 0. -1.
         23    2    1    2    0    0  0.96342044444E+03  0.33191887176E+03 -0.19292809395E+04  0.21837435328E+04  0.90894353190E+02 0.  0.
        254    2    1    2    0    0 -0.96342044444E+03 -0.33191887176E+03 -0.25182038030E+03  0.13825524938E+04  0.89982709669E+03 0.  0.
        -24    2    4    4    0    0 -0.20976169010E+01 -0.31676632129E+03  0.11983504380E+03  0.34864161972E+03  0.82735959390E+02 0.  0.
         24    2    4    4    0    0 -0.96132282753E+03 -0.15152550473E+02 -0.37165542409E+03  0.10339108741E+04  0.80453481765E+02 0.  0.
         11    1    3    3    0    0  0.37433558924E+03  0.98663127463E+02 -0.80434864965E+03  0.89265799514E+03  0.00000000000E+00 0. -1.
        -11    1    3    3    0    0  0.58908485519E+03  0.23325574430E+03 -0.11249322898E+04  0.12910855377E+04  0.00000000000E+00 0.  1.
          4    1    6    6  502    0 -0.60814940468E+03 -0.42420005829E+02 -0.21284286237E+03  0.64571451848E+03  0.00000000000E+00 0. -1.
          1    1    5    5  503    0  0.91783070294E+01 -0.23428279417E+03  0.12410336200E+03  0.26528157385E+03  0.00000000000E+00 0. -1.
         -2    1    5    5    0  503 -0.11275923930E+02 -0.82483527123E+02 -0.42683182027E+01  0.83360045869E+02  0.00000000000E+00 0.  1.
         -3    1    6    6    0  502 -0.35317342285E+03  0.27267455356E+02 -0.15881256173E+03  0.38819635559E+03  0.00000000000E+00 0.  1.
<mgrwt>
<rscale>  0 0.28215713E+04</rscale>
<asrwt>0</asrwt>
<pdfrwt beam="1">  1        1 0.44210749E+00 0.28215713E+04</pdfrwt>
<pdfrwt beam="2">  1       -1 0.10655344E+00 0.28215713E+04</pdfrwt>
<totfact> 0.52428494E-01</totfact>
</mgrwt>
</event>
<event>
12    1  0.1960998E-007  0.1423547E+04  0.7818608E-02  0.8936948E-01
          2   -1    0    0  501    0  0.00000000000E+00  0.00000000000E+00  0.94762020820E+03  0.94762020820E+03  0.00000000000E+00 0. -1.
         -2   -1    0    0    0  501 -0.00000000000E+00 -0.00000000000E+00 -0.53462537725E+03  0.53462537725E+03  0.00000000000E+00 0.  1.
         23    2    1    2    0    0 -0.18833916065E+03  0.53551072506E+01 -0.26740544211E+03  0.33846851362E+03  0.86919201768E+02 0.  0.
        254    2    1    2    0    0  0.18833916065E+03 -0.53551072506E+01  0.68040027306E+03  0.11437770718E+04  0.89987840393E+03 0.  0.
        -24    2    4    4    0    0  0.94564895777E+02  0.42546758066E+03  0.20014313351E+03  0.48636178102E+03  0.80779492682E+02 0.  0.
         24    2    4    4    0    0  0.93774264871E+02 -0.43082268791E+03  0.48025713956E+03  0.65741529081E+03  0.84534864566E+02 0.  0.
         11    1    3    3    0    0 -0.23538435229E+02 -0.23184161003E+02 -0.16507488110E+02  0.36933188573E+02  0.00000000000E+00 0. -1.
        -11    1    3    3    0    0 -0.16480072542E+03  0.28539268254E+02 -0.25089795400E+03  0.30153532505E+03  0.00000000000E+00 0.  1.
          2    1    6    6  502    0  0.98785626565E+01 -0.70407117301E+02  0.12849337820E+03  0.14685127309E+03  0.00000000000E+00 0. -1.
          1    1    5    5  503    0  0.35551063587E+02  0.77969772401E+02  0.11142830260E+02  0.86413692183E+02  0.00000000000E+00 0. -1.
         -2    1    5    5    0  503  0.59013832190E+02  0.34749780826E+03  0.18900030325E+03  0.39994808883E+03  0.00000000000E+00 0.  1.
         -1    1    6    6    0  502  0.83895702215E+02 -0.36041557061E+03  0.35176376135E+03  0.51056401772E+03  0.00000000000E+00 0.  1.
<mgrwt>
<rscale>  0 0.14235474E+04</rscale>
<asrwt>0</asrwt>
<pdfrwt beam="1">  1        2 0.14578772E+00 0.14235474E+04</pdfrwt>
<pdfrwt beam="2">  1       -2 0.82250058E-01 0.14235474E+04</pdfrwt>
<totfact> 0.34385555E+01</totfact>
</mgrwt>
</event>
<event>
12    1  0.1960998E-007  0.2630307E+04  0.7818608E-02  0.8357979E-01
          2   -1    0    0  501    0  0.00000000000E+00  0.00000000000E+00  0.30695094548E+04  0.30695094548E+04  0.00000000000E+00 0. -1.
         -2   -1    0    0    0  501 -0.00000000000E+00 -0.00000000000E+00 -0.56348719488E+03  0.56348719488E+03  0.00000000000E+00 0.  1.
         23    2    1    2    0    0  0.73295304614E+03  0.87888431436E+03  0.85690159106E+03  0.14324577698E+04  0.89426616441E+02 0.  0.
        254    2    1    2    0    0 -0.73295304614E+03 -0.87888431436E+03  0.16491206688E+04  0.22005388798E+04  0.90172865947E+03 0.  0.
        -24    2    4    4    0    0 -0.68800060404E+01 -0.42506499688E+03  0.10960830367E+04  0.11783751359E+04  0.80264259474E+02 0.  0.
         24    2    4    4    0    0 -0.72607304010E+03 -0.45381931748E+03  0.55303763209E+03  0.10221637439E+04  0.76381047657E+02 0.  0.
         13    1    3    3    0    0  0.39563872043E+03  0.42332007989E+03  0.39511481433E+03  0.70131704930E+03  0.00000000000E+00 0. -1.
        -13    1    3    3    0    0  0.33731432571E+03  0.45556423447E+03  0.46178677673E+03  0.73114072053E+03  0.00000000000E+00 0.  1.
          4    1    6    6  502    0 -0.57351498640E+03 -0.34113313622E+03  0.46313599834E+03  0.81227225067E+03  0.00000000000E+00 0. -1.
          3    1    5    5  503    0  0.31349008676E+02 -0.10859549850E+03  0.25580047585E+03  0.27965983995E+03  0.00000000000E+00 0. -1.
         -4    1    5    5    0  503 -0.38229014716E+02 -0.31646949838E+03  0.84028256089E+03  0.89871529591E+03  0.00000000000E+00 0.  1.
         -3    1    6    6    0  502 -0.15255805370E+03 -0.11268618126E+03  0.89901633744E+02  0.20989149326E+03  0.00000000000E+00 0.  1.
<mgrwt>
<rscale>  0 0.26303074E+04</rscale>
<asrwt>0</asrwt>
<pdfrwt beam="1">  1        2 0.47223221E+00 0.26303074E+04</pdfrwt>
<pdfrwt beam="2">  1       -2 0.86690340E-01 0.26303074E+04</pdfrwt>
<totfact> 0.15993904E+00</totfact>
</mgrwt>
</event>
<event>
12    1  0.1960998E-007  0.1443743E+04  0.7818608E-02  0.8922750E-01
          1   -1    0    0  501    0  0.00000000000E+00  0.00000000000E+00  0.26937258485E+04  0.26937258485E+04  0.00000000000E+00 0. -1.
         -1   -1    0    0    0  501 -0.00000000000E+00 -0.00000000000E+00 -0.19344888553E+03  0.19344888553E+03  0.00000000000E+00 0.  1.
         23    2    1    2    0    0  0.20267777361E+01  0.29230310689E+03  0.14190805129E+04  0.14516150554E+04  0.89171480260E+02 0.  0.
        254    2    1    2    0    0 -0.20267777361E+01 -0.29230310689E+03  0.10811964501E+04  0.14355596786E+04  0.89799811419E+03 0.  0.
        -24    2    4    4    0    0  0.16241687317E+03 -0.57593069215E+03  0.63235672624E+03  0.87435471965E+03  0.80905770473E+02 0.  0.
         24    2    4    4    0    0 -0.16444365091E+03  0.28362758526E+03  0.44883972385E+03  0.56120495898E+03  0.77508624253E+02 0.  0.
         13    1    3    3    0    0  0.42956715142E+02  0.12286813174E+03  0.66938316116E+03  0.68192057720E+03  0.00000000000E+00 0. -1.
        -13    1    3    3    0    0 -0.40929937405E+02  0.16943497515E+03  0.74969735173E+03  0.76969447820E+03  0.00000000000E+00 0.  1.
          2    1    6    6  502    0 -0.15833769197E+03  0.21005529506E+03  0.34822283722E+03  0.43640943624E+03  0.00000000000E+00 0. -1.
          1    1    5    5  503    0  0.44121663331E+02 -0.60578788423E+02  0.84838960673E+02  0.11319964677E+03  0.00000000000E+00 0. -1.
         -2    1    5    5    0  503  0.11829520984E+03 -0.51535190373E+03  0.54751776557E+03  0.76115507287E+03  0.00000000000E+00 0.  1.
         -1    1    6    6    0  502 -0.61059589389E+01  0.73572290206E+02  0.10061688664E+03  0.12479552274E+03  0.00000000000E+00 0.  1.
<mgrwt>
<rscale>  0 0.14437427E+04</rscale>
<asrwt>0</asrwt>
<pdfrwt beam="1">  1        1 0.41441933E+00 0.14437427E+04</pdfrwt>
<pdfrwt beam="2">  1       -1 0.29761369E-01 0.14437427E+04</pdfrwt>
<totfact> 0.10013863E+01</totfact>
</mgrwt>
</event>
<event>
12    1  0.1960998E-007  0.1682117E+04  0.7818608E-02  0.8771630E-01
          2   -1    0    0  501    0  0.00000000000E+00  0.00000000000E+00  0.29230093757E+04  0.29230093757E+04  0.00000000000E+00 0.  1.
         -2   -1    0    0    0  501 -0.00000000000E+00 -0.00000000000E+00 -0.24200390267E+03  0.24200390267E+03  0.00000000000E+00 0. -1.
         23    2    1    2    0    0 -0.23196086573E+03 -0.54735806806E+03  0.10606897174E+04  0.12185841713E+04  0.80486074126E+02 0.  0.
        254    2    1    2    0    0  0.23196086573E+03  0.54735806806E+03  0.16203157557E+04  0.19464291071E+04  0.89986466920E+03 0.  0.
        -24    2    4    4    0    0  0.45739812193E+03  0.38757294750E+03  0.48486671964E+03  0.77511199019E+03  0.79227709500E+02 0.  0.
         24    2    4    4    0    0 -0.22543725620E+03  0.15978512056E+03  0.11354490360E+04  0.11713171169E+04  0.79912662536E+02 0.  0.
         13    1    3    3    0    0 -0.11594758406E+03 -0.33893551333E+03  0.69669295279E+03  0.78339146977E+03  0.00000000000E+00 0.  1.
        -13    1    3    3    0    0 -0.11601328167E+03 -0.20842255473E+03  0.36399676456E+03  0.43519270152E+03  0.00000000000E+00 0. -1.
          4    1    6    6  502    0 -0.22603045854E+01 -0.79077529301E+01  0.25069051375E+02  0.26383685680E+02  0.00000000000E+00 0. -1.
          1    1    5    5  503    0  0.15998942215E+03  0.13575924159E+03  0.21942336923E+03  0.30360138643E+03  0.00000000000E+00 0. -1.
         -2    1    5    5    0  503  0.29740869977E+03  0.25181370591E+03  0.26544335040E+03  0.47151060376E+03  0.00000000000E+00 0.  1.
         -3    1    6    6    0  502 -0.22317695161E+03  0.16769287349E+03  0.11103799846E+04  0.11449334312E+04  0.00000000000E+00 0.  1.
<mgrwt>
<rscale>  0 0.16821173E+04</rscale>
<asrwt>0</asrwt>
<pdfrwt beam="1">  1        2 0.44969373E+00 0.16821173E+04</pdfrwt>
<pdfrwt beam="2">  1       -2 0.37231372E-01 0.16821173E+04</pdfrwt>
<totfact> 0.12656949E+01</totfact>
</mgrwt>
</event>
<event>
12    1  0.1960998E-007  0.1927380E+04  0.7818608E-02  0.8641346E-01
          1   -1    0    0  501    0  0.00000000000E+00  0.00000000000E+00  0.69276145440E+03  0.69276145440E+03  0.00000000000E+00 0. -1.
         -1   -1    0    0    0  501 -0.00000000000E+00 -0.00000000000E+00 -0.13405748003E+04  0.13405748003E+04  0.00000000000E+00 0.  1.
         23    2    1    2    0    0 -0.59367535986E+03 -0.28554521054E+03 -0.63385530194E+03  0.91868404152E+03  0.90671518002E+02 0.  0.
        254    2    1    2    0    0  0.59367535986E+03  0.28554521054E+03 -0.13958043981E+02  0.11146522132E+04  0.89903739034E+03 0.  0.
        -24    2    4    4    0    0  0.35944995309E+03  0.59394363512E+02  0.42288956845E+03  0.56393589297E+03  0.80350140497E+02 0.  0.
         24    2    4    4    0    0  0.23422540677E+03  0.22615084703E+03 -0.43684761243E+03  0.55071632023E+03  0.80292478431E+02 0.  0.
         13    1    3    3    0    0 -0.43223509000E+03 -0.19252532679E+03 -0.50566091145E+03  0.69252157501E+03  0.00000000000E+00 0.  1.
        -13    1    3    3    0    0 -0.16144026986E+03 -0.93019883750E+02 -0.12819439049E+03  0.22616246651E+03  0.00000000000E+00 0. -1.
          4    1    6    6  502    0  0.55036791539E+02  0.17724102647E+02 -0.10453314009E+03  0.11945865232E+03  0.00000000000E+00 0. -1.
          3    1    5    5  503    0  0.82583643537E+02 -0.53354035111E+01  0.56684746034E+02  0.10030795155E+03  0.00000000000E+00 0. -1.
         -4    1    5    5    0  503  0.27686630956E+03  0.64729767023E+02  0.36620482242E+03  0.46362794142E+03  0.00000000000E+00 0.  1.
         -3    1    6    6    0  502  0.17918861523E+03  0.20842674438E+03 -0.33231447234E+03  0.43125766791E+03  0.00000000000E+00 0.  1.
<mgrwt>
<rscale>  0 0.19273801E+04</rscale>
<asrwt>0</asrwt>
<pdfrwt beam="1">  1        1 0.10657869E+00 0.19273801E+04</pdfrwt>
<pdfrwt beam="2">  1       -1 0.20624228E+00 0.19273801E+04</pdfrwt>
<totfact> 0.35224322E+00</totfact>
</mgrwt>
</event>
<event>
12    1  0.1960998E-007  0.3880681E+04  0.7818608E-02  0.8029059E-01
          2   -1    0    0  501    0  0.00000000000E+00  0.00000000000E+00  0.29456492838E+04  0.29456492838E+04  0.00000000000E+00 0. -1.
         -2   -1    0    0    0  501 -0.00000000000E+00 -0.00000000000E+00 -0.12781297040E+04  0.12781297040E+04  0.00000000000E+00 0.  1.
         23    2    1    2    0    0  0.29061179469E+03  0.17102737270E+04  0.14388020380E+04  0.22555146570E+04  0.87770309231E+02 0.  0.
        254    2    1    2    0    0 -0.29061179469E+03 -0.17102737270E+04  0.22871754182E+03  0.19682643308E+04  0.90125541642E+03 0.  0.
        -24    2    4    4    0    0  0.90923265070E+02 -0.76812885205E+03  0.48581546448E+03  0.91680985648E+03  0.78959951376E+02 0.  0.
         24    2    4    4    0    0 -0.38153505976E+03 -0.94214487492E+03 -0.25709792266E+03  0.10514544743E+04  0.79064547021E+02 0.  0.
         13    1    3    3    0    0  0.62853458900E+02  0.62090528880E+03  0.51980965681E+03  0.81220441656E+03  0.00000000000E+00 0. -1.
        -13    1    3    3    0    0  0.22775833579E+03  0.10893684382E+04  0.91899238119E+03  0.14433102405E+04  0.00000000000E+00 0.  1.
          4    1    6    6  502    0 -0.34701542771E+03 -0.89192409570E+03 -0.25516489886E+03  0.99048343004E+03  0.00000000000E+00 0. -1.
          3    1    5    5  503    0  0.65751202439E+02 -0.71854340289E+03  0.44369459371E+03  0.84704942887E+03  0.00000000000E+00 0. -1.
         -4    1    5    5    0  503  0.25172062631E+02 -0.49585449157E+02  0.42120870772E+02  0.69760427606E+02  0.00000000000E+00 0.  1.
         -3    1    6    6    0  502 -0.34519632043E+02 -0.50220779211E+02 -0.19330238048E+01  0.60971044291E+02  0.00000000000E+00 0.  1.
<mgrwt>
<rscale>  0 0.38806813E+04</rscale>
<asrwt>0</asrwt>
<pdfrwt beam="1">  1        2 0.45317681E+00 0.38806813E+04</pdfrwt>
<pdfrwt beam="2">  1       -2 0.19663534E+00 0.38806813E+04</pdfrwt>
<totfact> 0.20979043E-01</totfact>
</mgrwt>
</event>
<event>
12    1  0.1960998E-007  0.2957392E+04  0.7818608E-02  0.8256004E-01
         -2   -1    0    0    0  501 -0.00000000000E+00  0.00000000000E+00  0.12878449122E+04  0.12878449122E+04  0.00000000000E+00 0. -1.
          2   -1    0    0  501    0  0.00000000000E+00 -0.00000000000E+00 -0.16978297296E+04  0.16978297296E+04  0.00000000000E+00 0.  1.
         23    2    1    2    0    0 -0.60641584776E+03  0.81673983881E+03 -0.10698603894E+04  0.14791065005E+04  0.91381849156E+02 0.  0.
        254    2    1    2    0    0  0.60641584776E+03 -0.81673983881E+03  0.65987557201E+03  0.15065681413E+04  0.89415191614E+03 0.  0.
        -24    2    4    4    0    0  0.66363022970E+03 -0.62671624522E+03  0.82738669496E+03  0.12344382427E+04  0.78042925277E+02 0.  0.
         24    2    4    4    0    0 -0.57214381939E+02 -0.19002359360E+03 -0.16751112295E+03  0.27212989863E+03  0.81315765963E+02 0.  0.
         13    1    3    3    0    0 -0.44716285005E+03  0.53131442839E+03 -0.73493707228E+03  0.10111291394E+04  0.00000000000E+00 0. -1.
        -13    1    3    3    0    0 -0.15925299772E+03  0.28542541042E+03 -0.33492331711E+03  0.46797736114E+03  0.00000000000E+00 0.  1.
          4    1    6    6  502    0 -0.44524626248E+02 -0.16931868245E+03 -0.17416477162E+03  0.24695065548E+03  0.00000000000E+00 0. -1.
          1    1    5    5  503    0  0.52489157985E+03 -0.46584025451E+03  0.66765580357E+03  0.96864987759E+03  0.00000000000E+00 0. -1.
         -2    1    5    5    0  503  0.13873864985E+03 -0.16087599070E+03  0.15973089139E+03  0.26578836508E+03  0.00000000000E+00 0.  1.
         -3    1    6    6    0  502 -0.12689755691E+02 -0.20704911143E+02  0.66536486704E+01  0.25179243150E+02  0.00000000000E+00 0.  1.
<mgrwt>
<rscale>  0 0.29573917E+04</rscale>
<asrwt>0</asrwt>
<pdfrwt beam="1">  1        2 0.26120457E+00 0.29573917E+04</pdfrwt>
<pdfrwt beam="2">  1       -2 0.19812999E+00 0.29573917E+04</pdfrwt>
<totfact> 0.11560069E+00</totfact>
</mgrwt>
</event>
<event>
12    1  0.1960998E-007  0.2875538E+04  0.7818608E-02  0.8280193E-01
          2   -1    0    0  501    0  0.00000000000E+00  0.00000000000E+00  0.37041736996E+04  0.37041736996E+04  0.00000000000E+00 0.  1.
         -2   -1    0    0    0  501 -0.00000000000E+00 -0.00000000000E+00 -0.55806783403E+03  0.55806783403E+03  0.00000000000E+00 0. -1.
         23    2    1    2    0    0 -0.14838491285E+03  0.12494965029E+04  0.18896184417E+04  0.22719988658E+04  0.89785289488E+02 0.  0.
        254    2    1    2    0    0  0.14838491285E+03 -0.12494965029E+04  0.12564874239E+04  0.19902426678E+04  0.89389352679E+03 0.  0.
        -24    2    4    4    0    0  0.17347409834E+02 -0.94207107230E+03  0.13368182043E+04  0.16374965392E+04  0.80704192860E+02 0.  0.
         24    2    4    4    0    0  0.13103750302E+03 -0.30742543055E+03 -0.80330780387E+02  0.35274612857E+03  0.79344655742E+02 0.  0.
         13    1    3    3    0    0 -0.15422223176E+03  0.10481790202E+04  0.15612750895E+04  0.18868077964E+04  0.00000000000E+00 0.  1.
        -13    1    3    3    0    0  0.58373189086E+01  0.20131748264E+03  0.32834335212E+03  0.38519106946E+03  0.00000000000E+00 0. -1.
          4    1    6    6  502    0  0.49982546597E+02 -0.21293067137E+03 -0.57817260764E+02  0.22623121230E+03  0.00000000000E+00 0. -1.
          3    1    5    5  503    0  0.32654019703E+02 -0.38216413424E+03  0.59626952603E+03  0.70898029464E+03  0.00000000000E+00 0. -1.
         -4    1    5    5    0  503 -0.15306609870E+02 -0.55990693806E+03  0.74054867822E+03  0.92851624456E+03  0.00000000000E+00 0.  1.
         -3    1    6    6    0  502  0.81054956424E+02 -0.94494759180E+02 -0.22513519623E+02  0.12651491627E+03  0.00000000000E+00 0.  1.
<mgrwt>
<rscale>  0 0.28755383E+04</rscale>
<asrwt>0</asrwt>
<pdfrwt beam="1">  1        2 0.56987286E+00 0.28755383E+04</pdfrwt>
<pdfrwt beam="2">  1       -2 0.85856592E-01 0.28755383E+04</pdfrwt>
<totfact> 0.59010283E-01</totfact>
</mgrwt>
</event>
<event>
12    1  0.1960998E-007  0.2249664E+04  0.7818608E-02  0.8498037E-01
         -1   -1    0    0    0  501 -0.00000000000E+00  0.00000000000E+00  0.64027048478E+03  0.64027048478E+03  0.00000000000E+00 0.  1.
          1   -1    0    0  501    0  0.00000000000E+00 -0.00000000000E+00 -0.19761125964E+04  0.19761125964E+04  0.00000000000E+00 0. -1.
         23    2    1    2    0    0 -0.69256060402E+03 -0.29282523393E+03 -0.12232884273E+04  0.14388133819E+04  0.91447054546E+02 0.  0.
        254    2    1    2    0    0  0.69256060402E+03  0.29282523393E+03 -0.11255368433E+03  0.11775696992E+04  0.89923036919E+03 0.  0.
        -24    2    4    4    0    0  0.73995619548E+03  0.51493389545E+03 -0.19050929678E+03  0.92484232547E+03  0.79670866197E+02 0.  0.
         24    2    4    4    0    0 -0.47395591459E+02 -0.22210866152E+03  0.77955612457E+02  0.25272737378E+03  0.78838114693E+02 0.  0.
         11    1    3    3    0    0 -0.58577451559E+03 -0.22317034277E+03 -0.10622552565E+04  0.12334192373E+04  0.00000000000E+00 0. -1.
        -11    1    3    3    0    0 -0.10678608843E+03 -0.69654891154E+02 -0.16103317076E+03  0.20539414458E+03  0.00000000000E+00 0.  1.
          2    1    6    6  502    0 -0.63298526153E+02 -0.17046434123E+03  0.38630397714E+02  0.18589540789E+03  0.00000000000E+00 0. -1.
          3    1    5    5  503    0  0.10511774991E+02  0.22703389564E+02 -0.50986681757E+01  0.25533071267E+02  0.00000000000E+00 0. -1.
         -4    1    5    5    0  503  0.72944442049E+03  0.49223050589E+03 -0.18541062861E+03  0.89930925421E+03  0.00000000000E+00 0.  1.
         -1    1    6    6    0  502  0.15902934694E+02 -0.51644320290E+02  0.39325214743E+02  0.66831965890E+02  0.00000000000E+00 0.  1.
<mgrwt>
<rscale>  0 0.22496636E+04</rscale>
<asrwt>0</asrwt>
<pdfrwt beam="1">  1        1 0.30401732E+00 0.22496636E+04</pdfrwt>
<pdfrwt beam="2">  1       -1 0.98503153E-01 0.22496636E+04</pdfrwt>
<totfact> 0.27698285E+00</totfact>
</mgrwt>
</event>
<event>
12    1  0.1960998E-007  0.2770629E+04  0.7818608E-02  0.8312445E-01
          2   -1    0    0  501    0  0.00000000000E+00  0.00000000000E+00  0.24406695501E+04  0.24406695501E+04  0.00000000000E+00 0. -1.
         -2   -1    0    0    0  501 -0.00000000000E+00 -0.00000000000E+00 -0.78629914467E+03  0.78629914467E+03  0.00000000000E+00 0.  1.
         23    2    1    2    0    0 -0.90513429489E+03 -0.38262645622E+03  0.16179607399E+04  0.18951354852E+04  0.89835709331E+02 0.  0.
        254    2    1    2    0    0  0.90513429489E+03  0.38262645622E+03  0.36409665542E+02  0.13318332096E+04  0.89821096497E+03 0.  0.
        -24    2    4    4    0    0  0.29782463370E+03 -0.11013516540E+03 -0.32879488349E+03  0.46520360392E+03  0.86481504362E+02 0.  0.
         24    2    4    4    0    0  0.60730966120E+03  0.49276162162E+03  0.36520454904E+03  0.86662960565E+03  0.77675417178E+02 0.  0.
         13    1    3    3    0    0 -0.65617956043E+03 -0.29929593243E+03  0.12496474099E+04  0.14428334345E+04  0.00000000000E+00 0. -1.
        -13    1    3    3    0    0 -0.24895473446E+03 -0.83330523791E+02  0.36831332997E+03  0.45230205067E+03  0.00000000000E+00 0.  1.
          4    1    6    6  502    0  0.40603211489E+03  0.29708923264E+03  0.20382601630E+03  0.54283435355E+03  0.00000000000E+00 0. -1.
          1    1    5    5  503    0  0.40315925635E+02 -0.41772796311E+02 -0.91827332936E+02  0.10863976917E+03  0.00000000000E+00 0. -1.
         -2    1    5    5    0  503  0.25750870806E+03 -0.68362369086E+02 -0.23696755056E+03  0.35656383475E+03  0.00000000000E+00 0.  1.
         -3    1    6    6    0  502  0.20127754630E+03  0.19567238898E+03  0.16137853274E+03  0.32379525210E+03  0.00000000000E+00 0.  1.
<mgrwt>
<rscale>  0 0.27706291E+04</rscale>
<asrwt>0</asrwt>
<pdfrwt beam="1">  1        2 0.37548762E+00 0.27706291E+04</pdfrwt>
<pdfrwt beam="2">  1       -2 0.12096910E+00 0.27706291E+04</pdfrwt>
<totfact> 0.17098836E+00</totfact>
</mgrwt>
</event>
<event>
12    1  0.1960998E-007  0.1192811E+04  0.7818608E-02  0.9119173E-01
         -1   -1    0    0    0  501 -0.00000000000E+00  0.00000000000E+00  0.26678860084E+04  0.26678860084E+04  0.00000000000E+00 0.  1.
          1   -1    0    0  501    0  0.00000000000E+00 -0.00000000000E+00 -0.13332625124E+03  0.13332625124E+03  0.00000000000E+00 0. -1.
         23    2    1    2    0    0  0.66440646512E+02  0.19603016753E+03  0.87245572235E+03  0.90127006654E+03  0.90920620863E+02 0.  0.
        254    2    1    2    0    0 -0.66440646512E+02 -0.19603016753E+03  0.16621040348E+04  0.18999421931E+04  0.89685468639E+03 0.  0.
        -24    2    4    4    0    0 -0.39102886149E+03  0.15787633010E+03  0.86845196546E+03  0.96855790211E+03  0.77891509742E+02 0.  0.
         24    2    4    4    0    0  0.32458821498E+03 -0.35390649762E+03  0.79365206930E+03  0.93138429096E+03  0.83580930663E+02 0.  0.
         13    1    3    3    0    0  0.65210520748E+02  0.80731062081E+02  0.30363659307E+03  0.32088174933E+03  0.00000000000E+00 0. -1.
        -13    1    3    3    0    0  0.12301257646E+01  0.11529910545E+03  0.56881912928E+03  0.58038831721E+03  0.00000000000E+00 0.  1.
          2    1    6    6  502    0  0.14799360484E+03 -0.14640025994E+03  0.42196018385E+03  0.47051624833E+03  0.00000000000E+00 0. -1.
          3    1    5    5  503    0 -0.22272860799E+03  0.10621760946E+03  0.42505896140E+03  0.49149296439E+03  0.00000000000E+00 0. -1.
         -4    1    5    5    0  503 -0.16830025350E+03  0.51658720632E+02  0.44339300406E+03  0.47706493771E+03  0.00000000000E+00 0.  1.
         -1    1    6    6    0  502  0.17659461013E+03 -0.20750623769E+03  0.37169188545E+03  0.46086804263E+03  0.00000000000E+00 0.  1.
<mgrwt>
<rscale>  0 0.11928105E+04</rscale>
<asrwt>0</asrwt>
<pdfrwt beam="1">  1        1 0.20511733E-01 0.11928105E+04</pdfrwt>
<pdfrwt beam="2">  1       -1 0.41044396E+00 0.11928105E+04</pdfrwt>
<totfact> 0.15490013E+00</totfact>
</mgrwt>
</event>
<event>
12    1  0.1960998E-007  0.1568460E+04  0.7818608E-02  0.8840162E-01
          2   -1    0    0  501    0  0.00000000000E+00  0.00000000000E+00  0.85430223818E+03  0.85430223818E+03  0.00000000000E+00 0. -1.
         -2   -1    0    0    0  501 -0.00000000000E+00 -0.00000000000E+00 -0.71990529419E+03  0.71990529419E+03  0.00000000000E+00 0.  1.
         23    2    1    2    0    0 -0.47195647657E+03 -0.19943966695E+03  0.14244888064E+03  0.53945043122E+03  0.90531693973E+02 0.  0.
        254    2    1    2    0    0  0.47195647657E+03  0.19943966695E+03 -0.80519366512E+01  0.10347571011E+04  0.89896514290E+03 0.  0.
        -24    2    4    4    0    0  0.41986855675E+03 -0.20099609387E+03 -0.27300945060E+03  0.54549954409E+03  0.79665285958E+02 0.  0.
         24    2    4    4    0    0  0.52087919823E+02  0.40043576082E+03  0.26495751395E+03  0.48925755705E+03  0.78157040610E+02 0.  0.
         13    1    3    3    0    0 -0.10106901684E+03 -0.79594503015E+02  0.15765276970E+02  0.12961008847E+03  0.00000000000E+00 0. -1.
        -13    1    3    3    0    0 -0.37088745973E+03 -0.11984516394E+03  0.12668360367E+03  0.40984034275E+03  0.00000000000E+00 0.  1.
          2    1    6    6  502    0  0.46273211110E+02  0.12194088809E+03  0.10925362196E+03  0.17013860281E+03  0.00000000000E+00 0. -1.
          3    1    5    5  503    0  0.37988995740E+02 -0.52005525329E+01 -0.46409927691E+02  0.60200423024E+02  0.00000000000E+00 0. -1.
         -4    1    5    5    0  503  0.38187956101E+03 -0.19579554134E+03 -0.22659952291E+03  0.48529912107E+03  0.00000000000E+00 0.  1.
         -1    1    6    6    0  502  0.58147087125E+01  0.27849487273E+03  0.15570389199E+03  0.31911895424E+03  0.00000000000E+00 0.  1.
<mgrwt>
<rscale>  0 0.15684600E+04</rscale>
<asrwt>0</asrwt>
<pdfrwt beam="1">  1        2 0.13143111E+00 0.15684600E+04</pdfrwt>
<pdfrwt beam="2">  1       -2 0.11075466E+00 0.15684600E+04</pdfrwt>
<totfact> 0.19580909E+01</totfact>
</mgrwt>
</event>
<event>
12    1  0.1960998E-007  0.1470665E+04  0.7818608E-02  0.8904198E-01
          1   -1    0    0  501    0  0.00000000000E+00  0.00000000000E+00  0.75955660232E+03  0.75955660232E+03  0.00000000000E+00 0. -1.
         -1   -1    0    0    0  501 -0.00000000000E+00 -0.00000000000E+00 -0.71188077892E+03  0.71188077892E+03  0.00000000000E+00 0.  1.
         23    2    1    2    0    0  0.41786801468E+03  0.56036112976E+02  0.18028115942E+03  0.46771509013E+03  0.92208380556E+02 0.  0.
        254    2    1    2    0    0 -0.41786801468E+03 -0.56036112976E+02 -0.13260533602E+03  0.10037222911E+04  0.90117730711E+03 0.  0.
        -24    2    4    4    0    0 -0.34514675633E+02 -0.25324979033E+03  0.29018038331E+03  0.39474143241E+03  0.79305891787E+02 0.  0.
         24    2    4    4    0    0 -0.38335333905E+03  0.19721367735E+03 -0.42278571932E+03  0.60898085869E+03  0.79100598528E+02 0.  0.
         13    1    3    3    0    0  0.15691169887E+03 -0.17462982435E+01  0.25866357264E+02  0.15903898653E+03  0.00000000000E+00 0.  1.
        -13    1    3    3    0    0  0.26095631582E+03  0.57782411219E+02  0.15441480215E+03  0.30867610360E+03  0.00000000000E+00 0. -1.
          2    1    6    6  502    0 -0.26828579701E+03  0.17714046715E+03 -0.31172465602E+03  0.44780383557E+03  0.00000000000E+00 0. -1.
          3    1    5    5  503    0 -0.38057864322E+02 -0.19236596974E+03  0.16813624838E+03  0.25830769514E+03  0.00000000000E+00 0. -1.
         -4    1    5    5    0  503  0.35431886886E+01 -0.60883820589E+02  0.12204413493E+03  0.13643373727E+03  0.00000000000E+00 0.  1.
         -3    1    6    6    0  502 -0.11506754204E+03  0.20073210200E+02 -0.11106106330E+03  0.16117702311E+03  0.00000000000E+00 0.  1.
<mgrwt>
<rscale>  0 0.14706648E+04</rscale>
<asrwt>0</asrwt>
<pdfrwt beam="1">  1        1 0.11685486E+00 0.14706648E+04</pdfrwt>
<pdfrwt beam="2">  1       -1 0.10952012E+00 0.14706648E+04</pdfrwt>
<totfact> 0.17959901E+01</totfact>
</mgrwt>
</event>
<event>
12    1  0.1960998E-007  0.3776202E+04  0.7818608E-02  0.8051281E-01
         -2   -1    0    0    0  501 -0.00000000000E+00  0.00000000000E+00  0.22231330983E+04  0.22231330983E+04  0.00000000000E+00 0.  1.
          2   -1    0    0  501    0  0.00000000000E+00 -0.00000000000E+00 -0.16035592934E+04  0.16035592934E+04  0.00000000000E+00 0. -1.
         23    2    1    2    0    0 -0.14129316750E+04  0.45443401984E+03  0.12811333456E+04  0.19625417824E+04  0.85915086117E+02 0.  0.
        254    2    1    2    0    0  0.14129316750E+04 -0.45443401984E+03 -0.66155954078E+03  0.18641506093E+04  0.91351533741E+03 0.  0.
        -24    2    4    4    0    0  0.11828837868E+04 -0.70462013735E+03 -0.42896698925E+03  0.14442778712E+04  0.78881559197E+02 0.  0.
         24    2    4    4    0    0  0.23004788819E+03  0.25018611751E+03 -0.23259255153E+03  0.41987273812E+03  0.81723294914E+02 0.  0.
         13    1    3    3    0    0 -0.22087143189E+03  0.63008165906E+02  0.15981163478E+03  0.27981060917E+03  0.00000000000E+00 0.  1.
        -13    1    3    3    0    0 -0.11920602431E+04  0.39142585393E+03  0.11213217108E+04  0.16827311732E+04  0.00000000000E+00 0. -1.
          2    1    6    6  502    0  0.72918362562E+01  0.17750461630E+02  0.49066131224E+01  0.19807185979E+02  0.00000000000E+00 0. -1.
          1    1    5    5  503    0  0.78833642284E+03 -0.42670419829E+03 -0.27091674649E+03  0.93645430852E+03  0.00000000000E+00 0. -1.
         -2    1    5    5    0  503  0.39454736393E+03 -0.27791593906E+03 -0.15805024276E+03  0.50782356267E+03  0.00000000000E+00 0.  1.
         -1    1    6    6    0  502  0.22275605194E+03  0.23243565588E+03 -0.23749916465E+03  0.40006555214E+03  0.00000000000E+00 0.  1.
<mgrwt>
<rscale>  0 0.37762022E+04</rscale>
<asrwt>0</asrwt>
<pdfrwt beam="1">  1        2 0.24670143E+00 0.37762022E+04</pdfrwt>
<pdfrwt beam="2">  1       -2 0.34202048E+00 0.37762022E+04</pdfrwt>
<totfact> 0.15570201E-01</totfact>
</mgrwt>
</event>
<event>
12    1  0.1960998E-007  0.1401129E+04  0.7818608E-02  0.8953002E-01
         -1   -1    0    0    0  501 -0.00000000000E+00  0.00000000000E+00  0.35153555551E+03  0.35153555551E+03  0.00000000000E+00 0. -1.
          1   -1    0    0  501    0  0.00000000000E+00 -0.00000000000E+00 -0.13961326751E+04  0.13961326751E+04  0.00000000000E+00 0.  1.
         23    2    1    2    0    0  0.24092167275E+03  0.39413705513E+02 -0.71503856864E+03  0.76042578214E+03  0.85851749676E+02 0.  0.
        254    2    1    2    0    0 -0.24092167275E+03 -0.39413705513E+02 -0.32955855092E+03  0.98724244844E+03  0.89802122521E+03 0.  0.
        -24    2    4    4    0    0  0.18553680928E+03 -0.12898268421E+03  0.18891633596E+03  0.30539634813E+03  0.80728601082E+02 0.  0.
         24    2    4    4    0    0 -0.42645848204E+03  0.89568978693E+02 -0.51847488688E+03  0.68184610031E+03  0.78793764599E+02 0.  0.
         11    1    3    3    0    0  0.10119833041E+03  0.58489330142E+02 -0.35540664292E+03  0.37413364678E+03  0.00000000000E+00 0.  1.
        -11    1    3    3    0    0  0.13972334234E+03 -0.19075624629E+02 -0.35963192572E+03  0.38629213536E+03  0.00000000000E+00 0. -1.
          4    1    6    6  502    0 -0.11312875220E+02  0.97182660602E+01 -0.30473405507E+01  0.15222093331E+02  0.00000000000E+00 0. -1.
          1    1    5    5  503    0  0.52919025600E+02 -0.83416190465E+02  0.91505260933E+02  0.13465473211E+03  0.00000000000E+00 0. -1.
         -2    1    5    5    0  503  0.13261778368E+03 -0.45566493741E+02  0.97411075025E+02  0.17074161601E+03  0.00000000000E+00 0.  1.
         -3    1    6    6    0  502 -0.41514560682E+03  0.79850712632E+02 -0.51542754633E+03  0.66662400698E+03  0.00000000000E+00 0.  1.
<mgrwt>
<rscale>  0 0.14011285E+04</rscale>
<asrwt>0</asrwt>
<pdfrwt beam="1">  1        1 0.21478964E+00 0.14011285E+04</pdfrwt>
<pdfrwt beam="2">  1       -1 0.54082393E-01 0.14011285E+04</pdfrwt>
<totfact> 0.26016905E+01</totfact>
</mgrwt>
</event>
<event>
12    1  0.1960998E-007  0.3020113E+04  0.7818608E-02  0.8238011E-01
          2   -1    0    0  501    0  0.00000000000E+00  0.00000000000E+00  0.23128122432E+04  0.23128122432E+04  0.00000000000E+00 0.  1.
         -2   -1    0    0    0  501 -0.00000000000E+00 -0.00000000000E+00 -0.98593014544E+03  0.98593014544E+03  0.00000000000E+00 0. -1.
         23    2    1    2    0    0 -0.63176354922E+03  0.12178290701E+04  0.67622321641E+03  0.15341823278E+04  0.11918368302E+03 0.  0.
        254    2    1    2    0    0  0.63176354922E+03 -0.12178290701E+04  0.65065888137E+03  0.17645600609E+04  0.89893403679E+03 0.  0.
        -24    2    4    4    0    0 -0.43672291014E+02 -0.34164891519E+03  0.54608101862E+03  0.65045276964E+03  0.79076395867E+02 0.  0.
         24    2    4    4    0    0  0.67543584023E+03 -0.87618015491E+03  0.10457786276E+03  0.11141072913E+04  0.79958044822E+02 0.  0.
         13    1    3    3    0    0 -0.52870226318E+03  0.91165358515E+03  0.50677628027E+03  0.11693846846E+04  0.00000000000E+00 0.  1.
        -13    1    3    3    0    0 -0.10306128604E+03  0.30617548495E+03  0.16944693614E+03  0.36479764312E+03  0.00000000000E+00 0. -1.
          2    1    6    6  502    0  0.21902901451E+02 -0.24015682742E+02 -0.10227870471E+02  0.34074909301E+02  0.00000000000E+00 0. -1.
          3    1    5    5  503    0 -0.27532297556E+02 -0.33711797084E+02  0.49446767695E+02  0.65874847301E+02  0.00000000000E+00 0. -1.
         -4    1    5    5    0  503 -0.16139993458E+02 -0.30793711811E+03  0.49663425092E+03  0.58457792234E+03  0.00000000000E+00 0.  1.
         -1    1    6    6    0  502  0.65353293878E+03 -0.85216447217E+03  0.11480573323E+03  0.10800323820E+04  0.00000000000E+00 0.  1.
<mgrwt>
<rscale>  0 0.30201134E+04</rscale>
<asrwt>0</asrwt>
<pdfrwt beam="1">  1        2 0.35581727E+00 0.30201134E+04</pdfrwt>
<pdfrwt beam="2">  1       -2 0.15168156E+00 0.30201134E+04</pdfrwt>
<totfact> 0.11081322E+00</totfact>
</mgrwt>
</event>
<event>
12    1  0.1960998E-007  0.4835509E+04  0.7818608E-02  0.7854395E-01
         -1   -1    0    0    0  501 -0.00000000000E+00  0.00000000000E+00  0.16946483156E+04  0.16946483156E+04  0.00000000000E+00 0.  1.
          1   -1    0    0  501    0  0.00000000000E+00 -0.00000000000E+00 -0.34494094585E+04  0.34494094585E+04  0.00000000000E+00 0. -1.
         23    2    1    2    0    0  0.14645746933E+04  0.11298002139E+04 -0.23608434663E+04  0.30005737889E+04  0.91834822580E+02 0.  0.
        254    2    1    2    0    0 -0.14645746933E+04 -0.11298002139E+04  0.60608232344E+03  0.21434839852E+04  0.89764149656E+03 0.  0.
        -24    2    4    4    0    0 -0.95984218166E+03 -0.81151818975E+03  0.82171919534E+03  0.15040033722E+04  0.83336196606E+02 0.  0.
         24    2    4    4    0    0 -0.50473251160E+03 -0.31828202419E+03 -0.21563687190E+03  0.63948061295E+03  0.79861371342E+02 0.  0.
         11    1    3    3    0    0  0.10950047438E+04  0.84967438965E+03 -0.17033361833E+04  0.21959818102E+04  0.00000000000E+00 0.  1.
        -11    1    3    3    0    0  0.36956994950E+03  0.28012582428E+03 -0.65750728306E+03  0.80459197876E+03  0.00000000000E+00 0. -1.
          4    1    6    6  502    0 -0.13601273741E+03 -0.74631923506E+02 -0.20957089055E+02  0.15655219042E+03  0.00000000000E+00 0. -1.
          3    1    5    5  503    0 -0.27959453448E+03 -0.24375266415E+03  0.19830531611E+03  0.42061082177E+03  0.00000000000E+00 0. -1.
         -4    1    5    5    0  503 -0.68024764719E+03 -0.56776552560E+03  0.62341387923E+03  0.10833925505E+04  0.00000000000E+00 0.  1.
         -3    1    6    6    0  502 -0.36871977419E+03 -0.24365010068E+03 -0.19467978284E+03  0.48292842253E+03  0.00000000000E+00 0.  1.
<mgrwt>
<rscale>  0 0.48355086E+04</rscale>
<asrwt>0</asrwt>
<pdfrwt beam="1">  1        1 0.53067838E+00 0.48355086E+04</pdfrwt>
<pdfrwt beam="2">  1       -1 0.26071513E+00 0.48355086E+04</pdfrwt>
<totfact> 0.11877178E-02</totfact>
</mgrwt>
</event>
<event>
12    1  0.1960998E-007  0.1533096E+04  0.7818608E-02  0.8862738E-01
         -2   -1    0    0    0  501 -0.00000000000E+00  0.00000000000E+00  0.60835385630E+03  0.60835385630E+03  0.00000000000E+00 0.  1.
          2   -1    0    0  501    0  0.00000000000E+00 -0.00000000000E+00 -0.96587856999E+03  0.96587856999E+03  0.00000000000E+00 0. -1.
         23    2    1    2    0    0  0.48425640222E+03 -0.11240096342E+03 -0.13584680963E+03  0.52334392675E+03  0.91083864164E+02 0.  0.
        254    2    1    2    0    0 -0.48425640222E+03  0.11240096342E+03 -0.22167790406E+03  0.10508884995E+04  0.89893676399E+03 0.  0.
        -24    2    4    4    0    0 -0.18666671181E+03  0.89959018176E+02  0.34294323843E+03  0.40814244244E+03  0.77673047321E+02 0.  0.
         24    2    4    4    0    0 -0.29758969040E+03  0.22441945242E+02 -0.56462114250E+03  0.64274605711E+03  0.72540985864E+02 0.  0.
         11    1    3    3    0    0  0.28169031281E+03 -0.31514740677E+02 -0.10855860147E+03  0.30352525622E+03  0.00000000000E+00 0.  1.
        -11    1    3    3    0    0  0.20256608940E+03 -0.80886222742E+02 -0.27288208157E+02  0.21981867052E+03  0.00000000000E+00 0. -1.
          4    1    6    6  502    0 -0.21129073477E+03 -0.11606082636E+02 -0.43008449756E+03  0.47932363889E+03  0.00000000000E+00 0. -1.
          3    1    5    5  503    0 -0.15543961675E+03  0.98614777772E+02  0.25565213574E+03  0.31503073399E+03  0.00000000000E+00 0. -1.
         -4    1    5    5    0  503 -0.31227095066E+02 -0.86557595957E+01  0.87291102692E+02  0.93111708445E+02  0.00000000000E+00 0.  1.
         -3    1    6    6    0  502 -0.86298955634E+02  0.34048027878E+02 -0.13453664494E+03  0.16342241822E+03  0.00000000000E+00 0.  1.
<mgrwt>
<rscale>  0 0.15330962E+04</rscale>
<asrwt>0</asrwt>
<pdfrwt beam="1">  1        2 0.14859670E+00 0.15330962E+04</pdfrwt>
<pdfrwt beam="2">  1       -2 0.93592901E-01 0.15330962E+04</pdfrwt>
<totfact> 0.24659261E+01</totfact>
</mgrwt>
</event>
<event>
12    1  0.1960998E-007  0.1224932E+04  0.7818608E-02  0.9091309E-01
          2   -1    0    0  501    0  0.00000000000E+00  0.00000000000E+00  0.17430015852E+04  0.17430015852E+04  0.00000000000E+00 0. -1.
         -2   -1    0    0    0  501 -0.00000000000E+00 -0.00000000000E+00 -0.21521189772E+03  0.21521189772E+03  0.00000000000E+00 0.  1.
         23    2    1    2    0    0 -0.18702251404E+03 -0.19088776448E+03  0.30299866719E+03  0.41474207303E+03  0.93740255165E+02 0.  0.
        254    2    1    2    0    0  0.18702251404E+03  0.19088776448E+03  0.12247910203E+04  0.15434714099E+04  0.90043066940E+03 0.  0.
        -24    2    4    4    0    0  0.61478749688E+02 -0.29241473143E+03  0.87761341795E+03  0.93069930044E+03  0.81913763531E+02 0.  0.
         24    2    4    4    0    0  0.12554376435E+03  0.48330249591E+03  0.34717760237E+03  0.61277210947E+03  0.74932177662E+02 0.  0.
         11    1    3    3    0    0 -0.10849201976E+03 -0.95353055264E+02  0.22863295003E+03  0.27043622047E+03  0.00000000000E+00 0. -1.
        -11    1    3    3    0    0 -0.78530494274E+02 -0.95534709217E+02  0.74365717162E+02  0.14430585257E+03  0.00000000000E+00 0.  1.
          4    1    6    6  502    0  0.10812478766E+03  0.33061937494E+03  0.27270147564E+03  0.44200252896E+03  0.00000000000E+00 0. -1.
          1    1    5    5  503    0  0.37974928463E+02 -0.12780828348E+03  0.27579373712E+03  0.30633190815E+03  0.00000000000E+00 0. -1.
         -2    1    5    5    0  503  0.23503821226E+02 -0.16460644795E+03  0.60181968083E+03  0.62436739229E+03  0.00000000000E+00 0.  1.
         -3    1    6    6    0  502  0.17418976694E+02  0.15268312097E+03  0.74476126728E+02  0.17076958051E+03  0.00000000000E+00 0.  1.
<mgrwt>
<rscale>  0 0.12249321E+04</rscale>
<asrwt>0</asrwt>
<pdfrwt beam="1">  1        2 0.26815408E+00 0.12249321E+04</pdfrwt>
<pdfrwt beam="2">  1       -2 0.33109524E-01 0.12249321E+04</pdfrwt>
<totfact> 0.77867588E+01</totfact>
</mgrwt>
</event>
<event>
12    1  0.1960998E-007  0.4549685E+04  0.7818608E-02  0.7901996E-01
         -1   -1    0    0    0  501 -0.00000000000E+00  0.00000000000E+00  0.19152808827E+04  0.19152808827E+04  0.00000000000E+00 0. -1.
          1   -1    0    0  501    0  0.00000000000E+00 -0.00000000000E+00 -0.27019061100E+04  0.27019061100E+04  0.00000000000E+00 0.  1.
         23    2    1    2    0    0 -0.55585298549E+03  0.17763625750E+04 -0.15392326096E+04  0.24170517425E+04  0.92008478390E+02 0.  0.
        254    2    1    2    0    0  0.55585298549E+03 -0.17763625750E+04  0.75260738225E+03  0.22001352501E+04  0.89985593718E+03 0.  0.
        -24    2    4    4    0    0  0.18623559988E+03  0.13652900299E+01 -0.56439281085E+02  0.21068701225E+03  0.80734515557E+02 0.  0.
         24    2    4    4    0    0  0.36961738561E+03 -0.17777278651E+04  0.80904666333E+03  0.19894482379E+04  0.80090036048E+02 0.  0.
         11    1    3    3    0    0 -0.27118065128E+03  0.90020833265E+03 -0.83565234860E+03  0.12578667797E+04  0.00000000000E+00 0.  1.
        -11    1    3    3    0    0 -0.28467233421E+03  0.87615424238E+03 -0.70358026101E+03  0.11591849628E+04  0.00000000000E+00 0. -1.
          2    1    6    6  502    0  0.18073749115E+03 -0.99090705051E+03  0.41446509577E+03  0.10891942614E+04  0.00000000000E+00 0. -1.
          3    1    5    5  503    0  0.69378664233E+02  0.39150060261E+02 -0.29530609834E+02  0.84959891634E+02  0.00000000000E+00 0. -1.
         -4    1    5    5    0  503  0.11685693564E+03 -0.37784770231E+02 -0.26908671251E+02  0.12572712061E+03  0.00000000000E+00 0.  1.
         -1    1    6    6    0  502  0.18887989446E+03 -0.78682081455E+03  0.39458156756E+03  0.90025397650E+03  0.00000000000E+00 0.  1.
<mgrwt>
<rscale>  0 0.45496853E+04</rscale>
<asrwt>0</asrwt>
<pdfrwt beam="1">  1        1 0.41567786E+00 0.45496853E+04</pdfrwt>
<pdfrwt beam="2">  1       -1 0.29465860E+00 0.45496853E+04</pdfrwt>
<totfact> 0.26188653E-02</totfact>
</mgrwt>
</event>
<event>
12    1  0.1960998E-007  0.3453635E+04  0.7818608E-02  0.8124867E-01
         -2   -1    0    0    0  501 -0.00000000000E+00  0.00000000000E+00  0.11890517272E+04  0.11890517272E+04  0.00000000000E+00 0.  1.
          2   -1    0    0  501    0  0.00000000000E+00 -0.00000000000E+00 -0.25077949672E+04  0.25077949672E+04  0.00000000000E+00 0. -1.
         23    2    1    2    0    0 -0.11174672549E+04  0.75280440123E+03 -0.15547474683E+04  0.20592014066E+04  0.87310998464E+02 0.  0.
        254    2    1    2    0    0  0.11174672549E+04 -0.75280440123E+03  0.23600422826E+03  0.16376452878E+04  0.90040910731E+03 0.  0.
        -24    2    4    4    0    0  0.79513699527E+03 -0.87385079115E+03  0.39717215763E+03  0.12490463066E+04  0.80702582725E+02 0.  0.
         24    2    4    4    0    0  0.32233025963E+03  0.12104638993E+03 -0.16116792937E+03  0.38859898115E+03  0.80529757875E+02 0.  0.
         13    1    3    3    0    0 -0.15009737692E+03  0.11270711341E+03 -0.26245028225E+03  0.32266432499E+03  0.00000000000E+00 0. -1.
        -13    1    3    3    0    0 -0.96736987798E+03  0.64009728782E+03 -0.12922971860E+04  0.17365370816E+04  0.00000000000E+00 0.  1.
          4    1    6    6  502    0  0.31543064392E+03  0.12221715841E+03 -0.16895773589E+03  0.37812728208E+03  0.00000000000E+00 0. -1.
          1    1    5    5  503    0  0.52574737645E+03 -0.56802856218E+03  0.29977076256E+03  0.83001762715E+03  0.00000000000E+00 0. -1.
         -2    1    5    5    0  503  0.26938961881E+03 -0.30582222898E+03  0.97401395070E+02  0.41902867948E+03  0.00000000000E+00 0.  1.
         -3    1    6    6    0  502  0.68996157115E+01 -0.11707684836E+01  0.77898065204E+01  0.10471699071E+02  0.00000000000E+00 0.  1.
<mgrwt>
<rscale>  0 0.34536346E+04</rscale>
<asrwt>0</asrwt>
<pdfrwt beam="1">  1        2 0.38581460E+00 0.34536346E+04</pdfrwt>
<pdfrwt beam="2">  1       -2 0.18293104E+00 0.34536346E+04</pdfrwt>
<totfact> 0.49179405E-01</totfact>
</mgrwt>
</event>
<event>
12    1  0.1960998E-007  0.1507358E+04  0.7818608E-02  0.8879574E-01
          1   -1    0    0  501    0  0.00000000000E+00  0.00000000000E+00  0.22408237172E+04  0.22408237172E+04  0.00000000000E+00 0. -1.
         -1   -1    0    0    0  501 -0.00000000000E+00 -0.00000000000E+00 -0.25349262769E+03  0.25349262769E+03  0.00000000000E+00 0.  1.
         23    2    1    2    0    0  0.32808077919E+03 -0.49650416498E+02  0.11384132165E+04  0.11894734681E+04  0.93596571571E+02 0.  0.
        254    2    1    2    0    0 -0.32808077919E+03  0.49650416498E+02  0.84891787299E+03  0.13048428768E+04  0.93372973419E+03 0.  0.
        -24    2    4    4    0    0 -0.40357561916E+03  0.12550960989E+03  0.10096666681E+04  0.10973974159E+04  0.78919992028E+02 0.  0.
         24    2    4    4    0    0  0.75494839967E+02 -0.75859193390E+02 -0.16074879515E+03  0.20744546088E+03  0.75758537573E+02 0.  0.
         13    1    3    3    0    0  0.15943782884E+03 -0.92006639467E+01  0.70039674232E+03  0.71837362851E+03  0.00000000000E+00 0. -1.
        -13    1    3    3    0    0  0.16864295035E+03 -0.40449752551E+02  0.43801647422E+03  0.47109983960E+03  0.00000000000E+00 0.  1.
          2    1    6    6  502    0  0.55490871550E+02 -0.84240518195E+02 -0.96362240599E+02  0.13950406139E+03  0.00000000000E+00 0. -1.
          3    1    5    5  503    0 -0.39866391102E+03  0.13147373277E+03  0.10025718326E+04  0.10869077863E+04  0.00000000000E+00 0. -1.
         -4    1    5    5    0  503 -0.49117081343E+01 -0.59641228811E+01  0.70948355713E+01  0.10489629656E+02  0.00000000000E+00 0.  1.
         -1    1    6    6    0  502  0.20003968418E+02  0.83813248059E+01 -0.64386554552E+02  0.67941399493E+02  0.00000000000E+00 0.  1.
<mgrwt>
<rscale>  0 0.15073583E+04</rscale>
<asrwt>0</asrwt>
<pdfrwt beam="1">  1        1 0.34474210E+00 0.15073583E+04</pdfrwt>
<pdfrwt beam="2">  1       -1 0.38998867E-01 0.15073583E+04</pdfrwt>
<totfact> 0.12619264E+01</totfact>
</mgrwt>
</event>
<event>
12    1  0.1960998E-007  0.1614797E+04  0.7818608E-02  0.8811509E-01
         -2   -1    0    0    0  501 -0.00000000000E+00  0.00000000000E+00  0.35436478109E+03  0.35436478109E+03  0.00000000000E+00 0.  1.
          2   -1    0    0  501    0  0.00000000000E+00 -0.00000000000E+00 -0.18396079363E+04  0.18396079363E+04  0.00000000000E+00 0. -1.
         23    2    1    2    0    0 -0.52124618878E+03  0.16515201549E+03 -0.35202602409E+03  0.65977433081E+03  0.11138702088E+03 0.  0.
        254    2    1    2    0    0  0.52124618878E+03 -0.16515201549E+03 -0.11332171311E+04  0.15341983866E+04  0.87784443131E+03 0.  0.
        -24    2    4    4    0    0  0.35544441220E+03 -0.39650386042E+03 -0.11147944205E+04  0.12379911018E+04  0.79368296565E+02 0.  0.
         24    2    4    4    0    0  0.16580177658E+03  0.23135184493E+03 -0.18422710561E+02  0.29620728480E+03  0.79909035983E+02 0.  0.
         13    1    3    3    0    0 -0.33514097845E+03  0.14988873076E+03 -0.27050345509E+03  0.45602437025E+03  0.00000000000E+00 0. -1.
        -13    1    3    3    0    0 -0.18610521033E+03  0.15263284731E+02 -0.81522569002E+02  0.20374996056E+03  0.00000000000E+00 0.  1.
          4    1    6    6  502    0  0.12884914964E+03  0.14740182857E+03  0.19925983269E+02  0.19679036368E+03  0.00000000000E+00 0. -1.
          3    1    5    5  503    0  0.19393118219E+03 -0.25353331493E+03 -0.73282381742E+03  0.79932420993E+03  0.00000000000E+00 0. -1.
         -4    1    5    5    0  503  0.16151323001E+03 -0.14297054550E+03 -0.38197060312E+03  0.43866689184E+03  0.00000000000E+00 0.  1.
         -3    1    6    6    0  502  0.36952626931E+02  0.83950016369E+02 -0.38348693831E+02  0.99416921115E+02  0.00000000000E+00 0.  1.
<mgrwt>
<rscale>  0 0.16147969E+04</rscale>
<asrwt>0</asrwt>
<pdfrwt beam="1">  1        2 0.28301661E+00 0.16147969E+04</pdfrwt>
<pdfrwt beam="2">  1       -2 0.54517658E-01 0.16147969E+04</pdfrwt>
<totfact> 0.24878285E+01</totfact>
</mgrwt>
</event>
<event>
12    1  0.1960998E-007  0.1261096E+04  0.7818608E-02  0.9060999E-01
          2   -1    0    0  501    0  0.00000000000E+00  0.00000000000E+00  0.17463789191E+04  0.17463789191E+04  0.00000000000E+00 0. -1.
         -2   -1    0    0    0  501 -0.00000000000E+00 -0.00000000000E+00 -0.22766571219E+03  0.22766571219E+03  0.00000000000E+00 0.  1.
         23    2    1    2    0    0 -0.83277069711E+02 -0.12891461922E+02 -0.72916586767E+02  0.14485223622E+03  0.92542323187E+02 0.  0.
        254    2    1    2    0    0  0.83277069711E+02  0.12891461922E+02  0.15916297936E+04  0.18291923950E+04  0.89752891761E+03 0.  0.
        -24    2    4    4    0    0  0.43436783420E+03  0.19928639341E+03  0.71482063528E+03  0.86322896433E+03  0.76192009129E+02 0.  0.
         24    2    4    4    0    0 -0.35109076449E+03 -0.18639493149E+03  0.87680915836E+03  0.96596343071E+03  0.79266978580E+02 0.  0.
         11    1    3    3    0    0 -0.42888587961E+02 -0.48984658568E+02 -0.61364699201E+02  0.89468173449E+02  0.00000000000E+00 0.  1.
        -11    1    3    3    0    0 -0.40388481749E+02  0.36093196646E+02 -0.11551887566E+02  0.55384062766E+02  0.00000000000E+00 0. -1.
          2    1    6    6  502    0 -0.17358785450E+03 -0.12036213635E+03  0.53504409365E+03  0.57523210033E+03  0.00000000000E+00 0. -1.
          3    1    5    5  503    0  0.32623008690E+03  0.12716858464E+03  0.47053945285E+03  0.58651964605E+03  0.00000000000E+00 0. -1.
         -4    1    5    5    0  503  0.10813774730E+03  0.72117808775E+02  0.24428118243E+03  0.27670931828E+03  0.00000000000E+00 0.  1.
         -1    1    6    6    0  502 -0.17750290998E+03 -0.66032795142E+02  0.34176506471E+03  0.39073133038E+03  0.00000000000E+00 0.  1.
<mgrwt>
<rscale>  0 0.12610957E+04</rscale>
<asrwt>0</asrwt>
<pdfrwt beam="1">  1        2 0.26867367E+00 0.12610957E+04</pdfrwt>
<pdfrwt beam="2">  1       -2 0.35025495E-01 0.12610957E+04</pdfrwt>
<totfact> 0.69475678E+01</totfact>
</mgrwt>
</event>
<event>
12    1  0.1960998E-007  0.1700986E+04  0.7818608E-02  0.8760802E-01
          2   -1    0    0  501    0  0.00000000000E+00  0.00000000000E+00  0.51169718537E+03  0.51169718537E+03  0.00000000000E+00 0.  1.
         -2   -1    0    0    0  501 -0.00000000000E+00 -0.00000000000E+00 -0.14136058739E+04  0.14136058739E+04  0.00000000000E+00 0. -1.
         23    2    1    2    0    0  0.17818490522E+03  0.54264087350E+03 -0.56060158351E+03  0.80562406164E+03  0.92450068825E+02 0.  0.
        254    2    1    2    0    0 -0.17818490522E+03 -0.54264087350E+03 -0.34130710498E+03  0.11196789976E+04  0.90054513473E+03 0.  0.
        -24    2    4    4    0    0 -0.46681509381E+03 -0.75607393918E+02 -0.29570537540E+03  0.56342698565E+03  0.79846661114E+02 0.  0.
         24    2    4    4    0    0  0.28863018860E+03 -0.46703347958E+03 -0.45601729578E+02  0.55625201194E+03  0.76870841190E+02 0.  0.
         13    1    3    3    0    0  0.15605986038E+03  0.45854629910E+03 -0.51662008167E+03  0.70817772997E+03  0.00000000000E+00 0. -1.
        -13    1    3    3    0    0  0.22125044835E+02  0.84094574401E+02 -0.43981501838E+02  0.97446331674E+02  0.00000000000E+00 0.  1.
          2    1    6    6  502    0 -0.86242421823E+00 -0.65169463812E+01  0.71949949410E+01  0.97458872284E+01  0.00000000000E+00 0. -1.
          3    1    5    5  503    0 -0.62521733559E+02  0.10413900198E+02 -0.61633033156E+02  0.88408411707E+02  0.00000000000E+00 0. -1.
         -4    1    5    5    0  503 -0.40429336025E+03 -0.86021294116E+02 -0.23407234225E+03  0.47501857394E+03  0.00000000000E+00 0.  1.
         -1    1    6    6    0  502  0.28949261282E+03 -0.46051653320E+03 -0.52796724519E+02  0.54650612471E+03  0.00000000000E+00 0.  1.
<mgrwt>
<rscale>  0 0.17009858E+04</rscale>
<asrwt>0</asrwt>
<pdfrwt beam="1">  1        2 0.78722643E-01 0.17009858E+04</pdfrwt>
<pdfrwt beam="2">  1       -2 0.21747783E+00 0.17009858E+04</pdfrwt>
<totfact> 0.58441780E+00</totfact>
</mgrwt>
</event>
<event>
12    1  0.1960998E-007  0.3289471E+04  0.7818608E-02  0.8165580E-01
         -1   -1    0    0    0  501 -0.00000000000E+00  0.00000000000E+00  0.67665835098E+03  0.67665835098E+03  0.00000000000E+00 0.  1.
          1   -1    0    0  501    0  0.00000000000E+00 -0.00000000000E+00 -0.39978150246E+04  0.39978150246E+04  0.00000000000E+00 0. -1.
         23    2    1    2    0    0 -0.24139430134E+03 -0.44331311081E+03  0.50006978422E+03  0.71624328912E+03  0.90204973220E+02 0.  0.
        254    2    1    2    0    0  0.24139430134E+03  0.44331311081E+03 -0.38212264578E+04  0.39582300865E+04  0.90056429661E+03 0.  0.
        -24    2    4    4    0    0  0.51560319856E+03  0.52024178519E+03 -0.27439076914E+04  0.28410307380E+04  0.76993911002E+02 0.  0.
         24    2    4    4    0    0 -0.27420889722E+03 -0.76928674381E+02 -0.10773187665E+04  0.11171993484E+04  0.80063220366E+02 0.  0.
         13    1    3    3    0    0 -0.43166660690E+02 -0.35759021245E+02  0.31235144309E+02  0.64169326283E+02  0.00000000000E+00 0. -1.
        -13    1    3    3    0    0 -0.19822764065E+03 -0.40755408956E+03  0.46883463991E+03  0.65207396284E+03  0.00000000000E+00 0.  1.
          4    1    6    6  502    0 -0.82769764848E+02  0.26748686443E+01 -0.41522667840E+03  0.42340427886E+03  0.00000000000E+00 0. -1.
          1    1    5    5  503    0  0.44245664393E+03  0.43787726735E+03 -0.22172830288E+04  0.23030085568E+04  0.00000000000E+00 0. -1.
         -2    1    5    5    0  503  0.73146554627E+02  0.82364517832E+02 -0.52662466257E+03  0.53802218121E+03  0.00000000000E+00 0.  1.
         -3    1    6    6    0  502 -0.19143913237E+03 -0.79603543025E+02 -0.66209208807E+03  0.69379506956E+03  0.00000000000E+00 0.  1.
<mgrwt>
<rscale>  0 0.32894710E+04</rscale>
<asrwt>0</asrwt>
<pdfrwt beam="1">  1        1 0.61504847E+00 0.32894710E+04</pdfrwt>
<pdfrwt beam="2">  1       -1 0.10410128E+00 0.32894710E+04</pdfrwt>
<totfact> 0.69374721E-02</totfact>
</mgrwt>
</event>
<event>
12    1  0.1960998E-007  0.1923541E+04  0.7818608E-02  0.8643226E-01
          1   -1    0    0  501    0  0.00000000000E+00  0.00000000000E+00  0.18592303664E+04  0.18592303664E+04  0.00000000000E+00 0. -1.
         -1   -1    0    0    0  501 -0.00000000000E+00 -0.00000000000E+00 -0.49751913252E+03  0.49751913252E+03  0.00000000000E+00 0.  1.
         23    2    1    2    0    0 -0.51052918754E+03  0.43690066079E+03  0.93638460165E+03  0.11559649635E+04  0.88975479344E+02 0.  0.
        254    2    1    2    0    0  0.51052918754E+03 -0.43690066079E+03  0.42532663225E+03  0.12007845354E+04  0.89969912620E+03 0.  0.
        -24    2    4    4    0    0  0.93747952085E+02  0.21310711989E+03 -0.97623094881E+02  0.26455264071E+03  0.79085447380E+02 0.  0.
         24    2    4    4    0    0  0.41678123546E+03 -0.65000778067E+03  0.52294972713E+03  0.93623189472E+03  0.82686337531E+02 0.  0.
         11    1    3    3    0    0 -0.23431698364E+03  0.16756286312E+03  0.46282439958E+03  0.54514969207E+03  0.00000000000E+00 0. -1.
        -11    1    3    3    0    0 -0.27621220390E+03  0.26933779767E+03  0.47356020207E+03  0.61081527144E+03  0.00000000000E+00 0.  1.
          2    1    6    6  502    0  0.31222259949E+03 -0.54615114386E+03  0.42939437852E+03  0.76167155381E+03  0.00000000000E+00 0. -1.
          1    1    5    5  503    0  0.59329279700E+02  0.75329410355E+02 -0.71156783477E+01  0.96151528187E+02  0.00000000000E+00 0. -1.
         -2    1    5    5    0  503  0.34418672384E+02  0.13777770953E+03 -0.90507416533E+02  0.16840111253E+03  0.00000000000E+00 0.  1.
         -1    1    6    6    0  502  0.10455863597E+03 -0.10385663681E+03  0.93555348613E+02  0.17456034091E+03  0.00000000000E+00 0.  1.
<mgrwt>
<rscale>  0 0.19235412E+04</rscale>
<asrwt>0</asrwt>
<pdfrwt beam="1">  1        1 0.28603544E+00 0.19235412E+04</pdfrwt>
<pdfrwt beam="2">  1       -1 0.76541406E-01 0.19235412E+04</pdfrwt>
<totfact> 0.59394632E+00</totfact>
</mgrwt>
</event>
<event>
12    1  0.1960998E-007  0.1656729E+04  0.7818608E-02  0.8786436E-01
          2   -1    0    0  501    0  0.00000000000E+00  0.00000000000E+00  0.28205787783E+04  0.28205787783E+04  0.00000000000E+00 0. -1.
         -2   -1    0    0    0  501 -0.00000000000E+00 -0.00000000000E+00 -0.24327901052E+03  0.24327901052E+03  0.00000000000E+00 0.  1.
         23    2    1    2    0    0 -0.20625591126E+03 -0.33216212788E+03  0.17003260782E+04  0.17471683554E+04  0.92818693586E+02 0.  0.
        254    2    1    2    0    0  0.20625591126E+03  0.33216212788E+03  0.87697368961E+03  0.13166894334E+04  0.90095229159E+03 0.  0.
        -24    2    4    4    0    0 -0.22929355230E+03  0.46022642442E+03  0.46997466188E+03  0.70168558271E+03  0.84276801756E+02 0.  0.
         24    2    4    4    0    0  0.43554946355E+03 -0.12806429655E+03  0.40699902774E+03  0.61500385073E+03  0.80484337464E+02 0.  0.
         13    1    3    3    0    0 -0.21399502597E+03 -0.31570048775E+03  0.15744992491E+04  0.16200335042E+04  0.00000000000E+00 0.  1.
        -13    1    3    3    0    0  0.77391147105E+01 -0.16461640121E+02  0.12582682903E+03  0.12713485122E+03  0.00000000000E+00 0. -1.
          4    1    6    6  502    0  0.23997414520E+03 -0.55817718765E+02  0.16993812602E+03  0.29930281450E+03  0.00000000000E+00 0. -1.
          3    1    5    5  503    0 -0.19887948134E+03  0.31442621642E+03  0.33075150090E+03  0.49780864699E+03  0.00000000000E+00 0. -1.
         -2    1    5    5    0  503 -0.30414070954E+02  0.14580020800E+03  0.13922316097E+03  0.20387693572E+03  0.00000000000E+00 0.  1.
         -3    1    6    6    0  502  0.19557531835E+03 -0.72246577783E+02  0.23706090172E+03  0.31570103623E+03  0.00000000000E+00 0.  1.
<mgrwt>
<rscale>  0 0.16567288E+04</rscale>
<asrwt>0</asrwt>
<pdfrwt beam="1">  1        2 0.43393518E+00 0.16567288E+04</pdfrwt>
<pdfrwt beam="2">  1       -2 0.37427542E-01 0.16567288E+04</pdfrwt>
<totfact> 0.14498276E+01</totfact>
</mgrwt>
</event>
<event>
12    1  0.1960998E-007  0.2137364E+04  0.7818608E-02  0.8544960E-01
         -1   -1    0    0    0  501 -0.00000000000E+00  0.00000000000E+00  0.52038177813E+03  0.52038177813E+03  0.00000000000E+00 0.  1.
          1   -1    0    0  501    0  0.00000000000E+00 -0.00000000000E+00 -0.21946994199E+04  0.21946994199E+04  0.00000000000E+00 0. -1.
         23    2    1    2    0    0  0.47013065783E+03 -0.19273713306E+03  0.21616756875E+03  0.55954579582E+03  0.90513214249E+02 0.  0.
        254    2    1    2    0    0 -0.47013065783E+03  0.19273713306E+03 -0.18904852105E+04  0.21555354022E+04  0.90234588769E+03 0.  0.
        -24    2    4    4    0    0 -0.37427450701E+03 -0.31147180674E+03 -0.69585618044E+03  0.85285097515E+03  0.77735892455E+02 0.  0.
         24    2    4    4    0    0 -0.95856150814E+02  0.50420893980E+03 -0.11946290300E+04  0.13026844270E+04  0.80206859561E+02 0.  0.
         11    1    3    3    0    0  0.31692205513E+03 -0.94013043137E+02  0.10882998737E+03  0.34802587182E+03  0.00000000000E+00 0. -1.
        -11    1    3    3    0    0  0.15320860270E+03 -0.98724089922E+02  0.10733758138E+03  0.21151992400E+03  0.00000000000E+00 0.  1.
          4    1    6    6  502    0 -0.99155732267E+02  0.40395309825E+03 -0.90054257991E+03  0.99196113990E+03  0.00000000000E+00 0. -1.
          1    1    5    5  503    0 -0.23734447506E+03 -0.23412336197E+03 -0.51115322393E+03  0.61026532492E+03  0.00000000000E+00 0. -1.
         -2    1    5    5    0  503 -0.13693003195E+03 -0.77348444767E+02 -0.18470295650E+03  0.24258565023E+03  0.00000000000E+00 0.  1.
         -3    1    6    6    0  502  0.32995814527E+01  0.10025584155E+03 -0.29408645013E+03  0.31072328711E+03  0.00000000000E+00 0.  1.
<mgrwt>
<rscale>  0 0.21373643E+04</rscale>
<asrwt>0</asrwt>
<pdfrwt beam="1">  1        1 0.33764607E+00 0.21373643E+04</pdfrwt>
<pdfrwt beam="2">  1       -1 0.80058734E-01 0.21373643E+04</pdfrwt>
<totfact> 0.31360613E+00</totfact>
</mgrwt>
</event>
<event>
12    1  0.1960998E-007  0.2241813E+04  0.7818608E-02  0.8501223E-01
          2   -1    0    0  501    0  0.00000000000E+00  0.00000000000E+00  0.10407695118E+04  0.10407695118E+04  0.00000000000E+00 0. -1.
         -2   -1    0    0    0  501 -0.00000000000E+00 -0.00000000000E+00 -0.12072141888E+04  0.12072141888E+04  0.00000000000E+00 0.  1.
         23    2    1    2    0    0 -0.74142703403E+02 -0.88631214024E+03 -0.36898669103E+03  0.96661494474E+03  0.84539475045E+02 0.  0.
        254    2    1    2    0    0  0.74142703403E+02  0.88631214024E+03  0.20254201412E+03  0.12813687559E+04  0.89990903462E+03 0.  0.
        -24    2    4    4    0    0  0.88052172234E+02  0.10325823647E+04  0.30728827818E+03  0.10838283659E+04  0.79235824889E+02 0.  0.
         24    2    4    4    0    0 -0.13909468831E+02 -0.14627022441E+03 -0.10474626405E+03  0.19754038998E+03  0.80386404120E+02 0.  0.
         11    1    3    3    0    0 -0.20906477816E+01 -0.95493816983E+02 -0.68629988025E+02  0.11761596468E+03  0.00000000000E+00 0.  1.
        -11    1    3    3    0    0 -0.72052055621E+02 -0.79081832326E+03 -0.30035670300E+03  0.84899898007E+03  0.00000000000E+00 0. -1.
          2    1    6    6  502    0 -0.13182826863E+01 -0.19094435646E+02 -0.58632773257E+02  0.61677689984E+02  0.00000000000E+00 0. -1.
          1    1    5    5  503    0  0.54961934040E+02  0.68558209650E+03  0.24252449155E+03  0.72928852605E+03  0.00000000000E+00 0. -1.
         -4    1    5    5    0  503  0.33090238194E+02  0.34700026816E+03  0.64763786628E+02  0.35453983982E+03  0.00000000000E+00 0.  1.
         -1    1    6    6    0  502 -0.12591186145E+02 -0.12717578877E+03 -0.46113490796E+02  0.13586270000E+03  0.00000000000E+00 0.  1.
<mgrwt>
<rscale>  0 0.22418133E+04</rscale>
<asrwt>0</asrwt>
<pdfrwt beam="1">  1        2 0.16011839E+00 0.22418133E+04</pdfrwt>
<pdfrwt beam="2">  1       -2 0.18572526E+00 0.22418133E+04</pdfrwt>
<totfact> 0.35794821E+00</totfact>
</mgrwt>
</event>
<event>
12    1  0.1960998E-007  0.2416327E+04  0.7818608E-02  0.8433416E-01
         -2   -1    0    0    0  501 -0.00000000000E+00  0.00000000000E+00  0.74811882325E+03  0.74811882325E+03  0.00000000000E+00 0.  1.
          2   -1    0    0  501    0  0.00000000000E+00 -0.00000000000E+00 -0.19511066453E+04  0.19511066453E+04  0.00000000000E+00 0. -1.
         23    2    1    2    0    0 -0.72744518722E+03 -0.66296602938E+03 -0.14543273068E+03  0.99729768113E+03  0.68931336191E+02 0.  0.
        254    2    1    2    0    0  0.72744518722E+03  0.66296602938E+03 -0.10575550914E+04  0.17019277875E+04  0.89968603739E+03 0.  0.
        -24    2    4    4    0    0  0.91308861116E+03  0.53020621942E+03 -0.99342039607E+03  0.14521094207E+04  0.82995417583E+02 0.  0.
         24    2    4    4    0    0 -0.18564342394E+03  0.13275980996E+03 -0.64134695342E+02  0.24981836680E+03  0.78786478864E+02 0.  0.
         11    1    3    3    0    0 -0.64251634614E+03 -0.57446511233E+03 -0.14860374389E+03  0.87459733194E+03  0.00000000000E+00 0. -1.
        -11    1    3    3    0    0 -0.84928841080E+02 -0.88500917051E+02  0.31710132055E+01  0.12270034919E+03  0.00000000000E+00 0.  1.
          4    1    6    6  502    0 -0.30574797325E+02  0.31238624050E+02 -0.46210047024E+02  0.63608476714E+02  0.00000000000E+00 0. -1.
          1    1    5    5  503    0  0.67984740541E+02  0.39935438032E+02 -0.46630972843E+02  0.91603557712E+02  0.00000000000E+00 0. -1.
         -2    1    5    5    0  503  0.84510387062E+03  0.49027078139E+03 -0.94678942323E+03  0.13605058630E+04  0.00000000000E+00 0.  1.
         -3    1    6    6    0  502 -0.15506862661E+03  0.10152118591E+03 -0.17924648318E+02  0.18620989008E+03  0.00000000000E+00 0.  1.
<mgrwt>
<rscale>  0 0.24163275E+04</rscale>
<asrwt>0</asrwt>
<pdfrwt beam="1">  1        2 0.30017025E+00 0.24163275E+04</pdfrwt>
<pdfrwt beam="2">  1       -2 0.11509521E+00 0.24163275E+04</pdfrwt>
<totfact> 0.37588637E+00</totfact>
</mgrwt>
</event>
<event>
12    1  0.1960998E-007  0.3451339E+04  0.7818608E-02  0.8125420E-01
          2   -1    0    0  501    0  0.00000000000E+00  0.00000000000E+00  0.15182161285E+04  0.15182161285E+04  0.00000000000E+00 0. -1.
         -2   -1    0    0    0  501 -0.00000000000E+00 -0.00000000000E+00 -0.19614704381E+04  0.19614704381E+04  0.00000000000E+00 0.  1.
         23    2    1    2    0    0  0.15123110529E+03 -0.15953374279E+04 -0.83522811550E+02  0.16075187722E+04  0.95750649332E+02 0.  0.
        254    2    1    2    0    0 -0.15123110529E+03  0.15953374279E+04 -0.35973149807E+03  0.18721677943E+04  0.89868411762E+03 0.  0.
        -24    2    4    4    0    0 -0.50698627817E+03  0.71621964374E+03 -0.24046565518E+03  0.91299540332E+03  0.75704760891E+02 0.  0.
         24    2    4    4    0    0  0.35575517288E+03  0.87911778417E+03 -0.11926584289E+03  0.95917239100E+03  0.79859331929E+02 0.  0.
         11    1    3    3    0    0  0.12246813408E+03 -0.93296364083E+03 -0.16144612254E+02  0.94110586412E+03  0.00000000000E+00 0. -1.
        -11    1    3    3    0    0  0.28762971211E+02 -0.66237378709E+03 -0.67378199295E+02  0.66641290809E+03  0.00000000000E+00 0.  1.
          2    1    6    6  502    0  0.25172923891E+03  0.63741708424E+03 -0.12158964989E+03  0.69602599949E+03  0.00000000000E+00 0. -1.
          3    1    5    5  503    0 -0.46200884192E+03  0.65227973117E+03 -0.19578787823E+03  0.82295437964E+03  0.00000000000E+00 0. -1.
         -4    1    5    5    0  503 -0.44977436256E+02  0.63939912574E+02 -0.44677776956E+02  0.90041023683E+02  0.00000000000E+00 0.  1.
         -1    1    6    6    0  502  0.10402593397E+03  0.24170069993E+03  0.23238070027E+01  0.26314639151E+03  0.00000000000E+00 0.  1.
<mgrwt>
<rscale>  0 0.34513395E+04</rscale>
<asrwt>0</asrwt>
<pdfrwt beam="1">  1        2 0.23357171E+00 0.34513395E+04</pdfrwt>
<pdfrwt beam="2">  1       -2 0.30176468E+00 0.34513395E+04</pdfrwt>
<totfact> 0.31702761E-01</totfact>
</mgrwt>
</event>
<event>
12    1  0.1960998E-007  0.1513865E+04  0.7818608E-02  0.8875285E-01
         -2   -1    0    0    0  501 -0.00000000000E+00  0.00000000000E+00  0.46254359274E+03  0.46254359274E+03  0.00000000000E+00 0.  1.
          2   -1    0    0  501    0  0.00000000000E+00 -0.00000000000E+00 -0.12386866335E+04  0.12386866335E+04  0.00000000000E+00 0. -1.
         23    2    1    2    0    0  0.57035300122E+02 -0.42658379718E+03 -0.29724499118E+01  0.43983045828E+03  0.90637934079E+02 0.  0.
        254    2    1    2    0    0 -0.57035300122E+02  0.42658379718E+03 -0.77317059080E+03  0.12613997679E+04  0.89894930366E+03 0.  0.
        -24    2    4    4    0    0  0.26996222174E+03  0.50981041676E+03 -0.69243149424E+03  0.90492418611E+03  0.81487092165E+02 0.  0.
         24    2    4    4    0    0 -0.32699752186E+03 -0.83226619581E+02 -0.80739096560E+02  0.35647558181E+03  0.81865677793E+02 0.  0.
         11    1    3    3    0    0  0.68586870734E+01 -0.28345724477E+03  0.28379126613E+02  0.28495688451E+03  0.00000000000E+00 0.  1.
        -11    1    3    3    0    0  0.50176613049E+02 -0.14312655241E+03 -0.31351576525E+02  0.15487357377E+03  0.00000000000E+00 0. -1.
          4    1    6    6  502    0 -0.10304490847E+03 -0.57258291485E+02 -0.53247448186E+02  0.12935244815E+03  0.00000000000E+00 0. -1.
          1    1    5    5  503    0  0.28245439307E+02  0.25842733463E+02 -0.24726768509E+02  0.45574826334E+02  0.00000000000E+00 0. -1.
         -2    1    5    5    0  503  0.24171678243E+03  0.48396768330E+03 -0.66770472573E+03  0.85934935978E+03  0.00000000000E+00 0.  1.
         -3    1    6    6    0  502 -0.22395261340E+03 -0.25968328097E+02 -0.27491648374E+02  0.22712313366E+03  0.00000000000E+00 0.  1.
<mgrwt>
<rscale>  0 0.15138647E+04</rscale>
<asrwt>0</asrwt>
<pdfrwt beam="1">  1        2 0.19056717E+00 0.15138647E+04</pdfrwt>
<pdfrwt beam="2">  1       -2 0.71160554E-01 0.15138647E+04</pdfrwt>
<totfact> 0.31090241E+01</totfact>
</mgrwt>
</event>
<event>
12    1  0.1960998E-007  0.3260055E+04  0.7818608E-02  0.8173134E-01
          2   -1    0    0  501    0  0.00000000000E+00  0.00000000000E+00  0.23887144741E+04  0.23887144741E+04  0.00000000000E+00 0. -1.
         -2   -1    0    0    0  501 -0.00000000000E+00 -0.00000000000E+00 -0.11123094436E+04  0.11123094436E+04  0.00000000000E+00 0.  1.
         23    2    1    2    0    0  0.11793169709E+03 -0.10611435124E+04 -0.54786254337E+03  0.12036249866E+04  0.92877892537E+02 0.  0.
        254    2    1    2    0    0 -0.11793169709E+03  0.10611435124E+04  0.18242675739E+04  0.22973989311E+04  0.90008678918E+03 0.  0.
        -24    2    4    4    0    0 -0.13929409342E+03  0.78432351348E+03  0.50424621377E+03  0.94614243690E+03  0.79718558296E+02 0.  0.
         24    2    4    4    0    0  0.21362396323E+02  0.27681999893E+03  0.13200213601E+04  0.13512564942E+04  0.79699799085E+02 0.  0.
         13    1    3    3    0    0  0.69474875972E+02 -0.47964056763E+03 -0.29743815804E+03  0.56863985998E+03  0.00000000000E+00 0. -1.
        -13    1    3    3    0    0  0.48456821122E+02 -0.58150294478E+03 -0.25042438534E+03  0.63498512665E+03  0.00000000000E+00 0.  1.
          4    1    6    6  502    0 -0.24933256501E+02  0.12321856652E+03  0.67316396938E+03  0.68480231607E+03  0.00000000000E+00 0. -1.
          3    1    5    5  503    0 -0.52788199568E+02  0.48897877363E+03  0.28698093160E+03  0.56942505229E+03  0.00000000000E+00 0. -1.
         -4    1    5    5    0  503 -0.86505893849E+02  0.29534473985E+03  0.21726528217E+03  0.37671738461E+03  0.00000000000E+00 0.  1.
         -3    1    6    6    0  502  0.46295652824E+02  0.15360143240E+03  0.64685739077E+03  0.66645417809E+03  0.00000000000E+00 0.  1.
<mgrwt>
<rscale>  0 0.32600550E+04</rscale>
<asrwt>0</asrwt>
<pdfrwt beam="1">  1        2 0.36749453E+00 0.32600550E+04</pdfrwt>
<pdfrwt beam="2">  1       -2 0.17112453E+00 0.32600550E+04</pdfrwt>
<totfact> 0.70742921E-01</totfact>
</mgrwt>
</event>
<event>
12    1  0.1960998E-007  0.2490260E+04  0.7818608E-02  0.8406464E-01
          2   -1    0    0  501    0  0.00000000000E+00  0.00000000000E+00  0.96985292379E+03  0.96985292379E+03  0.00000000000E+00 0.  1.
         -2   -1    0    0    0  501 -0.00000000000E+00 -0.00000000000E+00 -0.15985402964E+04  0.15985402964E+04  0.00000000000E+00 0. -1.
         23    2    1    2    0    0 -0.10322010504E+04 -0.21160004167E+03 -0.51889956748E+03  0.11778594530E+04  0.88783691180E+02 0.  0.
        254    2    1    2    0    0  0.10322010504E+04  0.21160004167E+03 -0.10978780513E+03  0.13905337672E+04  0.90073148580E+03 0.  0.
        -24    2    4    4    0    0 -0.33033532604E+02 -0.13473784478E+03  0.16990099010E+03  0.23308279449E+03  0.78839974370E+02 0.  0.
         24    2    4    4    0    0  0.10652345830E+04  0.34633788644E+03 -0.27968879523E+03  0.11574509727E+04  0.82415312005E+02 0.  0.
         11    1    3    3    0    0 -0.61776111453E+03 -0.16623974564E+03 -0.29243402737E+03  0.70340749784E+03  0.00000000000E+00 0. -1.
        -11    1    3    3    0    0 -0.41443993586E+03 -0.45360296025E+02 -0.22646554011E+03  0.47445195515E+03  0.00000000000E+00 0.  1.
          4    1    6    6  502    0  0.64513611505E+02  0.31015113265E+01 -0.25160110822E+02  0.69315630406E+02  0.00000000000E+00 0. -1.
          3    1    5    5  503    0 -0.38518370166E+02 -0.20468251659E+02  0.33129411702E+02  0.54773826650E+02  0.00000000000E+00 0. -1.
         -4    1    5    5    0  503  0.54848375617E+01 -0.11426959312E+03  0.13677157840E+03  0.17830896784E+03  0.00000000000E+00 0.  1.
         -3    1    6    6    0  502  0.10007209715E+04  0.34323637512E+03 -0.25452868441E+03  0.10881353423E+04  0.00000000000E+00 0.  1.
<mgrwt>
<rscale>  0 0.24902602E+04</rscale>
<asrwt>0</asrwt>
<pdfrwt beam="1">  1        2 0.14920814E+00 0.24902602E+04</pdfrwt>
<pdfrwt beam="2">  1       -2 0.24592927E+00 0.24902602E+04</pdfrwt>
<totfact> 0.16009337E+00</totfact>
</mgrwt>
</event>
<event>
12    1  0.1960998E-007  0.2708390E+04  0.7818608E-02  0.8332288E-01
          2   -1    0    0  501    0  0.00000000000E+00  0.00000000000E+00  0.15584217609E+04  0.15584217609E+04  0.00000000000E+00 0. -1.
         -2   -1    0    0    0  501 -0.00000000000E+00 -0.00000000000E+00 -0.11767319883E+04  0.11767319883E+04  0.00000000000E+00 0.  1.
         23    2    1    2    0    0  0.70825761779E+03  0.96088594650E+03  0.21038751881E+02  0.11973759372E+04  0.91300879110E+02 0.  0.
        254    2    1    2    0    0 -0.70825761779E+03 -0.96088594650E+03  0.36065102073E+03  0.15377778121E+04  0.89986709307E+03 0.  0.
        -24    2    4    4    0    0 -0.35644033894E+03 -0.96118420332E+03  0.72307501858E+00  0.10281496498E+04  0.78526375647E+02 0.  0.
         24    2    4    4    0    0 -0.35181727885E+03  0.29825682492E+00  0.35992794571E+03  0.50962816223E+03  0.79982816775E+02 0.  0.
         11    1    3    3    0    0  0.33478744005E+03  0.41341142939E+03 -0.29016625070E+02  0.53276036310E+03  0.00000000000E+00 0.  1.
        -11    1    3    3    0    0  0.37347017774E+03  0.54747451710E+03  0.50055376951E+02  0.66461557407E+03  0.00000000000E+00 0. -1.
          4    1    6    6  502    0 -0.24779428729E+03  0.26310068268E+02  0.28631190848E+03  0.37956387795E+03  0.00000000000E+00 0. -1.
          1    1    5    5  503    0 -0.25416778404E+03 -0.72112011070E+03 -0.31353293077E+02  0.76524408229E+03  0.00000000000E+00 0. -1.
         -2    1    5    5    0  503 -0.10227255489E+03 -0.24006409262E+03  0.32076368095E+02  0.26290556754E+03  0.00000000000E+00 0.  1.
         -3    1    6    6    0  502 -0.10402299156E+03 -0.26011811444E+02  0.73616037229E+02  0.13006428428E+03  0.00000000000E+00 0.  1.
<mgrwt>
<rscale>  0 0.27083905E+04</rscale>
<asrwt>0</asrwt>
<pdfrwt beam="1">  1        2 0.23975719E+00 0.27083905E+04</pdfrwt>
<pdfrwt beam="2">  1       -2 0.18103569E+00 0.27083905E+04</pdfrwt>
<totfact> 0.18403393E+00</totfact>
</mgrwt>
</event>
<event>
12    1  0.1960998E-007  0.2473535E+04  0.7818608E-02  0.8412475E-01
          1   -1    0    0  501    0  0.00000000000E+00  0.00000000000E+00  0.19370532358E+04  0.19370532358E+04  0.00000000000E+00 0. -1.
         -1   -1    0    0    0  501 -0.00000000000E+00 -0.00000000000E+00 -0.78964997153E+03  0.78964997153E+03  0.00000000000E+00 0.  1.
         23    2    1    2    0    0  0.73451244417E+03  0.33332838996E+02 -0.35975499889E+03  0.82347311692E+03  0.89803709656E+02 0.  0.
        254    2    1    2    0    0 -0.73451244417E+03 -0.33332838996E+02  0.15071582632E+04  0.19032300904E+04  0.90007729559E+03 0.  0.
        -24    2    4    4    0    0 -0.56209559989E+02 -0.37662339957E+03  0.62150968092E+03  0.73332941032E+03  0.80579406927E+02 0.  0.
         24    2    4    4    0    0 -0.67830288418E+03  0.34329056057E+03  0.88564858227E+03  0.11699006801E+04  0.79693026015E+02 0.  0.
         13    1    3    3    0    0  0.48516284917E+03  0.51764824636E+02 -0.27121365595E+03  0.55822883700E+03  0.00000000000E+00 0.  1.
        -13    1    3    3    0    0  0.24934959500E+03 -0.18431985640E+02 -0.88541342944E+02  0.26524427992E+03  0.00000000000E+00 0. -1.
          2    1    6    6  502    0 -0.62772853622E+03  0.29584787037E+03  0.82219926557E+03  0.10759092480E+04  0.00000000000E+00 0. -1.
          3    1    5    5  503    0 -0.38835419101E+02 -0.36238630160E+03  0.60120495810E+03  0.70305008571E+03  0.00000000000E+00 0. -1.
         -2    1    5    5    0  503 -0.17374140888E+02 -0.14237097970E+02  0.20304722818E+02  0.30279324612E+02  0.00000000000E+00 0.  1.
         -1    1    6    6    0  502 -0.50574347966E+02  0.47442690200E+02  0.63449316693E+02  0.93991432133E+02  0.00000000000E+00 0.  1.
<mgrwt>
<rscale>  0 0.24735351E+04</rscale>
<asrwt>0</asrwt>
<pdfrwt beam="1">  1        1 0.29800819E+00 0.24735351E+04</pdfrwt>
<pdfrwt beam="2">  1       -1 0.12148461E+00 0.24735351E+04</pdfrwt>
<totfact> 0.17583072E+00</totfact>
</mgrwt>
</event>
<event>
12    1  0.1960998E-007  0.2775248E+04  0.7818608E-02  0.8310994E-01
         -1   -1    0    0    0  501 -0.00000000000E+00  0.00000000000E+00  0.11738558426E+04  0.11738558426E+04  0.00000000000E+00 0.  1.
          1   -1    0    0  501    0  0.00000000000E+00 -0.00000000000E+00 -0.16403212694E+04  0.16403212694E+04  0.00000000000E+00 0. -1.
         23    2    1    2    0    0 -0.47313668037E+03  0.10784892837E+04  0.18570643792E+03  0.11962758243E+04  0.97936272732E+02 0.  0.
        254    2    1    2    0    0  0.47313668037E+03 -0.10784892837E+04 -0.65217186471E+03  0.16179012877E+04  0.89737337961E+03 0.  0.
        -24    2    4    4    0    0  0.62761775673E+03 -0.39285257135E+03 -0.17538696221E+03  0.76497618119E+03  0.78681509239E+02 0.  0.
         24    2    4    4    0    0 -0.15448107636E+03 -0.68563671231E+03 -0.47678490249E+03  0.85292510654E+03  0.78710163838E+02 0.  0.
         13    1    3    3    0    0 -0.26990642612E+03  0.49460479232E+03  0.95264238687E+02  0.57145310798E+03  0.00000000000E+00 0. -1.
        -13    1    3    3    0    0 -0.20323025425E+03  0.58388449133E+03  0.90442199231E+02  0.62482271635E+03  0.00000000000E+00 0.  1.
          2    1    6    6  502    0 -0.39949032353E+01  0.67828845302E+00 -0.57111945953E+01  0.70026474130E+01  0.00000000000E+00 0. -1.
          3    1    5    5  503    0  0.27321616770E+03 -0.12808921547E+03 -0.57830785543E+02  0.30724309784E+03  0.00000000000E+00 0. -1.
         -4    1    5    5    0  503  0.35440158903E+03 -0.26476335587E+03 -0.11755617667E+03  0.45773308335E+03  0.00000000000E+00 0.  1.
         -1    1    6    6    0  502 -0.15048617312E+03 -0.68631500076E+03 -0.47107370790E+03  0.84592245912E+03  0.00000000000E+00 0.  1.
<mgrwt>
<rscale>  0 0.27752482E+04</rscale>
<asrwt>0</asrwt>
<pdfrwt beam="1">  1        1 0.25235712E+00 0.27752482E+04</pdfrwt>
<pdfrwt beam="2">  1       -1 0.18059321E+00 0.27752482E+04</pdfrwt>
<totfact> 0.93610168E-01</totfact>
</mgrwt>
</event>
<event>
12    1  0.1960998E-007  0.1839331E+04  0.7818608E-02  0.8685659E-01
         -2   -1    0    0    0  501 -0.00000000000E+00  0.00000000000E+00  0.17074406962E+03  0.17074406962E+03  0.00000000000E+00 0.  1.
          2   -1    0    0  501    0  0.00000000000E+00 -0.00000000000E+00 -0.49535241574E+04  0.49535241574E+04  0.00000000000E+00 0. -1.
         23    2    1    2    0    0 -0.69418627269E+03 -0.57705101396E+02 -0.18439863137E+04  0.19733118419E+04  0.91921925744E+02 0.  0.
        254    2    1    2    0    0  0.69418627269E+03  0.57705101396E+02 -0.29387937741E+04  0.31509563851E+04  0.89821647407E+03 0.  0.
        -24    2    4    4    0    0  0.51830910997E+03  0.44970969443E+03 -0.19873806641E+04  0.21040440862E+04  0.80227615138E+02 0.  0.
         24    2    4    4    0    0  0.17587716272E+03 -0.39200459303E+03 -0.95141311000E+03  0.10469122988E+04  0.78981505770E+02 0.  0.
         11    1    3    3    0    0 -0.18220538606E+03  0.25299091220E+02 -0.48189931404E+03  0.51581566048E+03  0.00000000000E+00 0.  1.
        -11    1    3    3    0    0 -0.51198088662E+03 -0.83004192616E+02 -0.13620869997E+04  0.14574961814E+04  0.00000000000E+00 0. -1.
          4    1    6    6  502    0  0.92416589046E+02 -0.28324273450E+03 -0.69448387750E+03  0.75569512945E+03  0.00000000000E+00 0. -1.
          1    1    5    5  503    0  0.36365339963E+03  0.29527844588E+03 -0.12471493797E+04  0.13322217274E+04  0.00000000000E+00 0. -1.
         -2    1    5    5    0  503  0.15465571034E+03  0.15443124855E+03 -0.74023128431E+03  0.77182235880E+03  0.00000000000E+00 0.  1.
         -3    1    6    6    0  502  0.83460573673E+02 -0.10876185853E+03 -0.25692923251E+03  0.29121716939E+03  0.00000000000E+00 0.  1.
<mgrwt>
<rscale>  0 0.18393313E+04</rscale>
<asrwt>0</asrwt>
<pdfrwt beam="1">  1        2 0.76208058E+00 0.18393313E+04</pdfrwt>
<pdfrwt beam="2">  1       -2 0.26268320E-01 0.18393313E+04</pdfrwt>
<totfact> 0.49912883E-01</totfact>
</mgrwt>
</event>
<event>
12    1  0.1960998E-007  0.4158280E+04  0.7818608E-02  0.7973356E-01
         -2   -1    0    0    0  501 -0.00000000000E+00  0.00000000000E+00  0.38452317232E+04  0.38452317232E+04  0.00000000000E+00 0.  1.
          2   -1    0    0  501    0  0.00000000000E+00 -0.00000000000E+00 -0.11242037223E+04  0.11242037223E+04  0.00000000000E+00 0. -1.
         23    2    1    2    0    0 -0.17269498699E+04 -0.93570766780E+03  0.10251582105E+04  0.22173543972E+04  0.88354250980E+02 0.  0.
        254    2    1    2    0    0  0.17269498699E+04  0.93570766780E+03  0.16958697905E+04  0.27520810483E+04  0.91655390333E+03 0.  0.
        -24    2    4    4    0    0  0.17938377779E+04  0.98812171908E+03  0.15946721433E+04  0.25968476014E+04  0.79998219910E+02 0.  0.
         24    2    4    4    0    0 -0.66887908035E+02 -0.52414051288E+02  0.10119764723E+03  0.15523344695E+03  0.81456947114E+02 0.  0.
         13    1    3    3    0    0 -0.42368196417E+03 -0.18773262861E+03  0.24984066098E+03  0.52646965961E+03  0.00000000000E+00 0.  1.
        -13    1    3    3    0    0 -0.13032679057E+04 -0.74797503919E+03  0.77531754948E+03  0.16908847376E+04  0.00000000000E+00 0. -1.
          4    1    6    6  502    0 -0.15532856527E+02 -0.12536282209E+01 -0.12782297183E+02  0.20155106968E+02  0.00000000000E+00 0. -1.
          1    1    5    5  503    0  0.17392892616E+02  0.18165604100E+02  0.14221547712E+02  0.28892114931E+02  0.00000000000E+00 0. -1.
         -2    1    5    5    0  503  0.17764448853E+04  0.96995611498E+03  0.15804505956E+04  0.25679554865E+04  0.00000000000E+00 0.  1.
         -3    1    6    6    0  502 -0.51355051508E+02 -0.51160423067E+02  0.11397994441E+03  0.13507833998E+03  0.00000000000E+00 0.  1.
<mgrwt>
<rscale>  0 0.41582803E+04</rscale>
<asrwt>0</asrwt>
<pdfrwt beam="1">  1        2 0.17295442E+00 0.41582803E+04</pdfrwt>
<pdfrwt beam="2">  1       -2 0.59157410E+00 0.41582803E+04</pdfrwt>
<totfact> 0.90077719E-03</totfact>
</mgrwt>
</event>
<event>
12    1  0.1960998E-007  0.1670118E+04  0.7818608E-02  0.8778593E-01
         -2   -1    0    0    0  501 -0.00000000000E+00  0.00000000000E+00  0.29717094794E+03  0.29717094794E+03  0.00000000000E+00 0. -1.
          2   -1    0    0  501    0  0.00000000000E+00 -0.00000000000E+00 -0.23465413080E+04  0.23465413080E+04  0.00000000000E+00 0.  1.
         23    2    1    2    0    0 -0.25438876732E+03 -0.37957261691E+03 -0.13160425383E+04  0.13960783648E+04  0.90982533960E+02 0.  0.
        254    2    1    2    0    0  0.25438876732E+03  0.37957261691E+03 -0.73332782177E+03  0.12476338912E+04  0.90001756416E+03 0.  0.
        -24    2    4    4    0    0  0.55838750544E+03  0.15553499014E+03 -0.27089697267E+03  0.64525454190E+03  0.83549474279E+02 0.  0.
         24    2    4    4    0    0 -0.30399873812E+03  0.22403762677E+03 -0.46243084910E+03  0.60237934929E+03  0.80065593496E+02 0.  0.
         11    1    3    3    0    0 -0.17053615439E+03 -0.30039130666E+03 -0.88939559744E+03  0.95411846530E+03  0.00000000000E+00 0. -1.
        -11    1    3    3    0    0 -0.83852612929E+02 -0.79181310248E+02 -0.42664694088E+03  0.44195989949E+03  0.00000000000E+00 0.  1.
          4    1    6    6  502    0 -0.92652174365E+02  0.31273443107E+02 -0.91124003313E+02  0.13366389804E+03  0.00000000000E+00 0. -1.
          3    1    5    5  503    0  0.19372685981E+03  0.92476292735E+02 -0.11675250927E+03  0.24436265948E+03  0.00000000000E+00 0. -1.
         -4    1    5    5    0  503  0.36466064563E+03  0.63058697403E+02 -0.15414446340E+03  0.40089188241E+03  0.00000000000E+00 0.  1.
         -3    1    6    6    0  502 -0.21134656376E+03  0.19276418366E+03 -0.37130684578E+03  0.46871545125E+03  0.00000000000E+00 0.  1.
<mgrwt>
<rscale>  0 0.16701184E+04</rscale>
<asrwt>0</asrwt>
<pdfrwt beam="1">  1        2 0.36100636E+00 0.16701184E+04</pdfrwt>
<pdfrwt beam="2">  1       -2 0.45718607E-01 0.16701184E+04</pdfrwt>
<totfact> 0.18476463E+01</totfact>
</mgrwt>
</event>
<event>
12    1  0.1960998E-007  0.2405133E+04  0.7818608E-02  0.8437584E-01
         -2   -1    0    0    0  501 -0.00000000000E+00  0.00000000000E+00  0.71367138162E+03  0.71367138162E+03  0.00000000000E+00 0.  1.
          2   -1    0    0  501    0  0.00000000000E+00 -0.00000000000E+00 -0.20263750298E+04  0.20263750298E+04  0.00000000000E+00 0. -1.
         23    2    1    2    0    0  0.10134890261E+04 -0.17335457359E+03 -0.43736699418E+03  0.11210035498E+04  0.90262156266E+02 0.  0.
        254    2    1    2    0    0 -0.10134890261E+04  0.17335457359E+03 -0.87533665402E+03  0.16190428616E+04  0.89323777107E+03 0.  0.
        -24    2    4    4    0    0 -0.80319276626E+03 -0.67547363184E+02 -0.15179646786E+03  0.82392647971E+03  0.78303322167E+02 0.  0.
         24    2    4    4    0    0 -0.21029625985E+03  0.24090193678E+03 -0.72354018616E+03  0.79511638192E+03  0.80258331385E+02 0.  0.
         13    1    3    3    0    0  0.79590530977E+03 -0.10248916975E+03 -0.32118873675E+03  0.86436768603E+03  0.00000000000E+00 0.  1.
        -13    1    3    3    0    0  0.21758371634E+03 -0.70865403845E+02 -0.11617825743E+03  0.25663586378E+03  0.00000000000E+00 0. -1.
          2    1    6    6  502    0 -0.16446510945E+03  0.17824556592E+03 -0.45526945175E+03  0.51583963369E+03  0.00000000000E+00 0. -1.
          3    1    5    5  503    0 -0.55561898775E+02 -0.16409487574E+02  0.55775027006E+01  0.58202271556E+02  0.00000000000E+00 0. -1.
         -4    1    5    5    0  503 -0.74763086749E+03 -0.51137875610E+02 -0.15737397056E+03  0.76572420815E+03  0.00000000000E+00 0.  1.
         -1    1    6    6    0  502 -0.45831150404E+02  0.62656370855E+02 -0.26827073441E+03  0.27927674822E+03  0.00000000000E+00 0.  1.
<mgrwt>
<rscale>  0 0.24051327E+04</rscale>
<asrwt>0</asrwt>
<pdfrwt beam="1">  1        2 0.31175000E+00 0.24051327E+04</pdfrwt>
<pdfrwt beam="2">  1       -2 0.10979560E+00 0.24051327E+04</pdfrwt>
<totfact> 0.38315173E+00</totfact>
</mgrwt>
</event>
<event>
12    1  0.1960998E-007  0.2855322E+04  0.7818608E-02  0.8286296E-01
          1   -1    0    0  501    0  0.00000000000E+00  0.00000000000E+00  0.15390310032E+04  0.15390310032E+04  0.00000000000E+00 0. -1.
         -1   -1    0    0    0  501 -0.00000000000E+00 -0.00000000000E+00 -0.13243502386E+04  0.13243502386E+04  0.00000000000E+00 0.  1.
         23    2    1    2    0    0  0.57311109482E+03 -0.70434806483E+03  0.10077807693E+04  0.13591544621E+04  0.84357865791E+02 0.  0.
        254    2    1    2    0    0 -0.57311109482E+03  0.70434806483E+03 -0.79310000472E+03  0.15042267796E+04  0.89951546044E+03 0.  0.
        -24    2    4    4    0    0 -0.93311673266E+01  0.54646340950E+03 -0.49194900259E+02  0.55465612664E+03  0.80709057736E+02 0.  0.
         24    2    4    4    0    0 -0.56377992750E+03  0.15788465533E+03 -0.74390510447E+03  0.94957065297E+03  0.74257992861E+02 0.  0.
         13    1    3    3    0    0  0.32821999323E+03 -0.35260759272E+03  0.57390562367E+03  0.74928508812E+03  0.00000000000E+00 0.  1.
        -13    1    3    3    0    0  0.24489110159E+03 -0.35174047211E+03  0.43387514562E+03  0.60986937401E+03  0.00000000000E+00 0. -1.
          2    1    6    6  502    0 -0.23933673761E+03  0.10316438453E+03 -0.30925684425E+03  0.40443140323E+03  0.00000000000E+00 0. -1.
          3    1    5    5  503    0 -0.28939728765E+02  0.89780583738E+02  0.43334898334E+01  0.94429022294E+02  0.00000000000E+00 0. -1.
         -4    1    5    5    0  503  0.19608561438E+02  0.45668282576E+03 -0.53528390092E+02  0.46022710434E+03  0.00000000000E+00 0.  1.
         -1    1    6    6    0  502 -0.32444318989E+03  0.54720270799E+02 -0.43464826021E+03  0.54513924974E+03  0.00000000000E+00 0.  1.
<mgrwt>
<rscale>  0 0.28553221E+04</rscale>
<asrwt>0</asrwt>
<pdfrwt beam="1">  1        1 0.23677400E+00 0.28553221E+04</pdfrwt>
<pdfrwt beam="2">  1       -1 0.20374619E+00 0.28553221E+04</pdfrwt>
<totfact> 0.75123973E-01</totfact>
</mgrwt>
</event>
<event>
12    1  0.1960998E-007  0.1199103E+04  0.7818608E-02  0.9113642E-01
          1   -1    0    0  501    0  0.00000000000E+00  0.00000000000E+00  0.58377925906E+03  0.58377925906E+03  0.00000000000E+00 0. -1.
         -1   -1    0    0    0  501 -0.00000000000E+00 -0.00000000000E+00 -0.61574939347E+03  0.61574939347E+03  0.00000000000E+00 0.  1.
         23    2    1    2    0    0  0.26517786951E+02  0.39520615550E+02 -0.24869214861E+03  0.26868435660E+03  0.89880068008E+02 0.  0.
        254    2    1    2    0    0 -0.26517786951E+02 -0.39520615550E+02  0.21672201421E+03  0.93084429593E+03  0.90401194668E+03 0.  0.
        -24    2    4    4    0    0  0.16465469541E+03 -0.41485746547E+03  0.65796465584E+01  0.45348938809E+03  0.79946532020E+02 0.  0.
         24    2    4    4    0    0 -0.19117248236E+03  0.37533684992E+03  0.21014236765E+03  0.47735490784E+03  0.79266792782E+02 0.  0.
         13    1    3    3    0    0 -0.22130019522E+02 -0.14397114390E+02 -0.42028175081E+02  0.49632470898E+02  0.00000000000E+00 0. -1.
        -13    1    3    3    0    0  0.48647806473E+02  0.53917729939E+02 -0.20666397353E+03  0.21905188571E+03  0.00000000000E+00 0.  1.
          2    1    6    6  502    0 -0.19693174382E+03  0.34233876953E+03  0.19729809292E+03  0.44147987759E+03  0.00000000000E+00 0. -1.
          1    1    5    5  503    0  0.12011994453E+03 -0.34416578962E+03  0.32601588863E+02  0.36598053967E+03  0.00000000000E+00 0. -1.
         -2    1    5    5    0  503  0.44534750883E+02 -0.70691675850E+02 -0.26021942305E+02  0.87508848421E+02  0.00000000000E+00 0.  1.
         -1    1    6    6    0  502  0.57592614617E+01  0.32998080390E+02  0.12844274728E+02  0.35875030248E+02  0.00000000000E+00 0.  1.
<mgrwt>
<rscale>  0 0.11991025E+04</rscale>
<asrwt>0</asrwt>
<pdfrwt beam="1">  1        1 0.89812194E-01 0.11991025E+04</pdfrwt>
<pdfrwt beam="2">  1       -1 0.94730676E-01 0.11991025E+04</pdfrwt>
<totfact> 0.38024609E+01</totfact>
</mgrwt>
</event>
<event>
12    1  0.1960998E-007  0.2179530E+04  0.7818608E-02  0.8526997E-01
          1   -1    0    0  501    0  0.00000000000E+00  0.00000000000E+00  0.19138473473E+04  0.19138473473E+04  0.00000000000E+00 0. -1.
         -1   -1    0    0    0  501 -0.00000000000E+00 -0.00000000000E+00 -0.62052391311E+03  0.62052391311E+03  0.00000000000E+00 0.  1.
         23    2    1    2    0    0  0.50345267369E+03 -0.69747573797E+03  0.87320836416E+03  0.12292439963E+04  0.92795233652E+02 0.  0.
        254    2    1    2    0    0 -0.50345267369E+03  0.69747573797E+03  0.42011507008E+03  0.13051272642E+04  0.88708708927E+03 0.  0.
        -24    2    4    4    0    0 -0.44433444376E+03  0.79511304745E+03  0.58815959730E+03  0.10871922833E+04  0.80109255832E+02 0.  0.
         24    2    4    4    0    0 -0.59118229935E+02 -0.97637309484E+02 -0.16804452722E+03  0.21793498088E+03  0.78922008647E+02 0.  0.
         11    1    3    3    0    0  0.14772091260E+03 -0.20931201039E+03  0.32231498182E+03  0.41172798450E+03  0.00000000000E+00 0. -1.
        -11    1    3    3    0    0  0.35573176110E+03 -0.48816372758E+03  0.55089338233E+03  0.81751601176E+03  0.00000000000E+00 0.  1.
          2    1    6    6  502    0 -0.64152511907E+01 -0.83078006307E+02 -0.11246080085E+03  0.13996621845E+03  0.00000000000E+00 0. -1.
          1    1    5    5  503    0 -0.41599979174E+03  0.77455310251E+03  0.56939030331E+03  0.10474701203E+04  0.00000000000E+00 0. -1.
         -2    1    5    5    0  503 -0.28334652017E+02  0.20559944941E+02  0.18769293989E+02  0.39722163055E+02  0.00000000000E+00 0.  1.
         -1    1    6    6    0  502 -0.52702978745E+02 -0.14559303177E+02 -0.55583726370E+02  0.77968762429E+02  0.00000000000E+00 0.  1.
<mgrwt>
<rscale>  0 0.21795303E+04</rscale>
<asrwt>0</asrwt>
<pdfrwt beam="1">  1        1 0.29443805E+00 0.21795303E+04</pdfrwt>
<pdfrwt beam="2">  1       -1 0.95465218E-01 0.21795303E+04</pdfrwt>
<totfact> 0.32974365E+00</totfact>
</mgrwt>
</event>
<event>
12    1  0.1960998E-007  0.2156024E+04  0.7818608E-02  0.8536958E-01
         -1   -1    0    0    0  501 -0.00000000000E+00  0.00000000000E+00  0.80095413744E+03  0.80095413744E+03  0.00000000000E+00 0.  1.
          1   -1    0    0  501    0  0.00000000000E+00 -0.00000000000E+00 -0.14509068560E+04  0.14509068560E+04  0.00000000000E+00 0. -1.
         23    2    1    2    0    0 -0.87902716355E+03 -0.74503611333E+02 -0.36059813894E+03  0.95773397942E+03  0.94782989873E+02 0.  0.
        254    2    1    2    0    0  0.87902716355E+03  0.74503611333E+02 -0.28935457962E+03  0.12941270140E+04  0.90155372181E+03 0.  0.
        -24    2    4    4    0    0  0.93720182838E+03  0.11480010300E+03  0.40136760788E+02  0.94834145759E+03  0.78830386563E+02 0.  0.
         24    2    4    4    0    0 -0.58174664834E+02 -0.40296491665E+02 -0.32949134041E+03  0.34578555643E+03  0.77427441936E+02 0.  0.
         11    1    3    3    0    0 -0.33892563906E+03 -0.74727248638E+02 -0.13447127943E+03  0.37220595843E+03  0.00000000000E+00 0. -1.
        -11    1    3    3    0    0 -0.54010152449E+03  0.22363730524E+00 -0.22612685950E+03  0.58552802099E+03  0.00000000000E+00 0.  1.
          4    1    6    6  502    0  0.23966838446E+01  0.81541276713E+01 -0.15013795539E+03  0.15037832138E+03  0.00000000000E+00 0. -1.
          1    1    5    5  503    0  0.64090155044E+03  0.89466919502E+02  0.62460823206E+02  0.65012343557E+03  0.00000000000E+00 0. -1.
         -2    1    5    5    0  503  0.29630027794E+03  0.25333183496E+02 -0.22324062418E+02  0.29821802202E+03  0.00000000000E+00 0.  1.
         -3    1    6    6    0  502 -0.60571348678E+02 -0.48450619336E+02 -0.17935338502E+03  0.19540723506E+03  0.00000000000E+00 0.  1.
<mgrwt>
<rscale>  0 0.21560240E+04</rscale>
<asrwt>0</asrwt>
<pdfrwt beam="1">  1        1 0.22321644E+00 0.21560240E+04</pdfrwt>
<pdfrwt beam="2">  1       -1 0.12322371E+00 0.21560240E+04</pdfrwt>
<totfact> 0.37561182E+00</totfact>
</mgrwt>
</event>
<event>
12    1  0.1960998E-007  0.2077111E+04  0.7818608E-02  0.8571394E-01
         -1   -1    0    0    0  501 -0.00000000000E+00  0.00000000000E+00  0.16812583180E+04  0.16812583180E+04  0.00000000000E+00 0.  1.
          1   -1    0    0  501    0  0.00000000000E+00 -0.00000000000E+00 -0.64154152958E+03  0.64154152958E+03  0.00000000000E+00 0. -1.
         23    2    1    2    0    0 -0.68195773060E+03  0.72635919772E+00  0.97625330658E+03  0.11942446999E+04  0.89905564825E+02 0.  0.
        254    2    1    2    0    0  0.68195773060E+03 -0.72635919772E+00  0.63463481811E+02  0.11285551477E+04  0.89696278293E+03 0.  0.
        -24    2    4    4    0    0  0.63781479627E+03 -0.31328045846E+03  0.24520624976E+03  0.75581041825E+03  0.78555225273E+02 0.  0.
         24    2    4    4    0    0  0.44142934327E+02  0.31255409926E+03 -0.18174276795E+03  0.37274472945E+03  0.79180401741E+02 0.  0.
         13    1    3    3    0    0 -0.13768946346E+03 -0.18305632886E+01  0.13921837048E+03  0.19581494833E+03  0.00000000000E+00 0. -1.
        -13    1    3    3    0    0 -0.54426826714E+03  0.25569224863E+01  0.83703493611E+03  0.99842975153E+03  0.00000000000E+00 0.  1.
          4    1    6    6  502    0  0.81590792167E+01  0.24589808660E+03 -0.11415526767E+03  0.27122659291E+03  0.00000000000E+00 0. -1.
          1    1    5    5  503    0  0.62181965355E+03 -0.29210381650E+03  0.24463037715E+03  0.72926561868E+03  0.00000000000E+00 0. -1.
         -2    1    5    5    0  503  0.15995142723E+02 -0.21176641954E+02  0.57587260819E+00  0.26544799574E+02  0.00000000000E+00 0.  1.
         -3    1    6    6    0  502  0.35983855111E+02  0.66656012655E+02 -0.67587500283E+02  0.10151813654E+03  0.00000000000E+00 0.  1.
<mgrwt>
<rscale>  0 0.20771105E+04</rscale>
<asrwt>0</asrwt>
<pdfrwt beam="1">  1        1 0.98698697E-01 0.20771105E+04</pdfrwt>
<pdfrwt beam="2">  1       -1 0.25865513E+00 0.20771105E+04</pdfrwt>
<totfact> 0.17519883E+00</totfact>
</mgrwt>
</event>
<event>
12    1  0.1960998E-007  0.2631949E+04  0.7818608E-02  0.8357429E-01
         -2   -1    0    0    0  501 -0.00000000000E+00  0.00000000000E+00  0.17933109184E+04  0.17933109184E+04  0.00000000000E+00 0. -1.
          2   -1    0    0  501    0  0.00000000000E+00 -0.00000000000E+00 -0.96569375275E+03  0.96569375275E+03  0.00000000000E+00 0.  1.
         23    2    1    2    0    0 -0.11080509921E+04  0.15869936558E+03  0.68473769317E+03  0.13156700789E+04  0.95705580676E+02 0.  0.
        254    2    1    2    0    0  0.11080509921E+04 -0.15869936558E+03  0.14287947244E+03  0.14433345922E+04  0.89990983535E+03 0.  0.
        -24    2    4    4    0    0  0.72125424389E+03 -0.15113758635E+03  0.51359941193E+03  0.90176561340E+03  0.79665621381E+02 0.  0.
         24    2    4    4    0    0  0.38679674823E+03 -0.75617792277E+01 -0.37071993949E+03  0.54156897885E+03  0.78706927068E+02 0.  0.
         13    1    3    3    0    0 -0.51366668381E+03  0.10284785347E+03  0.27568754484E+03  0.59197530810E+03  0.00000000000E+00 0. -1.
        -13    1    3    3    0    0 -0.59438430831E+03  0.55851512109E+02  0.40905014833E+03  0.72369477075E+03  0.00000000000E+00 0.  1.
          2    1    6    6  502    0  0.17783361746E+03  0.14324160740E+01 -0.11755592113E+03  0.21318124192E+03  0.00000000000E+00 0. -1.
          3    1    5    5  503    0  0.25392917800E+03 -0.31874089237E+02  0.21719563443E+03  0.33566341567E+03  0.00000000000E+00 0. -1.
         -4    1    5    5    0  503  0.46732506589E+03 -0.11926349711E+03  0.29640377751E+03  0.56610219772E+03  0.00000000000E+00 0.  1.
         -1    1    6    6    0  502  0.20896313077E+03 -0.89941953016E+01 -0.25316401836E+03  0.32838773693E+03  0.00000000000E+00 0.  1.
<mgrwt>
<rscale>  0 0.26319492E+04</rscale>
<asrwt>0</asrwt>
<pdfrwt beam="1">  1        2 0.14856827E+00 0.26319492E+04</pdfrwt>
<pdfrwt beam="2">  1       -2 0.27589399E+00 0.26319492E+04</pdfrwt>
<totfact> 0.10435019E+00</totfact>
</mgrwt>
</event>
<event>
12    1  0.2124316E-007  0.2318545E+04  0.7818608E-02  0.8470645E-01
          2   -1    0    0  501    0  0.00000000000E+00  0.00000000000E+00  0.11511476901E+04  0.11511476901E+04  0.00000000000E+00 0. -1.
         -2   -1    0    0    0  501 -0.00000000000E+00 -0.00000000000E+00 -0.11674544352E+04  0.11674544352E+04  0.00000000000E+00 0.  1.
         23    2    1    2    0    0  0.27711778573E+03  0.88075956485E+03  0.32816446023E+03  0.98388095564E+03  0.88307098644E+02 0.  0.
        254    2    1    2    0    0 -0.27711778573E+03 -0.88075956485E+03 -0.34447120528E+03  0.13347211697E+04  0.90016026980E+03 0.  0.
        -24    2    4    4    0    0 -0.17219218959E+03 -0.38248742187E+03 -0.61752719728E+03  0.75139116759E+03  0.85452146335E+02 0.  0.
         24    2    4    4    0    0 -0.10492559615E+03 -0.49827214298E+03  0.27305599199E+03  0.58333000211E+03  0.80186079838E+02 0.  0.
         11    1    3    3    0    0  0.85912906135E+02  0.39872862919E+03  0.16821773659E+03  0.44120602226E+03  0.00000000000E+00 0.  1.
        -11    1    3    3    0    0  0.19120487960E+03  0.48203093566E+03  0.15994672364E+03  0.54267493338E+03  0.00000000000E+00 0. -1.
          2    1    6    6  502    0 -0.78549266048E+02 -0.41063069256E+03  0.18805951076E+03  0.45842549281E+03  0.00000000000E+00 0. -1.
          1    1    5    5  503    0 -0.68405903534E+02 -0.15419460692E+03 -0.32433093357E+03  0.36557611918E+03  0.00000000000E+00 0. -1.
         -2    1    5    5    0  503 -0.10378628605E+03 -0.22829281496E+03 -0.29319626370E+03  0.38581504841E+03  0.00000000000E+00 0.  1.
         -1    1    6    6    0  502 -0.26376330100E+02 -0.87641450418E+02  0.84996481237E+02  0.12490450930E+03  0.00000000000E+00 0.  1.
<mgrwt>
<rscale>  0 0.23185448E+04</rscale>
<asrwt>0</asrwt>
<pdfrwt beam="1">  1        2 0.17709964E+00 0.23185448E+04</pdfrwt>
<pdfrwt beam="2">  1       -2 0.17960837E+00 0.23185448E+04</pdfrwt>
<totfact> 0.33478980E+00</totfact>
</mgrwt>
</event>
<event>
12    1  0.1960998E-007  0.2516030E+04  0.7818608E-02  0.8397297E-01
          1   -1    0    0  501    0  0.00000000000E+00  0.00000000000E+00  0.10756317267E+04  0.10756317267E+04  0.00000000000E+00 0. -1.
         -1   -1    0    0    0  501 -0.00000000000E+00 -0.00000000000E+00 -0.14713233384E+04  0.14713233384E+04  0.00000000000E+00 0.  1.
         23    2    1    2    0    0 -0.44514110440E+03  0.26500786289E+03 -0.11499578406E+04  0.12645484941E+04  0.91104821887E+02 0.  0.
        254    2    1    2    0    0  0.44514110440E+03 -0.26500786289E+03  0.75426622887E+03  0.12824065710E+04  0.89848166316E+03 0.  0.
        -24    2    4    4    0    0 -0.26229673041E+02  0.28559506393E+03  0.30321647152E+03  0.42499765066E+03  0.80188765883E+02 0.  0.
         24    2    4    4    0    0  0.47137077744E+03 -0.55060292682E+03  0.45104975735E+03  0.85740892032E+03  0.79688017817E+02 0.  0.
         13    1    3    3    0    0 -0.25562924494E+03  0.99422892796E+02 -0.60923160122E+03  0.66812750759E+03  0.00000000000E+00 0. -1.
        -13    1    3    3    0    0 -0.18951185946E+03  0.16558497010E+03 -0.54072623940E+03  0.59642098653E+03  0.00000000000E+00 0.  1.
          4    1    6    6  502    0  0.18405822623E+03 -0.19874315176E+03  0.21272870051E+03  0.34442672811E+03  0.00000000000E+00 0. -1.
          3    1    5    5  503    0 -0.12608848406E+01  0.45790521985E+01  0.36332141651E+02  0.36641261804E+02  0.00000000000E+00 0. -1.
         -4    1    5    5    0  503 -0.24968788201E+02  0.28101601173E+03  0.26688432987E+03  0.38835638885E+03  0.00000000000E+00 0.  1.
         -3    1    6    6    0  502  0.28731255121E+03 -0.35185977506E+03  0.23832105684E+03  0.51298219221E+03  0.00000000000E+00 0.  1.
<mgrwt>
<rscale>  0 0.25160303E+04</rscale>
<asrwt>0</asrwt>
<pdfrwt beam="1">  1        1 0.16548180E+00 0.25160303E+04</pdfrwt>
<pdfrwt beam="2">  1       -1 0.22635744E+00 0.25160303E+04</pdfrwt>
<totfact> 0.11712779E+00</totfact>
</mgrwt>
</event>
<event>
12    1  0.1960998E-007  0.1713100E+04  0.7818608E-02  0.8753928E-01
         -1   -1    0    0    0  501 -0.00000000000E+00  0.00000000000E+00  0.93808053776E+03  0.93808053776E+03  0.00000000000E+00 0.  1.
          1   -1    0    0  501    0  0.00000000000E+00 -0.00000000000E+00 -0.78210534392E+03  0.78210534392E+03  0.00000000000E+00 0. -1.
         23    2    1    2    0    0  0.58512246772E+03 -0.13592741517E+03  0.19165456126E+03  0.63686260448E+03  0.89542960176E+02 0.  0.
        254    2    1    2    0    0 -0.58512246772E+03  0.13592741517E+03 -0.35679367419E+02  0.10833232772E+04  0.90081726295E+03 0.  0.
        -24    2    4    4    0    0 -0.18151581896E+03  0.38984542914E+03 -0.30169816050E+03  0.53133768736E+03  0.79815454699E+02 0.  0.
         24    2    4    4    0    0 -0.40360664876E+03 -0.25391801398E+03  0.26601879308E+03  0.55198558983E+03  0.80928415074E+02 0.  0.
         11    1    3    3    0    0  0.28249302265E+02 -0.48436315429E+01  0.31895747411E+02  0.42881494236E+02  0.00000000000E+00 0.  1.
        -11    1    3    3    0    0  0.55687316545E+03 -0.13108378363E+03  0.15975881385E+03  0.59398111025E+03  0.00000000000E+00 0. -1.
          2    1    6    6  502    0 -0.33617466384E+03 -0.24327166142E+03  0.22021011938E+03  0.46977335230E+03  0.00000000000E+00 0. -1.
          3    1    5    5  503    0 -0.75665740058E+02  0.25147714410E+03 -0.19434114509E+03  0.32670252356E+03  0.00000000000E+00 0. -1.
         -4    1    5    5    0  503 -0.10585007890E+03  0.13836828504E+03 -0.10735701541E+03  0.20463516381E+03  0.00000000000E+00 0.  1.
         -1    1    6    6    0  502 -0.67431984922E+02 -0.10646352553E+02  0.45808673703E+02  0.82212237529E+02  0.00000000000E+00 0.  1.
<mgrwt>
<rscale>  0 0.17130999E+04</rscale>
<asrwt>0</asrwt>
<pdfrwt beam="1">  1        1 0.12032390E+00 0.17130999E+04</pdfrwt>
<pdfrwt beam="2">  1       -1 0.14432008E+00 0.17130999E+04</pdfrwt>
<totfact> 0.84317743E+00</totfact>
</mgrwt>
</event>
<event>
12    1  0.1960998E-007  0.1358648E+04  0.7818608E-02  0.8984308E-01
         -2   -1    0    0    0  501 -0.00000000000E+00  0.00000000000E+00  0.47166448080E+03  0.47166448080E+03  0.00000000000E+00 0.  1.
          2   -1    0    0  501    0  0.00000000000E+00 -0.00000000000E+00 -0.97840928144E+03  0.97840928144E+03  0.00000000000E+00 0. -1.
         23    2    1    2    0    0  0.44052561295E+02  0.15964681659E+03  0.21733966845E+03  0.28453560651E+03  0.79348885844E+02 0.  0.
        254    2    1    2    0    0 -0.44052561295E+02 -0.15964681659E+03 -0.72408446909E+03  0.11655381557E+04  0.89819437756E+03 0.  0.
        -24    2    4    4    0    0 -0.39765656212E+03  0.14084624033E+03 -0.44070420339E+03  0.61598898112E+03  0.85169391013E+02 0.  0.
         24    2    4    4    0    0  0.35360400082E+03 -0.30049305692E+03 -0.28338026570E+03  0.54954917461E+03  0.79800085691E+02 0.  0.
         11    1    3    3    0    0  0.59024238339E+02  0.15118839254E+03  0.17418070362E+03  0.23807710571E+03  0.00000000000E+00 0.  1.
        -11    1    3    3    0    0 -0.14971677044E+02  0.84584240468E+01  0.43158964832E+02  0.46458500796E+02  0.00000000000E+00 0. -1.
          2    1    6    6  502    0  0.34364560551E+03 -0.30532948071E+03 -0.27825863130E+03  0.53735115136E+03  0.00000000000E+00 0. -1.
          1    1    5    5  503    0 -0.22656918593E+03  0.11297407980E+03 -0.30129376406E+03  0.39354119350E+03  0.00000000000E+00 0. -1.
         -2    1    5    5    0  503 -0.17108737619E+03  0.27872160532E+02 -0.13941043933E+03  0.22244778762E+03  0.00000000000E+00 0.  1.
         -1    1    6    6    0  502  0.99583953083E+01  0.48364237938E+01 -0.51216344032E+01  0.12198023249E+02  0.00000000000E+00 0.  1.
<mgrwt>
<rscale>  0 0.13586477E+04</rscale>
<asrwt>0</asrwt>
<pdfrwt beam="1">  1        2 0.15052450E+00 0.13586477E+04</pdfrwt>
<pdfrwt beam="2">  1       -2 0.72563767E-01 0.13586477E+04</pdfrwt>
<totfact> 0.43629836E+01</totfact>
</mgrwt>
</event>
<event>
12    1  0.1960998E-007  0.2858359E+04  0.7818608E-02  0.8285376E-01
          2   -1    0    0  501    0  0.00000000000E+00  0.00000000000E+00  0.23318365133E+04  0.23318365133E+04  0.00000000000E+00 0. -1.
         -2   -1    0    0    0  501 -0.00000000000E+00 -0.00000000000E+00 -0.87594211886E+03  0.87594211886E+03  0.00000000000E+00 0.  1.
         23    2    1    2    0    0  0.10273520934E+04 -0.31449862859E+03 -0.13552080731E+03  0.10871387503E+04  0.95619359801E+02 0.  0.
        254    2    1    2    0    0 -0.10273520934E+04  0.31449862859E+03  0.15914152017E+04  0.21206398818E+04  0.90008302555E+03 0.  0.
        -24    2    4    4    0    0 -0.97337536154E+03  0.14141936411E+02  0.15036658533E+04  0.17929529367E+04  0.77521906553E+02 0.  0.
         24    2    4    4    0    0 -0.53976731877E+02  0.30035669218E+03  0.87749348454E+02  0.32768694516E+03  0.80939210212E+02 0.  0.
         13    1    3    3    0    0  0.18049280548E+03 -0.65225842811E+02  0.11208088364E+02  0.19224381562E+03  0.00000000000E+00 0. -1.
        -13    1    3    3    0    0  0.84685928794E+03 -0.24927278578E+03 -0.14672889567E+03  0.89489493469E+03  0.00000000000E+00 0.  1.
          2    1    6    6  502    0 -0.39531021481E+02  0.14796763468E+03  0.40167073138E+01  0.15320984469E+03  0.00000000000E+00 0. -1.
          1    1    5    5  503    0 -0.56101247144E+03  0.34011791593E+02  0.91838649933E+03  0.10767198137E+04  0.00000000000E+00 0. -1.
         -2    1    5    5    0  503 -0.41236289011E+03 -0.19869855183E+02  0.58527935396E+03  0.71623312298E+03  0.00000000000E+00 0.  1.
         -3    1    6    6    0  502 -0.14445710396E+02  0.15238905750E+03  0.83732641140E+02  0.17447710046E+03  0.00000000000E+00 0.  1.
<mgrwt>
<rscale>  0 0.28583588E+04</rscale>
<asrwt>0</asrwt>
<pdfrwt beam="1">  1        2 0.35874408E+00 0.28583588E+04</pdfrwt>
<pdfrwt beam="2">  1       -2 0.13476033E+00 0.28583588E+04</pdfrwt>
<totfact> 0.14922760E+00</totfact>
</mgrwt>
</event>
<event>
12    1  0.1960998E-007  0.1934404E+04  0.7818608E-02  0.8637918E-01
         -2   -1    0    0    0  501 -0.00000000000E+00  0.00000000000E+00  0.15625429937E+04  0.15625429937E+04  0.00000000000E+00 0.  1.
          2   -1    0    0  501    0  0.00000000000E+00 -0.00000000000E+00 -0.59869072044E+03  0.59869072044E+03  0.00000000000E+00 0. -1.
         23    2    1    2    0    0  0.23409910509E+03  0.27238449659E+03  0.11181695037E+04  0.11780537042E+04  0.92259341009E+02 0.  0.
        254    2    1    2    0    0 -0.23409910509E+03 -0.27238449659E+03 -0.15431723043E+03  0.98318000995E+03  0.90212716364E+03 0.  0.
        -24    2    4    4    0    0 -0.17308633179E+03 -0.10456726478E+03 -0.52325445922E+03  0.56629941406E+03  0.77502297775E+02 0.  0.
         24    2    4    4    0    0 -0.61012773294E+02 -0.16781723181E+03  0.36893722879E+03  0.41688059589E+03  0.76089228172E+02 0.  0.
         11    1    3    3    0    0 -0.26889203771E+01  0.14224486912E+02  0.16111772161E+02  0.21659998220E+02  0.00000000000E+00 0. -1.
        -11    1    3    3    0    0  0.23678802547E+03  0.25816000968E+03  0.11020577315E+04  0.11563937060E+04  0.00000000000E+00 0.  1.
          4    1    6    6  502    0  0.14318270986E+02 -0.45599625254E+02  0.64393810808E+02  0.80192902290E+02  0.00000000000E+00 0. -1.
          3    1    5    5  503    0 -0.12082078213E+03 -0.46612908943E+02 -0.24264579451E+03  0.27504073565E+03  0.00000000000E+00 0. -1.
         -2    1    5    5    0  503 -0.52265549669E+02 -0.57954355836E+02 -0.28060866470E+03  0.29125867841E+03  0.00000000000E+00 0.  1.
         -3    1    6    6    0  502 -0.75331044280E+02 -0.12221760656E+03  0.30454341798E+03  0.33668769360E+03  0.00000000000E+00 0.  1.
<mgrwt>
<rscale>  0 0.19344043E+04</rscale>
<asrwt>0</asrwt>
<pdfrwt beam="1">  1        2 0.92106265E-01 0.19344043E+04</pdfrwt>
<pdfrwt beam="2">  1       -2 0.24039123E+00 0.19344043E+04</pdfrwt>
<totfact> 0.34201119E+00</totfact>
</mgrwt>
</event>
<event>
12    1  0.1960998E-007  0.1774390E+04  0.7818608E-02  0.8720038E-01
         -2   -1    0    0    0  501 -0.00000000000E+00  0.00000000000E+00  0.14149027357E+04  0.14149027357E+04  0.00000000000E+00 0.  1.
          2   -1    0    0  501    0  0.00000000000E+00 -0.00000000000E+00 -0.55630311429E+03  0.55630311429E+03  0.00000000000E+00 0. -1.
         23    2    1    2    0    0  0.28588176030E+02 -0.43183820827E+03 -0.22583962753E+03  0.49662250202E+03  0.91262534607E+02 0.  0.
        254    2    1    2    0    0 -0.28588176030E+02  0.43183820827E+03  0.10844392490E+04  0.14745833480E+04  0.90060315541E+03 0.  0.
        -24    2    4    4    0    0 -0.25912701999E+03  0.10996412125E+03 -0.23945964581E+02  0.29496479263E+03  0.84805066014E+02 0.  0.
         24    2    4    4    0    0  0.23053884396E+03  0.32187408702E+03  0.11083852136E+04  0.11796185554E+04  0.78937114483E+02 0.  0.
         11    1    3    3    0    0  0.45978132706E+02 -0.31883796267E+03 -0.20075948928E+03  0.37957345490E+03  0.00000000000E+00 0. -1.
        -11    1    3    3    0    0 -0.17389956675E+02 -0.11300024560E+03 -0.25080138252E+02  0.11704904712E+03  0.00000000000E+00 0.  1.
          2    1    6    6  502    0  0.67500810884E+02  0.50221633018E+02  0.18074924484E+03  0.19937116493E+03  0.00000000000E+00 0. -1.
          1    1    5    5  503    0 -0.12706092648E+03  0.31384199962E+02  0.25879164131E+02  0.13341356071E+03  0.00000000000E+00 0. -1.
         -2    1    5    5    0  503 -0.13206609352E+03  0.78579921288E+02 -0.49825128711E+02  0.16155123193E+03  0.00000000000E+00 0.  1.
         -1    1    6    6    0  502  0.16303803308E+03  0.27165245400E+03  0.92763596872E+03  0.98024739043E+03  0.00000000000E+00 0.  1.
<mgrwt>
<rscale>  0 0.17743898E+04</rscale>
<asrwt>0</asrwt>
<pdfrwt beam="1">  1        2 0.85585095E-01 0.17743898E+04</pdfrwt>
<pdfrwt beam="2">  1       -2 0.21767734E+00 0.17743898E+04</pdfrwt>
<totfact> 0.52496265E+00</totfact>
</mgrwt>
</event>
<event>
12    1  0.1960998E-007  0.2477358E+04  0.7818608E-02  0.8411097E-01
         -2   -1    0    0    0  501 -0.00000000000E+00  0.00000000000E+00  0.89267983961E+03  0.89267983961E+03  0.00000000000E+00 0.  1.
          2   -1    0    0  501    0  0.00000000000E+00 -0.00000000000E+00 -0.17187859833E+04  0.17187859833E+04  0.00000000000E+00 0. -1.
         23    2    1    2    0    0 -0.86186864772E+03 -0.42464192823E+03  0.14470977712E+03  0.97609097220E+03  0.93136100852E+02 0.  0.
        254    2    1    2    0    0  0.86186864772E+03  0.42464192823E+03 -0.97081592076E+03  0.16353748507E+04  0.89934921862E+03 0.  0.
        -24    2    4    4    0    0  0.96009813374E+03  0.28828386474E+03 -0.48780302859E+03  0.11174203859E+04  0.76029672792E+02 0.  0.
         24    2    4    4    0    0 -0.98229486025E+02  0.13635806349E+03 -0.48301289217E+03  0.51795446471E+03  0.82053763492E+02 0.  0.
         13    1    3    3    0    0 -0.36795519110E+03 -0.14232841208E+03  0.89235236892E+02  0.40448897024E+03  0.00000000000E+00 0. -1.
        -13    1    3    3    0    0 -0.49391345662E+03 -0.28231351615E+03  0.55474540230E+02  0.57160200196E+03  0.00000000000E+00 0.  1.
          2    1    6    6  502    0 -0.10760588065E+03  0.12082066473E+03 -0.46517408494E+03  0.49250744957E+03  0.00000000000E+00 0. -1.
          3    1    5    5  503    0  0.88801112939E+03  0.28608369298E+03 -0.44629922831E+03  0.10342101559E+04  0.00000000000E+00 0. -1.
         -4    1    5    5    0  503  0.72087004353E+02  0.22001717592E+01 -0.41503800280E+02  0.83210230081E+02  0.00000000000E+00 0.  1.
         -1    1    6    6    0  502  0.93763946208E+01  0.15537398760E+02 -0.17838807231E+02  0.25447015144E+02  0.00000000000E+00 0.  1.
<mgrwt>
<rscale>  0 0.24773579E+04</rscale>
<asrwt>0</asrwt>
<pdfrwt beam="1">  1        2 0.26442861E+00 0.24773579E+04</pdfrwt>
<pdfrwt beam="2">  1       -2 0.13733536E+00 0.24773579E+04</pdfrwt>
<totfact> 0.32299076E+00</totfact>
</mgrwt>
</event>
<event>
12    1  0.1960998E-007  0.2533600E+04  0.7818608E-02  0.8391112E-01
         -1   -1    0    0    0  501 -0.00000000000E+00  0.00000000000E+00  0.63010346621E+03  0.63010346621E+03  0.00000000000E+00 0.  1.
          1   -1    0    0  501    0  0.00000000000E+00 -0.00000000000E+00 -0.25468556722E+04  0.25468556722E+04  0.00000000000E+00 0. -1.
         23    2    1    2    0    0 -0.52609656083E+03 -0.43690960517E+03 -0.19323806798E+04  0.20518437718E+04  0.91105312543E+02 0.  0.
        254    2    1    2    0    0  0.52609656083E+03  0.43690960517E+03  0.15628473844E+02  0.11251153665E+04  0.89329320181E+03 0.  0.
        -24    2    4    4    0    0  0.57890280652E+02  0.45801610228E+02  0.39008996541E+03  0.40483412900E+03  0.79192290009E+02 0.  0.
         24    2    4    4    0    0  0.46820628018E+03  0.39110799494E+03 -0.37446149157E+03  0.72028123753E+03  0.80006674466E+02 0.  0.
         11    1    3    3    0    0 -0.26642356605E+02 -0.54967847485E+02 -0.17920139747E+03  0.18932622713E+03  0.00000000000E+00 0.  1.
        -11    1    3    3    0    0 -0.49945420423E+03 -0.38194175769E+03 -0.17531792823E+04  0.18625175447E+04  0.00000000000E+00 0. -1.
          4    1    6    6  502    0  0.91534649357E+02  0.11655359934E+03 -0.73267703909E+02  0.16532238199E+03  0.00000000000E+00 0. -1.
          1    1    5    5  503    0  0.33856486461E+02  0.65402224808E+02  0.31689463608E+03  0.32533970410E+03  0.00000000000E+00 0. -1.
         -2    1    5    5    0  503  0.24033794191E+02 -0.19600614581E+02  0.73195329331E+02  0.79494424905E+02  0.00000000000E+00 0.  1.
         -3    1    6    6    0  502  0.37667163082E+03  0.27455439560E+03 -0.30119378766E+03  0.55495885553E+03  0.00000000000E+00 0.  1.
<mgrwt>
<rscale>  0 0.25336003E+04</rscale>
<asrwt>0</asrwt>
<pdfrwt beam="1">  1        1 0.39182395E+00 0.25336003E+04</pdfrwt>
<pdfrwt beam="2">  1       -1 0.96938995E-01 0.25336003E+04</pdfrwt>
<totfact> 0.11385466E+00</totfact>
</mgrwt>
</event>
<event>
12    1  0.1960998E-007  0.1474546E+04  0.7818608E-02  0.8901558E-01
          2   -1    0    0  501    0  0.00000000000E+00  0.00000000000E+00  0.14581702403E+04  0.14581702403E+04  0.00000000000E+00 0. -1.
         -2   -1    0    0    0  501 -0.00000000000E+00 -0.00000000000E+00 -0.37277629945E+03  0.37277629945E+03  0.00000000000E+00 0.  1.
         23    2    1    2    0    0  0.28917942057E+02 -0.37729877748E+03  0.66123919648E+03  0.76732825932E+03  0.91459104121E+02 0.  0.
        254    2    1    2    0    0 -0.28917942057E+02  0.37729877748E+03  0.42415474437E+03  0.10636182804E+04  0.89899164870E+03 0.  0.
        -24    2    4    4    0    0 -0.11561603070E+03  0.48969551812E+03 -0.94780825678E+02  0.51961903209E+03  0.88610194515E+02 0.  0.
         24    2    4    4    0    0  0.86698088647E+02 -0.11239674064E+03  0.51893557005E+03  0.54399924833E+03  0.80569662056E+02 0.  0.
         11    1    3    3    0    0  0.61987058844E+02 -0.25215958177E+03  0.42959145878E+03  0.50197178367E+03  0.00000000000E+00 0. -1.
        -11    1    3    3    0    0 -0.33069116786E+02 -0.12513919571E+03  0.23164773769E+03  0.26535647565E+03  0.00000000000E+00 0.  1.
          4    1    6    6  502    0  0.38231025479E+02 -0.35869267241E+02  0.78841631921E+02  0.94679557274E+02  0.00000000000E+00 0. -1.
          1    1    5    5  503    0 -0.51712457532E+02  0.14627206642E+03  0.84274935201E+01  0.15537283651E+03  0.00000000000E+00 0. -1.
         -2    1    5    5    0  503 -0.63903573172E+02  0.34342345170E+03 -0.10320831920E+03  0.36424619558E+03  0.00000000000E+00 0.  1.
         -3    1    6    6    0  502  0.48467063168E+02 -0.76527473400E+02  0.44009393813E+03  0.44931969106E+03  0.00000000000E+00 0.  1.
<mgrwt>
<rscale>  0 0.14745458E+04</rscale>
<asrwt>0</asrwt>
<pdfrwt beam="1">  1        2 0.22433388E+00 0.14745458E+04</pdfrwt>
<pdfrwt beam="2">  1       -2 0.57350201E-01 0.14745458E+04</pdfrwt>
<totfact> 0.36961748E+01</totfact>
</mgrwt>
</event>
<event>
12    1  0.1960998E-007  0.2146081E+04  0.7818608E-02  0.8541212E-01
         -2   -1    0    0    0  501 -0.00000000000E+00  0.00000000000E+00  0.77863641709E+03  0.77863641709E+03  0.00000000000E+00 0.  1.
          2   -1    0    0  501    0  0.00000000000E+00 -0.00000000000E+00 -0.14787593329E+04  0.14787593329E+04  0.00000000000E+00 0. -1.
         23    2    1    2    0    0 -0.53989845082E+03  0.57982414433E+03 -0.69373956583E+03  0.10570205534E+04  0.91276993926E+02 0.  0.
        254    2    1    2    0    0  0.53989845082E+03 -0.57982414433E+03 -0.63833499364E+01  0.12003751965E+04  0.90176132635E+03 0.  0.
        -24    2    4    4    0    0  0.26733888905E+03  0.17095891727E+03 -0.18644118951E+03  0.37757063164E+03  0.84274739618E+02 0.  0.
         24    2    4    4    0    0  0.27255956177E+03 -0.75078306161E+03  0.18005783957E+03  0.82280456488E+03  0.81379395958E+02 0.  0.
         11    1    3    3    0    0 -0.43674106509E+03  0.41934960427E+03 -0.50154870460E+03  0.78622385592E+03  0.00000000000E+00 0.  1.
        -11    1    3    3    0    0 -0.10315738573E+03  0.16047454006E+03 -0.19219086123E+03  0.27079669750E+03  0.00000000000E+00 0. -1.
          4    1    6    6  502    0  0.16685897083E+03 -0.34378243119E+03  0.95407599560E+02  0.39386658426E+03  0.00000000000E+00 0. -1.
          1    1    5    5  503    0 -0.33752613877E+01 -0.16768593387E+01 -0.11132565134E+02  0.11753223096E+02  0.00000000000E+00 0. -1.
         -2    1    5    5    0  503  0.27071415044E+03  0.17263577661E+03 -0.17530862437E+03  0.36581740854E+03  0.00000000000E+00 0.  1.
         -3    1    6    6    0  502  0.10570059094E+03 -0.40700063041E+03  0.84650240009E+02  0.42893798061E+03  0.00000000000E+00 0.  1.
<mgrwt>
<rscale>  0 0.21460810E+04</rscale>
<asrwt>0</asrwt>
<pdfrwt beam="1">  1        2 0.22750144E+00 0.21460810E+04</pdfrwt>
<pdfrwt beam="2">  1       -2 0.11979022E+00 0.21460810E+04</pdfrwt>
<totfact> 0.63908471E+00</totfact>
</mgrwt>
</event>
<event>
12    1  0.1960998E-007  0.2051934E+04  0.7818608E-02  0.8582717E-01
          2   -1    0    0  501    0  0.00000000000E+00  0.00000000000E+00  0.93194942717E+03  0.93194942717E+03  0.00000000000E+00 0. -1.
         -2   -1    0    0    0  501 -0.00000000000E+00 -0.00000000000E+00 -0.11294696042E+04  0.11294696042E+04  0.00000000000E+00 0.  1.
         23    2    1    2    0    0 -0.49255794530E+03 -0.83665493924E+02 -0.73980202474E+03  0.89746468454E+03  0.92317819683E+02 0.  0.
        254    2    1    2    0    0  0.49255794530E+03  0.83665493924E+02  0.54228184773E+03  0.11639543468E+04  0.90061472046E+03 0.  0.
        -24    2    4    4    0    0 -0.93063746445E+02  0.30800328574E+03  0.12130815945E+01  0.33152910984E+03  0.79894894536E+02 0.  0.
         24    2    4    4    0    0  0.58562169175E+03 -0.22433779182E+03  0.54106876614E+03  0.83242523697E+03  0.83043089851E+02 0.  0.
         11    1    3    3    0    0 -0.39741784418E+03 -0.31029202452E+02 -0.56114352967E+03  0.68832101171E+03  0.00000000000E+00 0. -1.
        -11    1    3    3    0    0 -0.95140101119E+02 -0.52636291471E+02 -0.17865849507E+03  0.20914367283E+03  0.00000000000E+00 0.  1.
          2    1    6    6  502    0  0.12023671615E+03 -0.56985815951E+02  0.15991310750E+03  0.20802993313E+03  0.00000000000E+00 0. -1.
          1    1    5    5  503    0  0.10673774347E+01 -0.47653465296E+01 -0.38620714824E+00  0.48986710541E+01  0.00000000000E+00 0. -1.
         -2    1    5    5    0  503 -0.94131123880E+02  0.31276863227E+03  0.15992887427E+01  0.32663043878E+03  0.00000000000E+00 0.  1.
         -3    1    6    6    0  502  0.46538497560E+03 -0.16735197586E+03  0.38115565864E+03  0.62439530384E+03  0.00000000000E+00 0.  1.
<mgrwt>
<rscale>  0 0.20519343E+04</rscale>
<asrwt>0</asrwt>
<pdfrwt beam="1">  1        2 0.14337683E+00 0.20519343E+04</pdfrwt>
<pdfrwt beam="2">  1       -2 0.17376455E+00 0.20519343E+04</pdfrwt>
<totfact> 0.51740596E+00</totfact>
</mgrwt>
</event>
<event>
12    1  0.1960998E-007  0.2071347E+04  0.7818608E-02  0.8573971E-01
         -1   -1    0    0    0  501 -0.00000000000E+00  0.00000000000E+00  0.14005975659E+04  0.14005975659E+04  0.00000000000E+00 0.  1.
          1   -1    0    0  501    0  0.00000000000E+00 -0.00000000000E+00 -0.76582987333E+03  0.76582987333E+03  0.00000000000E+00 0. -1.
         23    2    1    2    0    0  0.37074911058E+03 -0.72248190353E+03  0.42031753109E+02  0.81786617680E+03  0.87769077442E+02 0.  0.
        254    2    1    2    0    0 -0.37074911058E+03  0.72248190353E+03  0.59273593943E+03  0.13485612624E+04  0.89880285971E+03 0.  0.
        -24    2    4    4    0    0 -0.22806159418E+02 -0.58950694740E+02 -0.17047315771E+03  0.19925192896E+03  0.81516430102E+02 0.  0.
         24    2    4    4    0    0 -0.34794295116E+03  0.78143259827E+03  0.76320909714E+03  0.11493093334E+04  0.81991554958E+02 0.  0.
         13    1    3    3    0    0  0.14397181189E+03 -0.22534109480E+03  0.46534047393E+02  0.27142569736E+03  0.00000000000E+00 0.  1.
        -13    1    3    3    0    0  0.22677729870E+03 -0.49714080873E+03 -0.45022942843E+01  0.54644047944E+03  0.00000000000E+00 0. -1.
          4    1    6    6  502    0 -0.23507511632E+02  0.55738794903E+02  0.28524746905E+02  0.66881070165E+02  0.00000000000E+00 0. -1.
          3    1    5    5  503    0 -0.46734149174E+02 -0.54112199499E+02 -0.88793699291E+02  0.11400233273E+03  0.00000000000E+00 0. -1.
         -4    1    5    5    0  503  0.23927989757E+02 -0.48384952405E+01 -0.81679458415E+02  0.85249596227E+02  0.00000000000E+00 0.  1.
         -3    1    6    6    0  502 -0.32443543953E+03  0.72569380337E+03  0.73468435023E+03  0.10824282633E+04  0.00000000000E+00 0.  1.
<mgrwt>
<rscale>  0 0.20713469E+04</rscale>
<asrwt>0</asrwt>
<pdfrwt beam="1">  1        1 0.11781998E+00 0.20713469E+04</pdfrwt>
<pdfrwt beam="2">  1       -1 0.21547655E+00 0.20713469E+04</pdfrwt>
<totfact> 0.25790722E+00</totfact>
</mgrwt>
</event>
<event>
12    1  0.1960998E-007  0.2398344E+04  0.7818608E-02  0.8440124E-01
         -1   -1    0    0    0  501 -0.00000000000E+00  0.00000000000E+00  0.36583089918E+03  0.36583089918E+03  0.00000000000E+00 0.  1.
          1   -1    0    0  501    0  0.00000000000E+00 -0.00000000000E+00 -0.39308147221E+04  0.39308147221E+04  0.00000000000E+00 0. -1.
         23    2    1    2    0    0  0.48614018599E+03 -0.87367652923E+03 -0.11044815012E+04  0.14925321129E+04  0.90165200190E+02 0.  0.
        254    2    1    2    0    0 -0.48614018599E+03  0.87367652923E+03 -0.24605023217E+04  0.28041135084E+04  0.89963211077E+03 0.  0.
        -24    2    4    4    0    0 -0.37855591037E+03  0.10517462161E+04 -0.20865042927E+04  0.23685225761E+04  0.83212677894E+02 0.  0.
         24    2    4    4    0    0 -0.10758427562E+03 -0.17806968688E+03 -0.37399802899E+03  0.43559093226E+03  0.81127953495E+02 0.  0.
         11    1    3    3    0    0  0.16338901192E+03 -0.24332078812E+03 -0.27550926262E+03  0.40225157419E+03  0.00000000000E+00 0. -1.
        -11    1    3    3    0    0  0.32275117407E+03 -0.63035574111E+03 -0.82897223862E+03  0.10902805387E+04  0.00000000000E+00 0.  1.
          4    1    6    6  502    0  0.38912706655E+01 -0.53453928159E+02 -0.64904284261E+02  0.84172623450E+02  0.00000000000E+00 0. -1.
          3    1    5    5  503    0 -0.11492491735E+02  0.19701213572E+02 -0.71272653491E+02  0.74833189951E+02  0.00000000000E+00 0. -1.
         -4    1    5    5    0  503 -0.36706341864E+03  0.10320450025E+04 -0.20152316392E+04  0.22936893862E+04  0.00000000000E+00 0.  1.
         -3    1    6    6    0  502 -0.11147554628E+03 -0.12461575872E+03 -0.30909374473E+03  0.35141830881E+03  0.00000000000E+00 0.  1.
<mgrwt>
<rscale>  0 0.23983440E+04</rscale>
<asrwt>0</asrwt>
<pdfrwt beam="1">  1        1 0.60474077E+00 0.23983440E+04</pdfrwt>
<pdfrwt beam="2">  1       -1 0.56281673E-01 0.23983440E+04</pdfrwt>
<totfact> 0.31670647E-01</totfact>
</mgrwt>
</event>
<event>
12    1  0.1960998E-007  0.1605572E+04  0.7818608E-02  0.8817132E-01
         -2   -1    0    0    0  501 -0.00000000000E+00  0.00000000000E+00  0.64699711341E+03  0.64699711341E+03  0.00000000000E+00 0.  1.
          2   -1    0    0  501    0  0.00000000000E+00 -0.00000000000E+00 -0.99608684985E+03  0.99608684985E+03  0.00000000000E+00 0. -1.
         23    2    1    2    0    0  0.37229127247E+03 -0.16127578220E+03 -0.49651036643E+03  0.64783133342E+03  0.92478230469E+02 0.  0.
        254    2    1    2    0    0 -0.37229127247E+03  0.16127578220E+03  0.14742062999E+03  0.99525262984E+03  0.89676322715E+03 0.  0.
        -24    2    4    4    0    0  0.14744200062E+03 -0.19502447903E+03 -0.14597352379E+03  0.29548687971E+03  0.78933740965E+02 0.  0.
         24    2    4    4    0    0 -0.51973327309E+03  0.35630026124E+03  0.29339415378E+03  0.69976575013E+03  0.80742951802E+02 0.  0.
         11    1    3    3    0    0  0.37541744627E+03 -0.15405249093E+03 -0.47395488738E+03  0.62394203593E+03  0.00000000000E+00 0. -1.
        -11    1    3    3    0    0 -0.31261738080E+01 -0.72232912751E+01 -0.22555479048E+02  0.23889297491E+02  0.00000000000E+00 0.  1.
          4    1    6    6  502    0 -0.34627403805E+03  0.20204057943E+03  0.21391248676E+03  0.45440582870E+03  0.00000000000E+00 0. -1.
          1    1    5    5  503    0  0.10790383960E+03 -0.16919608810E+03 -0.14615856266E+03  0.24825970327E+03  0.00000000000E+00 0. -1.
         -4    1    5    5    0  503  0.39538161021E+02 -0.25828390927E+02  0.18503886532E+00  0.47227176437E+02  0.00000000000E+00 0.  1.
         -3    1    6    6    0  502 -0.17345923504E+03  0.15425968180E+03  0.79481667021E+02  0.24535992142E+03  0.00000000000E+00 0.  1.
<mgrwt>
<rscale>  0 0.16055719E+04</rscale>
<asrwt>0</asrwt>
<pdfrwt beam="1">  1        2 0.15324413E+00 0.16055719E+04</pdfrwt>
<pdfrwt beam="2">  1       -2 0.99538018E-01 0.16055719E+04</pdfrwt>
<totfact> 0.20284243E+01</totfact>
</mgrwt>
</event>
<event>
12    1  0.1960998E-007  0.3163805E+04  0.7818608E-02  0.8198442E-01
         -2   -1    0    0    0  501 -0.00000000000E+00  0.00000000000E+00  0.12809815351E+04  0.12809815351E+04  0.00000000000E+00 0.  1.
          2   -1    0    0  501    0  0.00000000000E+00 -0.00000000000E+00 -0.19535142899E+04  0.19535142899E+04  0.00000000000E+00 0. -1.
         23    2    1    2    0    0 -0.39211732521E+03  0.13645139188E+04  0.37076166844E+01  0.14224914060E+04  0.88395828134E+02 0.  0.
        254    2    1    2    0    0  0.39211732521E+03 -0.13645139188E+04 -0.67624037147E+03  0.18120044190E+04  0.90022482908E+03 0.  0.
        -24    2    4    4    0    0  0.59664901050E+03 -0.68074213790E+03 -0.60157802506E+03  0.10899082858E+04  0.81265314126E+02 0.  0.
         24    2    4    4    0    0 -0.20453168529E+03 -0.68377178094E+03 -0.74662346408E+02  0.72209613311E+03  0.80444395611E+02 0.  0.
         13    1    3    3    0    0 -0.26038439727E+03  0.91854782781E+03 -0.38862694323E+02  0.95553150410E+03  0.00000000000E+00 0. -1.
        -13    1    3    3    0    0 -0.13173292793E+03  0.44596609102E+03  0.42570311007E+02  0.46695990195E+03  0.00000000000E+00 0.  1.
          4    1    6    6  502    0 -0.14939900082E+03 -0.57081673040E+03 -0.84299054056E+02  0.59603534431E+03  0.00000000000E+00 0. -1.
          3    1    5    5  503    0  0.42749403362E+03 -0.53960316110E+03 -0.44798853296E+03  0.82135037950E+03  0.00000000000E+00 0. -1.
         -4    1    5    5    0  503  0.16915497687E+03 -0.14113897680E+03 -0.15358949211E+03  0.26855790634E+03  0.00000000000E+00 0.  1.
         -3    1    6    6    0  502 -0.55132684467E+02 -0.11295505054E+03  0.96367076473E+01  0.12606078880E+03  0.00000000000E+00 0.  1.
<mgrwt>
<rscale>  0 0.31638051E+04</rscale>
<asrwt>0</asrwt>
<pdfrwt beam="1">  1        2 0.30054066E+00 0.31638051E+04</pdfrwt>
<pdfrwt beam="2">  1       -2 0.19707408E+00 0.31638051E+04</pdfrwt>
<totfact> 0.83278665E-01</totfact>
</mgrwt>
</event>
<event>
12    1  0.3726224E-007  0.2365275E+04  0.7818608E-02  0.8452620E-01
          2   -1    0    0  501    0  0.00000000000E+00  0.00000000000E+00  0.30842314926E+04  0.30842314926E+04  0.00000000000E+00 0. -1.
         -2   -1    0    0    0  501 -0.00000000000E+00 -0.00000000000E+00 -0.45347811769E+03  0.45347811769E+03  0.00000000000E+00 0.  1.
         23    2    1    2    0    0 -0.42893157737E+03  0.80989525969E+03  0.17534094607E+04  0.19806552966E+04  0.92941042966E+02 0.  0.
        254    2    1    2    0    0  0.42893157737E+03 -0.80989525969E+03  0.87734391422E+03  0.15570543137E+04  0.90264786166E+03 0.  0.
        -24    2    4    4    0    0  0.46037377369E+03 -0.36418962372E+03  0.92724540630E+03  0.11004214785E+04  0.81026497020E+02 0.  0.
         24    2    4    4    0    0 -0.31442196323E+02 -0.44570563597E+03 -0.49901492078E+02  0.45663283521E+03  0.79882799369E+02 0.  0.
         13    1    3    3    0    0 -0.24382812869E+03  0.53189840301E+03  0.10514766838E+04  0.12033167845E+04  0.00000000000E+00 0.  1.
        -13    1    3    3    0    0 -0.18510344868E+03  0.27799685668E+03  0.70193277694E+03  0.77733851209E+03  0.00000000000E+00 0. -1.
          4    1    6    6  502    0  0.11207713619E+02 -0.31169860827E+03 -0.50738112187E+02  0.31599998618E+03  0.00000000000E+00 0. -1.
          1    1    5    5  503    0  0.41519086157E+03 -0.34393780184E+03  0.87973941249E+03  0.10318033228E+04  0.00000000000E+00 0. -1.
         -2    1    5    5    0  503  0.45182912119E+02 -0.20251821884E+02  0.47505993807E+02  0.68618155650E+02  0.00000000000E+00 0.  1.
         -3    1    6    6    0  502 -0.42649909942E+02 -0.13400702770E+03  0.83662010857E+00  0.14063284903E+03  0.00000000000E+00 0.  1.
<mgrwt>
<rscale>  0 0.23652750E+04</rscale>
<asrwt>0</asrwt>
<pdfrwt beam="1">  1        2 0.47449714E+00 0.23652750E+04</pdfrwt>
<pdfrwt beam="2">  1       -2 0.69765866E-01 0.23652750E+04</pdfrwt>
<totfact> 0.26028584E+00</totfact>
</mgrwt>
</event>
<event>
12    1  0.1960998E-007  0.1862266E+04  0.7818608E-02  0.8673870E-01
          2   -1    0    0  501    0  0.00000000000E+00  0.00000000000E+00  0.68737379443E+03  0.68737379443E+03  0.00000000000E+00 0. -1.
         -2   -1    0    0    0  501 -0.00000000000E+00 -0.00000000000E+00 -0.12613350671E+04  0.12613350671E+04  0.00000000000E+00 0.  1.
         23    2    1    2    0    0  0.69170406208E+03  0.44002913453E+02 -0.38070563772E+03  0.79601236487E+03  0.91148979900E+02 0.  0.
        254    2    1    2    0    0 -0.69170406208E+03 -0.44002913453E+02 -0.19325563498E+03  0.11526964967E+04  0.90053912030E+03 0.  0.
        -24    2    4    4    0    0 -0.37147526123E+03  0.36561556965E+03 -0.31339366778E+03  0.61290073533E+03  0.75915122869E+02 0.  0.
         24    2    4    4    0    0 -0.32022880084E+03 -0.40961848311E+03  0.12013803280E+03  0.53979576138E+03  0.81317467297E+02 0.  0.
         13    1    3    3    0    0  0.26383835616E+03 -0.26058654161E+02 -0.15731355623E+03  0.30828118109E+03  0.00000000000E+00 0. -1.
        -13    1    3    3    0    0  0.42786570592E+03  0.70061567615E+02 -0.22339208150E+03  0.48773118378E+03  0.00000000000E+00 0.  1.
          4    1    6    6  502    0 -0.12604091495E+03 -0.11301787212E+03  0.63379852455E+02  0.18076602933E+03  0.00000000000E+00 0. -1.
          1    1    5    5  503    0 -0.82586604963E+02  0.41809405932E+02 -0.48626090219E+02  0.10456132360E+03  0.00000000000E+00 0. -1.
         -2    1    5    5    0  503 -0.28888865627E+03  0.32380616372E+03 -0.26476757756E+03  0.50833941173E+03  0.00000000000E+00 0.  1.
         -3    1    6    6    0  502 -0.19418788589E+03 -0.29660061098E+03  0.56758180345E+02  0.35902973205E+03  0.00000000000E+00 0.  1.
<mgrwt>
<rscale>  0 0.18622660E+04</rscale>
<asrwt>0</asrwt>
<pdfrwt beam="1">  1        2 0.10574981E+00 0.18622660E+04</pdfrwt>
<pdfrwt beam="2">  1       -2 0.19405155E+00 0.18622660E+04</pdfrwt>
<totfact> 0.57312434E+00</totfact>
</mgrwt>
</event>
<event>
12    1  0.1960998E-007  0.1177766E+04  0.7818608E-02  0.9132544E-01
         -2   -1    0    0    0  501 -0.00000000000E+00  0.00000000000E+00  0.18189030112E+03  0.18189030112E+03  0.00000000000E+00 0.  1.
          2   -1    0    0  501    0  0.00000000000E+00 -0.00000000000E+00 -0.19065515323E+04  0.19065515323E+04  0.00000000000E+00 0. -1.
         23    2    1    2    0    0  0.10102299563E+03 -0.92472940913E+02 -0.70492360724E+03  0.72408416222E+03  0.92863833032E+02 0.  0.
        254    2    1    2    0    0 -0.10102299563E+03  0.92472940913E+02 -0.10197376240E+04  0.13643576712E+04  0.89601905273E+03 0.  0.
        -24    2    4    4    0    0  0.20305942359E+03 -0.19490472761E+03 -0.86084648426E+03  0.90932824380E+03  0.81241634374E+02 0.  0.
         24    2    4    4    0    0 -0.30408241923E+03  0.28737766852E+03 -0.15889113973E+03  0.45502942745E+03  0.82178729058E+02 0.  0.
         13    1    3    3    0    0  0.64313257914E+02 -0.10608929865E+03 -0.58199233180E+03  0.59506823870E+03  0.00000000000E+00 0. -1.
        -13    1    3    3    0    0  0.36709737721E+02  0.13616357733E+02 -0.12293127544E+03  0.12901592352E+03  0.00000000000E+00 0.  1.
          4    1    6    6  502    0 -0.24480088049E+03  0.25506499163E+03 -0.10545547076E+03  0.36892611368E+03  0.00000000000E+00 0. -1.
          3    1    5    5  503    0  0.17437893662E+03 -0.15904274333E+03 -0.60522977713E+03  0.64961965092E+03  0.00000000000E+00 0. -1.
         -4    1    5    5    0  503  0.28680486974E+02 -0.35861984278E+02 -0.25561670713E+03  0.25970859288E+03  0.00000000000E+00 0.  1.
         -3    1    6    6    0  502 -0.59281538732E+02  0.32312676896E+02 -0.53435668973E+02  0.86103313764E+02  0.00000000000E+00 0.  1.
<mgrwt>
<rscale>  0 0.11777661E+04</rscale>
<asrwt>0</asrwt>
<pdfrwt beam="1">  1        2 0.29331562E+00 0.11777661E+04</pdfrwt>
<pdfrwt beam="2">  1       -2 0.27983123E-01 0.11777661E+04</pdfrwt>
<totfact> 0.86911027E+01</totfact>
</mgrwt>
</event>
<event>
12    1  0.1960998E-007  0.1286697E+04  0.7818608E-02  0.9040182E-01
          2   -1    0    0  501    0  0.00000000000E+00  0.00000000000E+00  0.10748926008E+04  0.10748926008E+04  0.00000000000E+00 0. -1.
         -2   -1    0    0    0  501 -0.00000000000E+00 -0.00000000000E+00 -0.38505904459E+03  0.38505904459E+03  0.00000000000E+00 0.  1.
         23    2    1    2    0    0 -0.26532466368E+03  0.66313002502E+01  0.37880279107E+03  0.47136355094E+03  0.90834417067E+02 0.  0.
        254    2    1    2    0    0  0.26532466368E+03 -0.66313002502E+01  0.31103076517E+03  0.98858809449E+03  0.90006951530E+03 0.  0.
        -24    2    4    4    0    0  0.47932639438E+03  0.22199318678E+03 -0.71221433429E+01  0.53449693103E+03  0.81249474057E+02 0.  0.
         24    2    4    4    0    0 -0.21400173069E+03 -0.22862448703E+03  0.31815290851E+03  0.45409116345E+03  0.83136121623E+02 0.  0.
         11    1    3    3    0    0 -0.98308636119E+02  0.18152279646E+02  0.76808420442E+02  0.12606992759E+03  0.00000000000E+00 0.  1.
        -11    1    3    3    0    0 -0.16701602756E+03 -0.11520979396E+02  0.30199437063E+03  0.34529362334E+03  0.00000000000E+00 0. -1.
          2    1    6    6  502    0 -0.99811225657E+01 -0.29721673471E+02  0.68201225424E+02  0.75062692670E+02  0.00000000000E+00 0. -1.
          1    1    5    5  503    0  0.32922702781E+02  0.29191515989E+02 -0.19387132385E+02  0.48082323845E+02  0.00000000000E+00 0. -1.
         -2    1    5    5    0  503  0.44640369159E+03  0.19280167079E+03  0.12264989042E+02  0.48641460719E+03  0.00000000000E+00 0.  1.
         -1    1    6    6    0  502 -0.20402060813E+03 -0.19890281356E+03  0.24995168309E+03  0.37902847078E+03  0.00000000000E+00 0.  1.
<mgrwt>
<rscale>  0 0.12866967E+04</rscale>
<asrwt>0</asrwt>
<pdfrwt beam="1">  1        2 0.16536809E+00 0.12866967E+04</pdfrwt>
<pdfrwt beam="2">  1       -2 0.59239854E-01 0.12866967E+04</pdfrwt>
<totfact> 0.58950364E+01</totfact>
</mgrwt>
</event>
<event>
12    1  0.1960998E-007  0.1595283E+04  0.7818608E-02  0.8823451E-01
          1   -1    0    0  501    0  0.00000000000E+00  0.00000000000E+00  0.70467608865E+03  0.70467608865E+03  0.00000000000E+00 0. -1.
         -1   -1    0    0    0  501 -0.00000000000E+00 -0.00000000000E+00 -0.90287205377E+03  0.90287205377E+03  0.00000000000E+00 0.  1.
         23    2    1    2    0    0  0.32175708304E+03  0.25272231271E+03 -0.42014312996E+03  0.59349939251E+03  0.91241938952E+02 0.  0.
        254    2    1    2    0    0 -0.32175708304E+03 -0.25272231271E+03  0.22194716484E+03  0.10140487499E+04  0.90090961555E+03 0.  0.
        -24    2    4    4    0    0 -0.48675547542E+03 -0.22205216368E+03  0.46098542601E+03  0.71053290464E+03  0.78175375601E+02 0.  0.
         24    2    4    4    0    0  0.16499839237E+03 -0.30670149032E+02 -0.23903826117E+03  0.30351584527E+03  0.82567853908E+02 0.  0.
         13    1    3    3    0    0  0.99010960423E+02  0.56282861786E+02 -0.17301791826E+03  0.20713795127E+03  0.00000000000E+00 0.  1.
        -13    1    3    3    0    0  0.22274612262E+03  0.19643945092E+03 -0.24712521170E+03  0.38636144124E+03  0.00000000000E+00 0. -1.
          2    1    6    6  502    0  0.36348956536E+02 -0.42639972513E+02 -0.53876246524E+02  0.77730713599E+02  0.00000000000E+00 0. -1.
          3    1    5    5  503    0 -0.18168509001E+03 -0.42471645101E+02  0.15236580883E+03  0.24089137027E+03  0.00000000000E+00 0. -1.
         -4    1    5    5    0  503 -0.30507038540E+03 -0.17958051858E+03  0.30861961718E+03  0.46964153437E+03  0.00000000000E+00 0.  1.
         -1    1    6    6    0  502  0.12864943584E+03  0.11969823481E+02 -0.18516201464E+03  0.22578513167E+03  0.00000000000E+00 0.  1.
<mgrwt>
<rscale>  0 0.15952835E+04</rscale>
<asrwt>0</asrwt>
<pdfrwt beam="1">  1        1 0.10841171E+00 0.15952835E+04</pdfrwt>
<pdfrwt beam="2">  1       -1 0.13890339E+00 0.15952835E+04</pdfrwt>
<totfact> 0.11078181E+01</totfact>
</mgrwt>
</event>
<event>
12    1  0.2121603E-007  0.3020882E+04  0.7818608E-02  0.8237793E-01
          1   -1    0    0  501    0  0.00000000000E+00  0.00000000000E+00  0.21594911803E+04  0.21594911803E+04  0.00000000000E+00 0. -1.
         -1   -1    0    0    0  501 -0.00000000000E+00 -0.00000000000E+00 -0.10564675548E+04  0.10564675548E+04  0.00000000000E+00 0.  1.
         23    2    1    2    0    0 -0.41662191605E+03  0.12676514079E+04  0.84937646320E+03  0.15864015187E+04  0.12130741714E+03 0.  0.
        254    2    1    2    0    0  0.41662191605E+03 -0.12676514079E+04  0.25364716227E+03  0.16295572163E+04  0.90033656240E+03 0.  0.
        -24    2    4    4    0    0  0.57352321922E+03 -0.48477404751E+03  0.32849555352E+03  0.82356701434E+03  0.80115780574E+02 0.  0.
         24    2    4    4    0    0 -0.15690130317E+03 -0.78287736037E+03 -0.74848391249E+02  0.80599020201E+03  0.80640831786E+02 0.  0.
         11    1    3    3    0    0 -0.27450722275E+03  0.88585572773E+03  0.52541445631E+03  0.10659056884E+04  0.00000000000E+00 0. -1.
        -11    1    3    3    0    0 -0.14211469330E+03  0.38179568014E+03  0.32396200689E+03  0.52049583028E+03  0.00000000000E+00 0.  1.
          2    1    6    6  502    0 -0.24869695589E+02 -0.32524377330E+03 -0.32840279781E+02  0.32784218430E+03  0.00000000000E+00 0. -1.
          1    1    5    5  503    0  0.27712245792E+03 -0.22603477364E+03  0.19959379215E+03  0.40954396278E+03  0.00000000000E+00 0. -1.
         -2    1    5    5    0  503  0.29640076130E+03 -0.25873927387E+03  0.12890176136E+03  0.41402305156E+03  0.00000000000E+00 0.  1.
         -1    1    6    6    0  502 -0.13203160758E+03 -0.45763358706E+03 -0.42008111468E+02  0.47814801771E+03  0.00000000000E+00 0.  1.
<mgrwt>
<rscale>  0 0.30208822E+04</rscale>
<asrwt>0</asrwt>
<pdfrwt beam="1">  1        1 0.33222941E+00 0.30208822E+04</pdfrwt>
<pdfrwt beam="2">  1       -1 0.16253347E+00 0.30208822E+04</pdfrwt>
<totfact> 0.55146896E-01</totfact>
</mgrwt>
</event>
<event>
12    1  0.1960998E-007  0.2175700E+04  0.7818608E-02  0.8528611E-01
          1   -1    0    0  501    0  0.00000000000E+00  0.00000000000E+00  0.46342685849E+04  0.46342685849E+04  0.00000000000E+00 0. -1.
         -1   -1    0    0    0  501 -0.00000000000E+00 -0.00000000000E+00 -0.25536244088E+03  0.25536244088E+03  0.00000000000E+00 0.  1.
         23    2    1    2    0    0  0.46195402520E+03 -0.29699285925E+03  0.34220834575E+04  0.34671647785E+04  0.94710775718E+02 0.  0.
        254    2    1    2    0    0 -0.46195402520E+03  0.29699285925E+03  0.95682268653E+03  0.14224662473E+04  0.89793891300E+03 0.  0.
        -24    2    4    4    0    0 -0.55022314324E+03 -0.11081494765E+03  0.77380193422E+03  0.95932781506E+03  0.80715322927E+02 0.  0.
         24    2    4    4    0    0  0.88269118042E+02  0.40780780690E+03  0.18302075231E+03  0.46313843227E+03  0.83078078335E+02 0.  0.
         13    1    3    3    0    0  0.16043192040E+03 -0.90757721922E+02  0.14339998471E+04  0.14457976783E+04  0.00000000000E+00 0.  1.
        -13    1    3    3    0    0  0.30152210480E+03 -0.20623513732E+03  0.19880836105E+04  0.20213671002E+04  0.00000000000E+00 0. -1.
          4    1    6    6  502    0  0.85053657966E+02  0.20423023949E+03  0.82957056618E+02  0.23627523928E+03  0.00000000000E+00 0. -1.
          1    1    5    5  503    0 -0.41715343730E+03 -0.93788278258E+02  0.52910470272E+03  0.68026834251E+03  0.00000000000E+00 0. -1.
         -2    1    5    5    0  503 -0.13306970594E+03 -0.17026669396E+02  0.24469723150E+03  0.27905947254E+03  0.00000000000E+00 0.  1.
         -3    1    6    6    0  502  0.32154600759E+01  0.20357756741E+03  0.10006369570E+03  0.22686319299E+03  0.00000000000E+00 0.  1.
<mgrwt>
<rscale>  0 0.21757005E+04</rscale>
<asrwt>0</asrwt>
<pdfrwt beam="1">  1        1 0.71296434E+00 0.21757005E+04</pdfrwt>
<pdfrwt beam="2">  1       -1 0.39286533E-01 0.21757005E+04</pdfrwt>
<totfact> 0.13529288E-01</totfact>
</mgrwt>
</event>
<event>
12    1  0.1960998E-007  0.3535729E+04  0.7818608E-02  0.8105375E-01
         -1   -1    0    0    0  501 -0.00000000000E+00  0.00000000000E+00  0.32708617520E+04  0.32708617520E+04  0.00000000000E+00 0.  1.
          1   -1    0    0  501    0  0.00000000000E+00 -0.00000000000E+00 -0.95551100803E+03  0.95551100803E+03  0.00000000000E+00 0. -1.
         23    2    1    2    0    0 -0.15117032643E+04 -0.24291524581E+03  0.18265209095E+04  0.23851101655E+04  0.91199192249E+02 0.  0.
        254    2    1    2    0    0  0.15117032643E+04  0.24291524581E+03  0.48882983447E+03  0.18412625945E+04  0.89835335966E+03 0.  0.
        -24    2    4    4    0    0  0.10478555043E+04  0.57628167186E+03  0.32612846664E+03  0.12421016747E+04  0.79718694245E+02 0.  0.
         24    2    4    4    0    0  0.46384776001E+03 -0.33336642606E+03  0.16270136784E+03  0.59916091983E+03  0.78956660699E+02 0.  0.
         11    1    3    3    0    0 -0.14472836370E+04 -0.22176203757E+03  0.17195936991E+04  0.22584974690E+04  0.00000000000E+00 0. -1.
        -11    1    3    3    0    0 -0.64419627319E+02 -0.21153208237E+02  0.10692721037E+03  0.12661269652E+03  0.00000000000E+00 0.  1.
          4    1    6    6  502    0  0.33256697429E+03 -0.21737728875E+03  0.14560531742E+03  0.42314842137E+03  0.00000000000E+00 0. -1.
          3    1    5    5  503    0  0.84654865962E+03  0.49946895335E+03  0.27496385100E+03  0.10206463579E+04  0.00000000000E+00 0. -1.
         -4    1    5    5    0  503  0.20130684472E+03  0.76812718515E+02  0.51164615636E+02  0.22145531683E+03  0.00000000000E+00 0.  1.
         -3    1    6    6    0  502  0.13128078573E+03 -0.11598913731E+03  0.17096050420E+02  0.17601249846E+03  0.00000000000E+00 0.  1.
<mgrwt>
<rscale>  0 0.35357287E+04</rscale>
<asrwt>0</asrwt>
<pdfrwt beam="1">  1        1 0.14700169E+00 0.35357287E+04</pdfrwt>
<pdfrwt beam="2">  1       -1 0.50320950E+00 0.35357287E+04</pdfrwt>
<totfact> 0.18946914E-02</totfact>
</mgrwt>
</event>
<event>
12    1  0.1960998E-007  0.2461987E+04  0.7818608E-02  0.8416655E-01
          3   -1    0    0  501    0  0.00000000000E+00  0.00000000000E+00  0.10290413902E+04  0.10290413902E+04  0.00000000000E+00 0. -1.
         -3   -1    0    0    0  501 -0.00000000000E+00 -0.00000000000E+00 -0.14725787143E+04  0.14725787143E+04  0.00000000000E+00 0.  1.
         23    2    1    2    0    0  0.87397336387E+03 -0.19899607113E+03 -0.77527438710E+03  0.11887033014E+04  0.92392025827E+02 0.  0.
        254    2    1    2    0    0 -0.87397336387E+03  0.19899607113E+03  0.33173706298E+03  0.13129168031E+04  0.90015119612E+03 0.  0.
        -24    2    4    4    0    0 -0.96418433034E+03  0.37815812098E+02  0.46189388153E+03  0.10726261999E+04  0.78099605294E+02 0.  0.
         24    2    4    4    0    0  0.90210966473E+02  0.16118025903E+03 -0.13015681855E+03  0.24029060324E+03  0.81741557477E+02 0.  0.
         13    1    3    3    0    0  0.78732864633E+02  0.68835030208E+01 -0.80753199138E+02  0.11299259161E+03  0.00000000000E+00 0. -1.
        -13    1    3    3    0    0  0.79524049923E+03 -0.20587957415E+03 -0.69452118796E+03  0.10757107098E+04  0.00000000000E+00 0.  1.
          2    1    6    6  502    0  0.85138069989E+02  0.13265999392E+03 -0.67915106860E+02  0.17163806888E+03  0.00000000000E+00 0. -1.
          3    1    5    5  503    0 -0.90042760145E+03  0.18179743393E+02  0.41894981427E+03  0.99328712636E+03  0.00000000000E+00 0. -1.
         -4    1    5    5    0  503 -0.63756728894E+02  0.19636068705E+02  0.42944067263E+02  0.79339073517E+02  0.00000000000E+00 0.  1.
         -1    1    6    6    0  502  0.50728964839E+01  0.28520265111E+02 -0.62241711688E+02  0.68652534364E+02  0.00000000000E+00 0.  1.
<mgrwt>
<rscale>  0 0.24619866E+04</rscale>
<asrwt>0</asrwt>
<pdfrwt beam="1">  1        3 0.15831406E+00 0.24619866E+04</pdfrwt>
<pdfrwt beam="2">  1       -3 0.22655057E+00 0.24619866E+04</pdfrwt>
<totfact> 0.65817733E-02</totfact>
</mgrwt>
</event>
<event>
12    1  0.1960998E-007  0.2246763E+04  0.7818608E-02  0.8499213E-01
         -2   -1    0    0    0  501 -0.00000000000E+00  0.00000000000E+00  0.54416785233E+03  0.54416785233E+03  0.00000000000E+00 0.  1.
          2   -1    0    0  501    0  0.00000000000E+00 -0.00000000000E+00 -0.23191106356E+04  0.23191106356E+04  0.00000000000E+00 0. -1.
         23    2    1    2    0    0 -0.74881776184E+03 -0.48311324697E+03 -0.11354815027E+04  0.14463305315E+04  0.91800400911E+02 0.  0.
        254    2    1    2    0    0  0.74881776184E+03  0.48311324697E+03 -0.63946128054E+03  0.14169479564E+04  0.89705313771E+03 0.  0.
        -24    2    4    4    0    0 -0.11677004080E+03 -0.13591549310E+03 -0.70651492790E+02  0.20764336815E+03  0.77562047477E+02 0.  0.
         24    2    4    4    0    0  0.86558780265E+03  0.61902874007E+03 -0.56880978775E+03  0.12093045882E+04  0.80213386165E+02 0.  0.
         13    1    3    3    0    0 -0.55542530542E+03 -0.38247264085E+03 -0.80115085768E+03  0.10471987813E+04  0.00000000000E+00 0. -1.
        -13    1    3    3    0    0 -0.19339245643E+03 -0.10064060613E+03 -0.33433064502E+03  0.39913175018E+03  0.00000000000E+00 0.  1.
          4    1    6    6  502    0  0.28910624654E+03  0.18247115056E+03 -0.14694588250E+03  0.37211723282E+03  0.00000000000E+00 0. -1.
          1    1    5    5  503    0 -0.10509280691E+03 -0.65416790571E+02 -0.45524306131E+02  0.13189509847E+03  0.00000000000E+00 0. -1.
         -2    1    5    5    0  503 -0.11677233897E+02 -0.70498702526E+02 -0.25127186659E+02  0.75748269675E+02  0.00000000000E+00 0.  1.
         -3    1    6    6    0  502  0.57648155610E+03  0.43655758951E+03 -0.42186390525E+03  0.83718735540E+03  0.00000000000E+00 0.  1.
<mgrwt>
<rscale>  0 0.22467625E+04</rscale>
<asrwt>0</asrwt>
<pdfrwt beam="1">  1        2 0.35678625E+00 0.22467625E+04</pdfrwt>
<pdfrwt beam="2">  1       -2 0.83718132E-01 0.22467625E+04</pdfrwt>
<totfact> 0.50213177E+00</totfact>
</mgrwt>
</event>
<event>
12    1  0.2694371E-007  0.3398759E+04  0.7818608E-02  0.8138211E-01
         -2   -1    0    0    0  501 -0.00000000000E+00  0.00000000000E+00  0.18292878916E+04  0.18292878916E+04  0.00000000000E+00 0.  1.
          2   -1    0    0  501    0  0.00000000000E+00 -0.00000000000E+00 -0.15786966592E+04  0.15786966592E+04  0.00000000000E+00 0. -1.
         23    2    1    2    0    0  0.46763542510E+03 -0.13648220279E+04  0.76061585695E+03  0.16332418012E+04  0.86719320744E+02 0.  0.
        254    2    1    2    0    0 -0.46763542510E+03  0.13648220279E+04 -0.51002462460E+03  0.17747427496E+04  0.89897978343E+03 0.  0.
        -24    2    4    4    0    0 -0.71641827204E+03  0.10309113160E+04 -0.26473221838E+03  0.12854720000E+04  0.79509957220E+02 0.  0.
         24    2    4    4    0    0  0.24878284694E+03  0.33391071188E+03 -0.24529240621E+03  0.48927074964E+03  0.76342867812E+02 0.  0.
         13    1    3    3    0    0  0.19108463342E+03 -0.61420165272E+03  0.29504308008E+03  0.70767748758E+03  0.00000000000E+00 0. -1.
        -13    1    3    3    0    0  0.27655079168E+03 -0.75062037518E+03  0.46557277687E+03  0.92556431358E+03  0.00000000000E+00 0.  1.
          2    1    6    6  502    0  0.15189871710E+03  0.14564066924E+03 -0.10412557589E+03  0.23479046051E+03  0.00000000000E+00 0. -1.
          1    1    5    5  503    0 -0.65153343321E+03  0.95303476056E+03 -0.26327606426E+03  0.11840968522E+04  0.00000000000E+00 0. -1.
         -2    1    5    5    0  503 -0.64884838835E+02  0.77876555452E+02 -0.14561541231E+01  0.10137514777E+03  0.00000000000E+00 0.  1.
         -1    1    6    6    0  502  0.96884129845E+02  0.18827004264E+03 -0.14116683033E+03  0.25448028913E+03  0.00000000000E+00 0.  1.
<mgrwt>
<rscale>  0 0.33987590E+04</rscale>
<asrwt>0</asrwt>
<pdfrwt beam="1">  1        2 0.24287641E+00 0.33987590E+04</pdfrwt>
<pdfrwt beam="2">  1       -2 0.28142891E+00 0.33987590E+04</pdfrwt>
<totfact> 0.39198655E-01</totfact>
</mgrwt>
</event>
<event>
12    1  0.1960998E-007  0.1639934E+04  0.7818608E-02  0.8796384E-01
         -1   -1    0    0    0  501 -0.00000000000E+00  0.00000000000E+00  0.58939366471E+03  0.58939366471E+03  0.00000000000E+00 0.  1.
          1   -1    0    0  501    0  0.00000000000E+00 -0.00000000000E+00 -0.11407418205E+04  0.11407418205E+04  0.00000000000E+00 0. -1.
         23    2    1    2    0    0 -0.39730977551E+03 -0.10892612155E+03 -0.60668528793E+03  0.74052219230E+03  0.10288887710E+03 0.  0.
        254    2    1    2    0    0  0.39730977551E+03  0.10892612155E+03  0.55337132118E+02  0.98961329294E+03  0.89808257621E+03 0.  0.
        -24    2    4    4    0    0 -0.23959741589E+03 -0.51051667198E+02  0.18257238536E+03  0.31598882441E+03  0.80641594940E+02 0.  0.
         24    2    4    4    0    0  0.63690719140E+03  0.15997778875E+03 -0.12723525324E+03  0.67362446852E+03  0.79608112516E+02 0.  0.
         11    1    3    3    0    0 -0.83064553214E+02 -0.17894555014E+02 -0.20863234781E+03  0.22527181726E+03  0.00000000000E+00 0. -1.
        -11    1    3    3    0    0 -0.31424522230E+03 -0.91031566535E+02 -0.39805294012E+03  0.51525037504E+03  0.00000000000E+00 0.  1.
          2    1    6    6  502    0  0.24718381464E+03  0.81652878275E+02 -0.15874856309E+02  0.26080460467E+03  0.00000000000E+00 0. -1.
          3    1    5    5  503    0  0.56044651744E+01 -0.49956393687E+01  0.10526553674E+02  0.12929608457E+02  0.00000000000E+00 0. -1.
         -4    1    5    5    0  503 -0.24520188106E+03 -0.46056027829E+02  0.17204583169E+03  0.30305921596E+03  0.00000000000E+00 0.  1.
         -1    1    6    6    0  502  0.38972337675E+03  0.78324910472E+02 -0.11136039693E+03  0.41281986386E+03  0.00000000000E+00 0.  1.
<mgrwt>
<rscale>  0 0.16399341E+04</rscale>
<asrwt>0</asrwt>
<pdfrwt beam="1">  1        1 0.17549874E+00 0.16399341E+04</pdfrwt>
<pdfrwt beam="2">  1       -1 0.90675949E-01 0.16399341E+04</pdfrwt>
<totfact> 0.13430703E+01</totfact>
</mgrwt>
</event>
<event>
12    1  0.1960998E-007  0.2135561E+04  0.7818608E-02  0.8545738E-01
         -2   -1    0    0    0  501 -0.00000000000E+00  0.00000000000E+00  0.76022180378E+03  0.76022180378E+03  0.00000000000E+00 0. -1.
          2   -1    0    0  501    0  0.00000000000E+00 -0.00000000000E+00 -0.14997669813E+04  0.14997669813E+04  0.00000000000E+00 0.  1.
         23    2    1    2    0    0 -0.40346578282E+03  0.42928006062E+03  0.38146065595E+03  0.70621622676E+03  0.78505531945E+02 0.  0.
        254    2    1    2    0    0  0.40346578282E+03 -0.42928006062E+03 -0.11210058335E+04  0.15537725583E+04  0.90027166784E+03 0.  0.
        -24    2    4    4    0    0  0.64225530394E+03 -0.44319099678E+03 -0.64693271860E+03  0.10167511177E+04  0.79691642459E+02 0.  0.
         24    2    4    4    0    0 -0.23878952112E+03  0.13910936160E+02 -0.47407311486E+03  0.53702144060E+03  0.80204487966E+02 0.  0.
         11    1    3    3    0    0 -0.19987362773E+03  0.17601666238E+03  0.13644977233E+03  0.29924884772E+03  0.00000000000E+00 0. -1.
        -11    1    3    3    0    0 -0.20359215509E+03  0.25326339825E+03  0.24501088363E+03  0.40696737904E+03  0.00000000000E+00 0.  1.
          2    1    6    6  502    0 -0.18458004683E+03  0.42735526246E+02 -0.38122798842E+03  0.42571222445E+03  0.00000000000E+00 0. -1.
          3    1    5    5  503    0  0.17547541410E+03 -0.16179587151E+03 -0.21649834604E+03  0.32224378789E+03  0.00000000000E+00 0. -1.
         -4    1    5    5    0  503  0.46677988984E+03 -0.28139512527E+03 -0.43043437256E+03  0.69450732981E+03  0.00000000000E+00 0.  1.
         -3    1    6    6    0  502 -0.54209474293E+02 -0.28824590085E+02 -0.92845126442E+02  0.11130921615E+03  0.00000000000E+00 0.  1.
<mgrwt>
<rscale>  0 0.21355613E+04</rscale>
<asrwt>0</asrwt>
<pdfrwt beam="1">  1        2 0.23073338E+00 0.21355613E+04</pdfrwt>
<pdfrwt beam="2">  1       -2 0.11695720E+00 0.21355613E+04</pdfrwt>
<totfact> 0.66024310E+00</totfact>
</mgrwt>
</event>
<event>
12    1  0.1960998E-007  0.1890452E+04  0.7818608E-02  0.8659624E-01
         -1   -1    0    0    0  501 -0.00000000000E+00  0.00000000000E+00  0.37863682653E+03  0.37863682653E+03  0.00000000000E+00 0.  1.
          1   -1    0    0  501    0  0.00000000000E+00 -0.00000000000E+00 -0.23596539990E+04  0.23596539990E+04  0.00000000000E+00 0. -1.
         23    2    1    2    0    0 -0.24154626426E+03  0.55764381933E+03 -0.13652697283E+04  0.14972868516E+04  0.92710613747E+02 0.  0.
        254    2    1    2    0    0  0.24154626426E+03 -0.55764381933E+03 -0.61574744420E+03  0.12410039740E+04  0.88973856911E+03 0.  0.
        -24    2    4    4    0    0 -0.39619767607E+01 -0.72397981911E+03 -0.58043806385E+03  0.93168226466E+03  0.83432730873E+02 0.  0.
         24    2    4    4    0    0  0.24550824102E+03  0.16633599978E+03 -0.35309380354E+02  0.30932170932E+03  0.80568022697E+02 0.  0.
         11    1    3    3    0    0 -0.13531175517E+03  0.19986164551E+03 -0.55300885571E+03  0.60338440727E+03  0.00000000000E+00 0.  1.
        -11    1    3    3    0    0 -0.10623450909E+03  0.35778217382E+03 -0.81226087258E+03  0.89390244431E+03  0.00000000000E+00 0. -1.
          4    1    6    6  502    0  0.34443101382E+01  0.24716628936E+02 -0.12599918139E+02  0.27955910920E+02  0.00000000000E+00 0. -1.
          3    1    5    5  503    0  0.41982239349E+01 -0.13193912481E+03 -0.67301952460E+02  0.14817257015E+03  0.00000000000E+00 0. -1.
         -4    1    5    5    0  503 -0.81602006955E+01 -0.59204069430E+03 -0.51313611139E+03  0.78350969451E+03  0.00000000000E+00 0.  1.
         -3    1    6    6    0  502  0.24206393088E+03  0.14161937084E+03 -0.22709462215E+02  0.28136579840E+03  0.00000000000E+00 0.  1.
<mgrwt>
<rscale>  0 0.18904517E+04</rscale>
<asrwt>0</asrwt>
<pdfrwt beam="1">  1        1 0.36302369E+00 0.18904517E+04</pdfrwt>
<pdfrwt beam="2">  1       -1 0.58251819E-01 0.18904517E+04</pdfrwt>
<totfact> 0.47377651E+00</totfact>
</mgrwt>
</event>
<event>
12    1  0.1960998E-007  0.1994780E+04  0.7818608E-02  0.8609065E-01
         -2   -1    0    0    0  501 -0.00000000000E+00  0.00000000000E+00  0.46065166278E+03  0.46065166278E+03  0.00000000000E+00 0. -1.
          2   -1    0    0  501    0  0.00000000000E+00 -0.00000000000E+00 -0.21595213284E+04  0.21595213284E+04  0.00000000000E+00 0.  1.
         23    2    1    2    0    0  0.33296775599E+03  0.67344476889E+03 -0.35635022459E+03  0.83661894835E+03  0.92468367025E+02 0.  0.
        254    2    1    2    0    0 -0.33296775599E+03 -0.67344476889E+03 -0.13425194411E+04  0.17835540429E+04  0.90239192754E+03 0.  0.
        -24    2    4    4    0    0 -0.45729280077E+03 -0.64734629761E+03 -0.52902134958E+03  0.95637781243E+03  0.81369509807E+02 0.  0.
         24    2    4    4    0    0  0.12432504478E+03 -0.26098471277E+02 -0.81349809149E+03  0.82717623044E+03  0.79394737720E+02 0.  0.
         13    1    3    3    0    0  0.10619238216E+03  0.28789969666E+03 -0.11005760478E+03  0.32599959162E+03  0.00000000000E+00 0. -1.
        -13    1    3    3    0    0  0.22677537383E+03  0.38554507223E+03 -0.24629261981E+03  0.51061935673E+03  0.00000000000E+00 0.  1.
          2    1    6    6  502    0 -0.40319629433E+01 -0.65435586096E+01 -0.73347844048E+01  0.10624215111E+02  0.00000000000E+00 0. -1.
          3    1    5    5  503    0 -0.19654175113E+03 -0.29891490936E+03 -0.28536398474E+03  0.45761488914E+03  0.00000000000E+00 0. -1.
         -4    1    5    5    0  503 -0.26075104964E+03 -0.34843138825E+03 -0.24365736484E+03  0.49876292329E+03  0.00000000000E+00 0.  1.
         -3    1    6    6    0  502  0.12835700772E+03 -0.19554912668E+02 -0.80616330709E+03  0.81655201533E+03  0.00000000000E+00 0.  1.
<mgrwt>
<rscale>  0 0.19947803E+04</rscale>
<asrwt>0</asrwt>
<pdfrwt beam="1">  1        2 0.33223406E+00 0.19947803E+04</pdfrwt>
<pdfrwt beam="2">  1       -2 0.70869485E-01 0.19947803E+04</pdfrwt>
<totfact> 0.91510926E+00</totfact>
</mgrwt>
</event>
<event>
12    1  0.1960998E-007  0.3836115E+04  0.7818608E-02  0.8038449E-01
          2   -1    0    0  501    0  0.00000000000E+00  0.00000000000E+00  0.31938207850E+04  0.31938207850E+04  0.00000000000E+00 0. -1.
         -2   -1    0    0    0  501 -0.00000000000E+00 -0.00000000000E+00 -0.11518946494E+04  0.11518946494E+04  0.00000000000E+00 0.  1.
         23    2    1    2    0    0  0.78408917252E+02  0.17086744182E+04  0.28887581244E+03  0.17369606964E+04  0.88696110696E+02 0.  0.
        254    2    1    2    0    0 -0.78408917252E+02 -0.17086744182E+04  0.17530503232E+04  0.26087547380E+04  0.89816458509E+03 0.  0.
        -24    2    4    4    0    0  0.10831713496E+03 -0.10967427794E+04  0.52865890610E+03  0.12249269723E+04  0.79928232985E+02 0.  0.
         24    2    4    4    0    0 -0.18672605222E+03 -0.61193163877E+03  0.12243914171E+04  0.13838277658E+04  0.80734094358E+02 0.  0.
         11    1    3    3    0    0  0.71776879631E+02  0.12315995742E+04  0.17089864256E+03  0.12454701031E+04  0.00000000000E+00 0. -1.
        -11    1    3    3    0    0  0.66320376203E+01  0.47707484401E+03  0.11797716988E+03  0.49149059332E+03  0.00000000000E+00 0.  1.
          4    1    6    6  502    0 -0.14374048544E+03 -0.39676599633E+03  0.73570882658E+03  0.84814624948E+03  0.00000000000E+00 0. -1.
          1    1    5    5  503    0  0.95013137566E+02 -0.57816450000E+03  0.29475155231E+03  0.65588121102E+03  0.00000000000E+00 0. -1.
         -2    1    5    5    0  503  0.13303997397E+02 -0.51857827944E+03  0.23390735379E+03  0.56904576126E+03  0.00000000000E+00 0.  1.
         -3    1    6    6    0  502 -0.42985566777E+02 -0.21516564244E+03  0.48868259049E+03  0.53568151628E+03  0.00000000000E+00 0.  1.
<mgrwt>
<rscale>  0 0.38361153E+04</rscale>
<asrwt>0</asrwt>
<pdfrwt beam="1">  1        2 0.49135704E+00 0.38361153E+04</pdfrwt>
<pdfrwt beam="2">  1       -2 0.17721456E+00 0.38361153E+04</pdfrwt>
<totfact> 0.19817585E-01</totfact>
</mgrwt>
</event>
<event>
12    1  0.1960998E-007  0.1415173E+04  0.7818608E-02  0.8942908E-01
          3   -1    0    0  501    0  0.00000000000E+00  0.00000000000E+00  0.17853903353E+04  0.17853903353E+04  0.00000000000E+00 0. -1.
         -3   -1    0    0    0  501 -0.00000000000E+00 -0.00000000000E+00 -0.28043086779E+03  0.28043086779E+03  0.00000000000E+00 0.  1.
         23    2    1    2    0    0 -0.42652831007E+02  0.21445083942E+03 -0.62234331787E+02  0.24550507717E+03  0.92688749809E+02 0.  0.
        254    2    1    2    0    0  0.42652831007E+02 -0.21445083942E+03  0.15671937993E+04  0.18203161259E+04  0.89980329360E+03 0.  0.
        -24    2    4    4    0    0 -0.28108405096E+03  0.22174389323E+03  0.76179155992E+03  0.84554872517E+03  0.80297372278E+02 0.  0.
         24    2    4    4    0    0  0.32373688197E+03 -0.43619473265E+03  0.80540223934E+03  0.97476740070E+03  0.80170473305E+02 0.  0.
         11    1    3    3    0    0 -0.30986368388E+02  0.14978164427E+03 -0.86184789812E+02  0.17556341869E+03  0.00000000000E+00 0.  1.
        -11    1    3    3    0    0 -0.11666462619E+02  0.64669195151E+02  0.23950458025E+02  0.69941658482E+02  0.00000000000E+00 0. -1.
          4    1    6    6  502    0  0.21790269992E+03 -0.26273353940E+03  0.44254410830E+03  0.55888799160E+03  0.00000000000E+00 0. -1.
          1    1    5    5  503    0 -0.28000067992E+03  0.19910355030E+03  0.72584538419E+03  0.80305300338E+03  0.00000000000E+00 0. -1.
         -2    1    5    5    0  503 -0.10833710346E+01  0.22640342930E+02  0.35946175731E+02  0.42495721790E+02  0.00000000000E+00 0.  1.
         -3    1    6    6    0  502  0.10583418205E+03 -0.17346119326E+03  0.36285813104E+03  0.41587940910E+03  0.00000000000E+00 0.  1.
<mgrwt>
<rscale>  0 0.14151729E+04</rscale>
<asrwt>0</asrwt>
<pdfrwt beam="1">  1        3 0.27467543E+00 0.14151729E+04</pdfrwt>
<pdfrwt beam="2">  1       -3 0.43143211E-01 0.14151729E+04</pdfrwt>
<totfact> 0.73192153E-01</totfact>
</mgrwt>
</event>
<event>
12    1  0.1960998E-007  0.2236774E+04  0.7818608E-02  0.8503276E-01
          2   -1    0    0  501    0  0.00000000000E+00  0.00000000000E+00  0.13742255585E+04  0.13742255585E+04  0.00000000000E+00 0.  1.
         -2   -1    0    0    0  501 -0.00000000000E+00 -0.00000000000E+00 -0.91017779220E+03  0.91017779220E+03  0.00000000000E+00 0. -1.
         23    2    1    2    0    0  0.53298941271E+03 -0.54744270470E+03  0.74420010509E+03  0.10707267427E+04  0.94078329967E+02 0.  0.
        254    2    1    2    0    0 -0.53298941271E+03  0.54744270470E+03 -0.28015233880E+03  0.12136766080E+04  0.90041898405E+03 0.  0.
        -24    2    4    4    0    0  0.11977979500E+02  0.44942085328E+03 -0.43576580757E+03  0.63153667318E+03  0.82608444957E+02 0.  0.
         24    2    4    4    0    0 -0.54496739221E+03  0.98021851421E+02  0.15561346877E+03  0.58213993480E+03  0.89853269836E+02 0.  0.
         13    1    3    3    0    0  0.45371764906E+03 -0.50024316570E+03  0.67958009141E+03  0.95808769460E+03  0.00000000000E+00 0. -1.
        -13    1    3    3    0    0  0.79271763646E+02 -0.47199538997E+02  0.64620013676E+02  0.11263904812E+03  0.00000000000E+00 0.  1.
          2    1    6    6  502    0 -0.44889608690E+03  0.11391970522E+03  0.11963624487E+03  0.47832857656E+03  0.00000000000E+00 0. -1.
          3    1    5    5  503    0  0.36252706352E+02  0.40375814136E+03 -0.38780882055E+03  0.56100853535E+03  0.00000000000E+00 0. -1.
         -2    1    5    5    0  503 -0.24274726852E+02  0.45662711914E+02 -0.47956987016E+02  0.70528137837E+02  0.00000000000E+00 0.  1.
         -1    1    6    6    0  502 -0.96071305310E+02 -0.15897853802E+02  0.35977223895E+02  0.10381135824E+03  0.00000000000E+00 0.  1.
<mgrwt>
<rscale>  0 0.22367741E+04</rscale>
<asrwt>0</asrwt>
<pdfrwt beam="1">  1        2 0.21141932E+00 0.22367741E+04</pdfrwt>
<pdfrwt beam="2">  1       -2 0.14002735E+00 0.22367741E+04</pdfrwt>
<totfact> 0.48988173E+00</totfact>
</mgrwt>
</event>
<event>
12    1  0.1960998E-007  0.1328403E+04  0.7818608E-02  0.9007340E-01
         -1   -1    0    0    0  501 -0.00000000000E+00  0.00000000000E+00  0.20618655124E+03  0.20618655124E+03  0.00000000000E+00 0.  1.
          1   -1    0    0  501    0  0.00000000000E+00 -0.00000000000E+00 -0.21396321897E+04  0.21396321897E+04  0.00000000000E+00 0. -1.
         23    2    1    2    0    0 -0.21601488737E+03  0.25455462979E+03 -0.33861000363E+03  0.48426142324E+03  0.91607316120E+02 0.  0.
        254    2    1    2    0    0  0.21601488737E+03 -0.25455462979E+03 -0.15948356348E+04  0.18615573177E+04  0.90024133090E+03 0.  0.
        -24    2    4    4    0    0  0.33724345622E+03  0.25165015952E+03 -0.61795620044E+03  0.75177110702E+03  0.78923888255E+02 0.  0.
         24    2    4    4    0    0 -0.12122856885E+03 -0.50620478931E+03 -0.97687943438E+03  0.11097862107E+04  0.79952169877E+02 0.  0.
         13    1    3    3    0    0 -0.15083516737E+03  0.15046687487E+03 -0.26880436419E+03  0.34299754278E+03  0.00000000000E+00 0. -1.
        -13    1    3    3    0    0 -0.65179719997E+02  0.10408775492E+03 -0.69805639443E+02  0.14126388046E+03  0.00000000000E+00 0.  1.
          4    1    6    6  502    0 -0.87720028046E+02 -0.29371971428E+03 -0.49751271896E+03  0.58436716147E+03  0.00000000000E+00 0. -1.
          1    1    5    5  503    0  0.23901751551E+03  0.19336331841E+03 -0.38823934790E+03  0.49522574336E+03  0.00000000000E+00 0. -1.
         -2    1    5    5    0  503  0.98225940705E+02  0.58286841112E+02 -0.22971685254E+03  0.25654536366E+03  0.00000000000E+00 0.  1.
         -3    1    6    6    0  502 -0.33508540800E+02 -0.21248507504E+03 -0.47936671542E+03  0.52541904921E+03  0.00000000000E+00 0.  1.
<mgrwt>
<rscale>  0 0.13284026E+04</rscale>
<asrwt>0</asrwt>
<pdfrwt beam="1">  1        1 0.32917417E+00 0.13284026E+04</pdfrwt>
<pdfrwt beam="2">  1       -1 0.31721009E-01 0.13284026E+04</pdfrwt>
<totfact> 0.21754797E+01</totfact>
</mgrwt>
</event>
<event>
12    1  0.1960998E-007  0.2361976E+04  0.7818608E-02  0.8453878E-01
          2   -1    0    0  501    0  0.00000000000E+00  0.00000000000E+00  0.25179434321E+04  0.25179434321E+04  0.00000000000E+00 0. -1.
         -2   -1    0    0    0  501 -0.00000000000E+00 -0.00000000000E+00 -0.55391746530E+03  0.55391746530E+03  0.00000000000E+00 0.  1.
         23    2    1    2    0    0 -0.99482163310E+03  0.11624993917E+03  0.72674570581E+03  0.12411819707E+04  0.95860489522E+02 0.  0.
        254    2    1    2    0    0  0.99482163310E+03 -0.11624993917E+03  0.12372802610E+04  0.18306789267E+04  0.90406789479E+03 0.  0.
        -24    2    4    4    0    0  0.50778748535E+03 -0.25611652325E+03  0.99709412302E+02  0.58280751543E+03  0.79239064741E+02 0.  0.
         24    2    4    4    0    0  0.48703414775E+03  0.13986658408E+03  0.11375708487E+04  0.12478714113E+04  0.79691284593E+02 0.  0.
         13    1    3    3    0    0 -0.93559285920E+02 -0.16883687189E+02  0.64918271320E+02  0.11512072284E+03  0.00000000000E+00 0. -1.
        -13    1    3    3    0    0 -0.90126234718E+03  0.13313362636E+03  0.66182743449E+03  0.11260612479E+04  0.00000000000E+00 0.  1.
          4    1    6    6  502    0  0.34805863240E+01  0.48917804000E+01  0.20907530137E+01  0.63572985462E+01  0.00000000000E+00 0. -1.
          3    1    5    5  503    0  0.39679580580E+02 -0.22631895376E+01  0.19571417777E+02  0.44301597440E+02  0.00000000000E+00 0. -1.
         -4    1    5    5    0  503  0.46810790477E+03 -0.25385333371E+03  0.80137994525E+02  0.53850591799E+03  0.00000000000E+00 0.  1.
         -3    1    6    6    0  502  0.48355356142E+03  0.13497480368E+03  0.11354800957E+04  0.12415141128E+04  0.00000000000E+00 0.  1.
<mgrwt>
<rscale>  0 0.23619762E+04</rscale>
<asrwt>0</asrwt>
<pdfrwt beam="1">  1        2 0.38737591E+00 0.23619762E+04</pdfrwt>
<pdfrwt beam="2">  1       -2 0.85218073E-01 0.23619762E+04</pdfrwt>
<totfact> 0.36720388E+00</totfact>
</mgrwt>
</event>
<event>
12    1  0.1960998E-007  0.2190573E+04  0.7818608E-02  0.8522362E-01
         -2   -1    0    0    0  501 -0.00000000000E+00  0.00000000000E+00  0.12809969344E+04  0.12809969344E+04  0.00000000000E+00 0.  1.
          2   -1    0    0  501    0  0.00000000000E+00 -0.00000000000E+00 -0.93649923680E+03  0.93649923680E+03  0.00000000000E+00 0. -1.
         23    2    1    2    0    0 -0.51015888679E+03 -0.23063325592E+03 -0.57923795841E+03  0.81092104029E+03  0.92857593273E+02 0.  0.
        254    2    1    2    0    0  0.51015888679E+03  0.23063325592E+03  0.92373565596E+03  0.14065751309E+04  0.90095074679E+03 0.  0.
        -24    2    4    4    0    0  0.44739340185E+03  0.54553375932E+03  0.49777520266E+03  0.86720498525E+03  0.80600220120E+02 0.  0.
         24    2    4    4    0    0  0.62765484938E+02 -0.31490050340E+03  0.42596045330E+03  0.53937014560E+03  0.79849940862E+02 0.  0.
         13    1    3    3    0    0 -0.38233313858E+03 -0.12836569736E+03 -0.39621204542E+03  0.56536746108E+03  0.00000000000E+00 0. -1.
        -13    1    3    3    0    0 -0.12782574821E+03 -0.10226755857E+03 -0.18302591298E+03  0.24555357921E+03  0.00000000000E+00 0.  1.
          4    1    6    6  502    0  0.35041869624E+02 -0.29311212437E+03  0.38843593299E+03  0.48787818573E+03  0.00000000000E+00 0. -1.
          3    1    5    5  503    0  0.20064200225E+03  0.30483168799E+03  0.24021040132E+03  0.43689885325E+03  0.00000000000E+00 0. -1.
         -4    1    5    5    0  503  0.24675139960E+03  0.24070207133E+03  0.25756480134E+03  0.43030613200E+03  0.00000000000E+00 0.  1.
         -3    1    6    6    0  502  0.27723615315E+02 -0.21788379032E+02  0.37524520307E+02  0.51491959870E+02  0.00000000000E+00 0.  1.
<mgrwt>
<rscale>  0 0.21905731E+04</rscale>
<asrwt>0</asrwt>
<pdfrwt beam="1">  1        2 0.14407681E+00 0.21905731E+04</pdfrwt>
<pdfrwt beam="2">  1       -2 0.19707645E+00 0.21905731E+04</pdfrwt>
<totfact> 0.35237283E+00</totfact>
</mgrwt>
</event>
<event>
12    1  0.1960998E-007  0.2558588E+04  0.7818608E-02  0.8382406E-01
         -2   -1    0    0    0  501 -0.00000000000E+00  0.00000000000E+00  0.68296342626E+03  0.68296342626E+03  0.00000000000E+00 0.  1.
          2   -1    0    0  501    0  0.00000000000E+00 -0.00000000000E+00 -0.23963114618E+04  0.23963114618E+04  0.00000000000E+00 0. -1.
         23    2    1    2    0    0 -0.23840294318E+03  0.95793094889E+03 -0.13848208557E+04  0.17037100273E+04  0.10213416875E+03 0.  0.
        254    2    1    2    0    0  0.23840294318E+03 -0.95793094889E+03 -0.32852717983E+03  0.13755648608E+04  0.89987827633E+03 0.  0.
        -24    2    4    4    0    0  0.50109965538E+03 -0.78802181372E+03 -0.32625106030E+02  0.93760882430E+03  0.77244199345E+02 0.  0.
         24    2    4    4    0    0 -0.26269671220E+03 -0.16990913516E+03 -0.29590207380E+03  0.43795603650E+03  0.79804610238E+02 0.  0.
         11    1    3    3    0    0 -0.19640830588E+03  0.58411820647E+03 -0.86137201885E+03  0.10591185281E+04  0.00000000000E+00 0. -1.
        -11    1    3    3    0    0 -0.41994637306E+02  0.37381274242E+03 -0.52344883689E+03  0.64459149916E+03  0.00000000000E+00 0.  1.
          2    1    6    6  502    0 -0.23704637873E+03 -0.17504971624E+03 -0.28385854906E+03  0.40915652836E+03  0.00000000000E+00 0. -1.
          3    1    5    5  503    0  0.19123158016E+03 -0.26903170893E+03 -0.44345171339E+02  0.33303764334E+03  0.00000000000E+00 0. -1.
         -4    1    5    5    0  503  0.30986807522E+03 -0.51899010480E+03  0.11720065309E+02  0.60457118096E+03  0.00000000000E+00 0.  1.
         -1    1    6    6    0  502 -0.25650333468E+02  0.51405810801E+01 -0.12043524742E+02  0.28799508139E+02  0.00000000000E+00 0.  1.
<mgrwt>
<rscale>  0 0.25585880E+04</rscale>
<asrwt>0</asrwt>
<pdfrwt beam="1">  1        2 0.36866330E+00 0.25585880E+04</pdfrwt>
<pdfrwt beam="2">  1       -2 0.10507130E+00 0.25585880E+04</pdfrwt>
<totfact> 0.26017426E+00</totfact>
</mgrwt>
</event>
<event>
12    1  0.1960998E-007  0.2562429E+04  0.7818608E-02  0.8381076E-01
          1   -1    0    0  501    0  0.00000000000E+00  0.00000000000E+00  0.94392195659E+03  0.94392195659E+03  0.00000000000E+00 0. -1.
         -1   -1    0    0    0  501 -0.00000000000E+00 -0.00000000000E+00 -0.17390320392E+04  0.17390320392E+04  0.00000000000E+00 0.  1.
         23    2    1    2    0    0 -0.24729469348E+03 -0.64327148507E+03 -0.12703042495E+04  0.14480534997E+04  0.90736886895E+02 0.  0.
        254    2    1    2    0    0  0.24729469348E+03  0.64327148507E+03  0.47519416690E+03  0.12349004961E+04  0.90786390507E+03 0.  0.
        -24    2    4    4    0    0  0.26971850372E+03  0.83653663966E+03  0.51135509654E+03  0.10200104757E+04  0.79973215114E+02 0.  0.
         24    2    4    4    0    0 -0.22423810244E+02 -0.19326515459E+03 -0.36160929638E+02  0.21489002037E+03  0.83760735309E+02 0.  0.
         11    1    3    3    0    0 -0.16601249763E+03 -0.43274171279E+03 -0.76178987549E+03  0.89171147450E+03  0.00000000000E+00 0. -1.
        -11    1    3    3    0    0 -0.81282195843E+02 -0.21052977228E+03 -0.50851437404E+03  0.55634202519E+03  0.00000000000E+00 0.  1.
          2    1    6    6  502    0 -0.40786782114E+02 -0.39165069553E+02 -0.12423468783E+02  0.57894791172E+02  0.00000000000E+00 0. -1.
          3    1    5    5  503    0  0.25219715783E+03  0.69565401010E+03  0.44315871930E+03  0.86251235277E+03  0.00000000000E+00 0. -1.
         -4    1    5    5    0  503  0.17521345886E+02  0.14088262955E+03  0.68196377243E+02  0.15749812298E+03  0.00000000000E+00 0.  1.
         -1    1    6    6    0  502  0.18362971870E+02 -0.15410008503E+03 -0.23737460854E+02  0.15699522920E+03  0.00000000000E+00 0.  1.
<mgrwt>
<rscale>  0 0.25624289E+04</rscale>
<asrwt>0</asrwt>
<pdfrwt beam="1">  1        1 0.14521876E+00 0.25624289E+04</pdfrwt>
<pdfrwt beam="2">  1       -1 0.26754339E+00 0.25624289E+04</pdfrwt>
<totfact> 0.79385202E-01</totfact>
</mgrwt>
</event>
<event>
12    1  0.1960998E-007  0.2175205E+04  0.7818608E-02  0.8528820E-01
         -2   -1    0    0    0  501 -0.00000000000E+00  0.00000000000E+00  0.18533796875E+04  0.18533796875E+04  0.00000000000E+00 0. -1.
          2   -1    0    0  501    0  0.00000000000E+00 -0.00000000000E+00 -0.63822820040E+03  0.63822820040E+03  0.00000000000E+00 0.  1.
         23    2    1    2    0    0  0.52140108665E+03 -0.59415477343E+03  0.99366446353E+03  0.12731600658E+04  0.93212118967E+02 0.  0.
        254    2    1    2    0    0 -0.52140108665E+03  0.59415477343E+03  0.22148702353E+03  0.12184478221E+04  0.90037747947E+03 0.  0.
        -24    2    4    4    0    0 -0.48019601582E+03 -0.99865756830E+02  0.11927503739E+03  0.51129733813E+03  0.81468094605E+02 0.  0.
         24    2    4    4    0    0 -0.41205070828E+02  0.69402053026E+03  0.10221198614E+03  0.70715048393E+03  0.79070617367E+02 0.  0.
         11    1    3    3    0    0  0.27871919164E+03 -0.29491152062E+03  0.43897922949E+03  0.59779591559E+03  0.00000000000E+00 0.  1.
        -11    1    3    3    0    0  0.24268189501E+03 -0.29924325281E+03  0.55468523404E+03  0.67536415020E+03  0.00000000000E+00 0. -1.
          4    1    6    6  502    0 -0.12117828672E+02  0.20053979513E+03 -0.64595310296E+01  0.20100939466E+03  0.00000000000E+00 0. -1.
          3    1    5    5  503    0 -0.11697655923E+03  0.10384199949E+02  0.22511553480E+02  0.11957473420E+03  0.00000000000E+00 0. -1.
         -4    1    5    5    0  503 -0.36321945659E+03 -0.11024995678E+03  0.96763483906E+02  0.39172260393E+03  0.00000000000E+00 0.  1.
         -3    1    6    6    0  502 -0.29087242156E+02  0.49348073513E+03  0.10867151717E+03  0.50614108926E+03  0.00000000000E+00 0.  1.
<mgrwt>
<rscale>  0 0.21752050E+04</rscale>
<asrwt>0</asrwt>
<pdfrwt beam="1">  1        2 0.98188955E-01 0.21752050E+04</pdfrwt>
<pdfrwt beam="2">  1       -2 0.28513533E+00 0.21752050E+04</pdfrwt>
<totfact> 0.16509192E+00</totfact>
</mgrwt>
</event>
<event>
12    1  0.1960998E-007  0.2583959E+04  0.7818608E-02  0.8373670E-01
         -1   -1    0    0    0  501 -0.00000000000E+00  0.00000000000E+00  0.70779582892E+03  0.70779582892E+03  0.00000000000E+00 0.  1.
          1   -1    0    0  501    0  0.00000000000E+00 -0.00000000000E+00 -0.23583235457E+04  0.23583235457E+04  0.00000000000E+00 0. -1.
         23    2    1    2    0    0  0.67612376429E+02  0.10029769929E+04 -0.10598063109E+03  0.10151461664E+04  0.93571166829E+02 0.  0.
        254    2    1    2    0    0 -0.67612376429E+02 -0.10029769929E+04 -0.15445470857E+04  0.20509732082E+04  0.90018393618E+03 0.  0.
        -24    2    4    4    0    0  0.37338055718E+03 -0.38483857341E+03 -0.90370514132E+03  0.10541018984E+04  0.83271013431E+02 0.  0.
         24    2    4    4    0    0 -0.44099293361E+03 -0.61813841953E+03 -0.64084194438E+03  0.99687130980E+03  0.80648232665E+02 0.  0.
         11    1    3    3    0    0  0.67139019737E+02  0.97648435989E+03 -0.87195551939E+02  0.98266597446E+03  0.00000000000E+00 0.  1.
        -11    1    3    3    0    0  0.47335669190E+00  0.26492633050E+02 -0.18785079153E+02  0.32480191983E+02  0.00000000000E+00 0. -1.
          4    1    6    6  502    0 -0.36329373973E+03 -0.55125275388E+03 -0.57043382015E+03  0.87250024823E+03  0.00000000000E+00 0. -1.
          1    1    5    5  503    0  0.18443497427E+03 -0.24899971819E+03 -0.50853483088E+03  0.59550381495E+03  0.00000000000E+00 0. -1.
         -2    1    5    5    0  503  0.18894558291E+03 -0.13583885522E+03 -0.39517031044E+03  0.45859808344E+03  0.00000000000E+00 0.  1.
         -3    1    6    6    0  502 -0.77699193875E+02 -0.66885665655E+02 -0.70408124223E+02  0.12437106157E+03  0.00000000000E+00 0.  1.
<mgrwt>
<rscale>  0 0.25839594E+04</rscale>
<asrwt>0</asrwt>
<pdfrwt beam="1">  1        1 0.36281901E+00 0.25839594E+04</pdfrwt>
<pdfrwt beam="2">  1       -1 0.10889167E+00 0.25839594E+04</pdfrwt>
<totfact> 0.11696743E+00</totfact>
</mgrwt>
</event>
<event>
12    1  0.1960998E-007  0.3008776E+04  0.7818608E-02  0.8241229E-01
         -2   -1    0    0    0  501 -0.00000000000E+00  0.00000000000E+00  0.10890989611E+04  0.10890989611E+04  0.00000000000E+00 0.  1.
          2   -1    0    0  501    0  0.00000000000E+00 -0.00000000000E+00 -0.20780324671E+04  0.20780324671E+04  0.00000000000E+00 0. -1.
         23    2    1    2    0    0  0.71760475015E+03  0.59266810762E+03 -0.15057201961E+04  0.17724536540E+04  0.90479741197E+02 0.  0.
        254    2    1    2    0    0 -0.71760475015E+03 -0.59266810762E+03  0.51678669006E+03  0.13946777742E+04  0.90102472085E+03 0.  0.
        -24    2    4    4    0    0 -0.32681067496E+03 -0.57921150808E+03 -0.82178011975E+02  0.67501018153E+03  0.81205487232E+02 0.  0.
         24    2    4    4    0    0 -0.39079407518E+03 -0.13456599545E+02  0.59896470204E+03  0.71966759267E+03  0.79130527473E+02 0.  0.
         11    1    3    3    0    0  0.11007447912E+03  0.11164815536E+03 -0.31371588343E+03  0.35071264172E+03  0.00000000000E+00 0. -1.
        -11    1    3    3    0    0  0.60753027103E+03  0.48101995226E+03 -0.11920043126E+04  0.14217410123E+04  0.00000000000E+00 0.  1.
          2    1    6    6  502    0 -0.31666757438E+01  0.91918857152E+01  0.81770111536E+01  0.12703625848E+02  0.00000000000E+00 0. -1.
          1    1    5    5  503    0 -0.92997944024E+02 -0.17054617928E+03  0.12898910130E+02  0.19468178842E+03  0.00000000000E+00 0. -1.
         -2    1    5    5    0  503 -0.23381273094E+03 -0.40866532880E+03 -0.95076922105E+02  0.48032839311E+03  0.00000000000E+00 0.  1.
         -1    1    6    6    0  502 -0.38762739944E+03 -0.22648485260E+02  0.59078769088E+03  0.70696396682E+03  0.00000000000E+00 0.  1.
<mgrwt>
<rscale>  0 0.30087758E+04</rscale>
<asrwt>0</asrwt>
<pdfrwt beam="1">  1        2 0.31969730E+00 0.30087758E+04</pdfrwt>
<pdfrwt beam="2">  1       -2 0.16755369E+00 0.30087758E+04</pdfrwt>
<totfact> 0.11473314E+00</totfact>
</mgrwt>
</event>
<event>
12    1  0.1960998E-007  0.2666266E+04  0.7818608E-02  0.8346034E-01
          2   -1    0    0  501    0  0.00000000000E+00  0.00000000000E+00  0.14301548236E+04  0.14301548236E+04  0.00000000000E+00 0.  1.
         -2   -1    0    0    0  501 -0.00000000000E+00 -0.00000000000E+00 -0.12426928771E+04  0.12426928771E+04  0.00000000000E+00 0. -1.
         23    2    1    2    0    0 -0.10005906095E+04 -0.60197028436E+03  0.24807111425E+03  0.11971492077E+04  0.89873003078E+02 0.  0.
        254    2    1    2    0    0  0.10005906095E+04  0.60197028436E+03 -0.60609167813E+02  0.14756984930E+04  0.90025706331E+03 0.  0.
        -24    2    4    4    0    0  0.51574914598E+03  0.16961251646E+03 -0.45380178315E+03  0.71217513560E+03  0.80571571031E+02 0.  0.
         24    2    4    4    0    0  0.48484146351E+03  0.43235776791E+03  0.39319261534E+03  0.76352335742E+03  0.79768417080E+02 0.  0.
         11    1    3    3    0    0 -0.57280794938E+03 -0.31422471501E+03  0.10155451801E+03  0.66118033737E+03  0.00000000000E+00 0. -1.
        -11    1    3    3    0    0 -0.42778266010E+03 -0.28774556936E+03  0.14651659625E+03  0.53596887031E+03  0.00000000000E+00 0.  1.
          2    1    6    6  502    0  0.36421620496E+03  0.34164269700E+03  0.33712310293E+03  0.60251569514E+03  0.00000000000E+00 0. -1.
          1    1    5    5  503    0  0.40276203640E+03  0.12389468284E+03 -0.39195340768E+03  0.57549511222E+03  0.00000000000E+00 0. -1.
         -2    1    5    5    0  503  0.11298710958E+03  0.45717833621E+02 -0.61848375473E+02  0.13668002338E+03  0.00000000000E+00 0.  1.
         -1    1    6    6    0  502  0.12062525855E+03  0.90715070911E+02  0.56069512413E+02  0.16100766228E+03  0.00000000000E+00 0.  1.
<mgrwt>
<rscale>  0 0.26662657E+04</rscale>
<asrwt>0</asrwt>
<pdfrwt beam="1">  1        2 0.22002382E+00 0.26662657E+04</pdfrwt>
<pdfrwt beam="2">  1       -2 0.19118352E+00 0.26662657E+04</pdfrwt>
<totfact> 0.18622677E+00</totfact>
</mgrwt>
</event>
<event>
12    1  0.2406966E-007  0.2633196E+04  0.7818608E-02  0.8357012E-01
         -2   -1    0    0    0  501 -0.00000000000E+00  0.00000000000E+00  0.10146635935E+04  0.10146635935E+04  0.00000000000E+00 0.  1.
          2   -1    0    0  501    0  0.00000000000E+00 -0.00000000000E+00 -0.17083790158E+04  0.17083790158E+04  0.00000000000E+00 0. -1.
         23    2    1    2    0    0 -0.96973466290E+03 -0.48964488292E+03  0.11272476760E+03  0.10956822656E+04  0.87608938725E+02 0.  0.
        254    2    1    2    0    0  0.96973466290E+03  0.48964488292E+03 -0.80644018989E+03  0.16273603438E+04  0.90433316913E+03 0.  0.
        -24    2    4    4    0    0  0.24691180255E+03  0.56801962212E+03 -0.14527913574E+03  0.64110580511E+03  0.79365588986E+02 0.  0.
         24    2    4    4    0    0  0.72282286035E+03 -0.78374739200E+02 -0.66116105415E+03  0.98625453865E+03  0.83358192760E+02 0.  0.
         13    1    3    3    0    0 -0.37350327620E+03 -0.14717642877E+03  0.20994052360E+02  0.40200292132E+03  0.00000000000E+00 0. -1.
        -13    1    3    3    0    0 -0.59623138671E+03 -0.34246845415E+03  0.91730715245E+02  0.69367934429E+03  0.00000000000E+00 0.  1.
          4    1    6    6  502    0  0.11965811873E+03  0.12309736133E+02 -0.85735178777E+02  0.14771633579E+03  0.00000000000E+00 0. -1.
          1    1    5    5  503    0  0.63800807420E+02  0.16981854262E+03 -0.78897195936E+02  0.19782226359E+03  0.00000000000E+00 0. -1.
         -4    1    5    5    0  503  0.18311099513E+03  0.39820107950E+03 -0.66381939799E+02  0.44328354152E+03  0.00000000000E+00 0.  1.
         -1    1    6    6    0  502  0.60316474162E+03 -0.90684475332E+02 -0.57542587537E+03  0.83853820286E+03  0.00000000000E+00 0.  1.
<mgrwt>
<rscale>  0 0.26331958E+04</rscale>
<asrwt>0</asrwt>
<pdfrwt beam="1">  1        2 0.26282754E+00 0.26331958E+04</pdfrwt>
<pdfrwt beam="2">  1       -2 0.15610209E+00 0.26331958E+04</pdfrwt>
<totfact> 0.23054614E+00</totfact>
</mgrwt>
</event>
<event>
12    1  0.1960998E-007  0.2120563E+04  0.7818608E-02  0.8552239E-01
         -1   -1    0    0    0  501 -0.00000000000E+00  0.00000000000E+00  0.45918427114E+03  0.45918427114E+03  0.00000000000E+00 0. -1.
          1   -1    0    0  501    0  0.00000000000E+00 -0.00000000000E+00 -0.24482482272E+04  0.24482482272E+04  0.00000000000E+00 0.  1.
         23    2    1    2    0    0 -0.12848713819E+03  0.53066045098E+03 -0.17379914776E+04  0.18238778542E+04  0.88354920067E+02 0.  0.
        254    2    1    2    0    0  0.12848713819E+03 -0.53066045098E+03 -0.25107247844E+03  0.10835546441E+04  0.90163397144E+03 0.  0.
        -24    2    4    4    0    0  0.10025677306E+03 -0.32300369520E+03 -0.58551053073E+03  0.68091515848E+03  0.80250008047E+02 0.  0.
         24    2    4    4    0    0  0.28230365136E+02 -0.20765675578E+03  0.33443805229E+03  0.40263948565E+03  0.79696065419E+02 0.  0.
         11    1    3    3    0    0 -0.83963609386E+02  0.45329043740E+03 -0.13818446250E+04  0.14567143426E+04  0.00000000000E+00 0. -1.
        -11    1    3    3    0    0 -0.44523528806E+02  0.77370013589E+02 -0.35614685267E+03  0.36716351165E+03  0.00000000000E+00 0.  1.
          4    1    6    6  502    0  0.42806536558E+02 -0.99646375151E+02  0.21592049927E+03  0.24162669897E+03  0.00000000000E+00 0. -1.
          3    1    5    5  503    0  0.48454868123E+02 -0.56353881404E+02 -0.15454854131E+03  0.17149019160E+03  0.00000000000E+00 0. -1.
         -4    1    5    5    0  503  0.51801904932E+02 -0.26664981380E+03 -0.43096198942E+03  0.50942496688E+03  0.00000000000E+00 0.  1.
         -3    1    6    6    0  502 -0.14576171423E+02 -0.10801038063E+03  0.11851755302E+03  0.16101278667E+03  0.00000000000E+00 0.  1.
<mgrwt>
<rscale>  0 0.21205632E+04</rscale>
<asrwt>0</asrwt>
<pdfrwt beam="1">  1        1 0.37665357E+00 0.21205632E+04</pdfrwt>
<pdfrwt beam="2">  1       -1 0.70643735E-01 0.21205632E+04</pdfrwt>
<totfact> 0.27352621E+00</totfact>
</mgrwt>
</event>
<event>
12    1  0.1960998E-007  0.1861174E+04  0.7818608E-02  0.8674428E-01
          2   -1    0    0  501    0  0.00000000000E+00  0.00000000000E+00  0.11730771682E+04  0.11730771682E+04  0.00000000000E+00 0. -1.
         -2   -1    0    0    0  501 -0.00000000000E+00 -0.00000000000E+00 -0.73822249657E+03  0.73822249657E+03  0.00000000000E+00 0.  1.
         23    2    1    2    0    0  0.46151296857E+03 -0.36891128978E+03 -0.23693558103E+03  0.64276442119E+03  0.88982423550E+02 0.  0.
        254    2    1    2    0    0 -0.46151296857E+03  0.36891128978E+03  0.67179025268E+03  0.12685352436E+04  0.89932739355E+03 0.  0.
        -24    2    4    4    0    0 -0.29461325581E+03  0.69983413271E+02 -0.16984787953E+03  0.35621266967E+03  0.79652465243E+02 0.  0.
         24    2    4    4    0    0 -0.16689971276E+03  0.29892787651E+03  0.84163813221E+03  0.91232257394E+03  0.82245631157E+02 0.  0.
         11    1    3    3    0    0  0.43607084110E+03 -0.32898124079E+03 -0.23692998700E+03  0.59541771387E+03  0.00000000000E+00 0. -1.
        -11    1    3    3    0    0  0.25442127478E+02 -0.39930048991E+02 -0.55940261341E-02  0.47346707323E+02  0.00000000000E+00 0.  1.
          2    1    6    6  502    0 -0.49788656643E+02  0.91631817841E+02  0.36382971587E+03  0.37848033307E+03  0.00000000000E+00 0. -1.
          1    1    5    5  503    0 -0.18802539369E+03  0.75411103916E+02 -0.84265477384E+02  0.21941069697E+03  0.00000000000E+00 0. -1.
         -4    1    5    5    0  503 -0.10658786212E+03 -0.54276906443E+01 -0.85582402149E+02  0.13680197270E+03  0.00000000000E+00 0.  1.
         -1    1    6    6    0  502 -0.11711105612E+03  0.20729605867E+03  0.47780841634E+03  0.53384224086E+03  0.00000000000E+00 0.  1.
<mgrwt>
<rscale>  0 0.18611738E+04</rscale>
<asrwt>0</asrwt>
<pdfrwt beam="1">  1        2 0.18047341E+00 0.18611738E+04</pdfrwt>
<pdfrwt beam="2">  1       -2 0.11357269E+00 0.18611738E+04</pdfrwt>
<totfact> 0.11229635E+01</totfact>
</mgrwt>
</event>
<event>
12    1  0.1960998E-007  0.3156813E+04  0.7818608E-02  0.8200317E-01
          2   -1    0    0  501    0  0.00000000000E+00  0.00000000000E+00  0.52093873685E+04  0.52093873685E+04  0.00000000000E+00 0. -1.
         -2   -1    0    0    0  501 -0.00000000000E+00 -0.00000000000E+00 -0.47824580206E+03  0.47824580206E+03  0.00000000000E+00 0.  1.
         23    2    1    2    0    0 -0.11619524468E+04  0.59359843658E+03  0.33410554615E+04  0.35879316834E+04  0.90053180225E+02 0.  0.
        254    2    1    2    0    0  0.11619524468E+04 -0.59359843658E+03  0.13900861049E+04  0.20997014871E+04  0.87972402692E+03 0.  0.
        -24    2    4    4    0    0  0.59284012729E+03 -0.76649787127E+03  0.90662394605E+03  0.13293654228E+04  0.79164666985E+02 0.  0.
         24    2    4    4    0    0  0.56911231949E+03  0.17289943469E+03  0.48346215881E+03  0.77033606435E+03  0.76804598307E+02 0.  0.
         13    1    3    3    0    0 -0.50262064352E+03  0.28718724237E+03  0.15792293319E+04  0.16819837414E+04  0.00000000000E+00 0.  1.
        -13    1    3    3    0    0 -0.65933180327E+03  0.30641119421E+03  0.17618261296E+04  0.19059479421E+04  0.00000000000E+00 0. -1.
          4    1    6    6  502    0  0.34439713920E+03  0.14328895390E+03  0.29538770748E+03  0.47580984807E+03  0.00000000000E+00 0. -1.
          1    1    5    5  503    0  0.19739892583E+03 -0.19716294891E+03  0.25426835698E+03  0.37748107464E+03  0.00000000000E+00 0. -1.
         -2    1    5    5    0  503  0.39544120146E+03 -0.56933492235E+03  0.65235558906E+03  0.95188434812E+03  0.00000000000E+00 0.  1.
         -3    1    6    6    0  502  0.22471518029E+03  0.29610480785E+02  0.18807445133E+03  0.29452621627E+03  0.00000000000E+00 0.  1.
<mgrwt>
<rscale>  0 0.31568134E+04</rscale>
<asrwt>0</asrwt>
<pdfrwt beam="1">  1        2 0.80144417E+00 0.31568134E+04</pdfrwt>
<pdfrwt beam="2">  1       -2 0.73576281E-01 0.31568134E+04</pdfrwt>
<totfact> 0.25069883E-02</totfact>
</mgrwt>
</event>
<event>
12    1  0.1960998E-007  0.2231557E+04  0.7818608E-02  0.8505407E-01
         -2   -1    0    0    0  501 -0.00000000000E+00  0.00000000000E+00  0.45967124010E+03  0.45967124010E+03  0.00000000000E+00 0.  1.
          2   -1    0    0  501    0  0.00000000000E+00 -0.00000000000E+00 -0.27083743355E+04  0.27083743355E+04  0.00000000000E+00 0. -1.
         23    2    1    2    0    0 -0.62834295467E+02  0.92493253326E+03 -0.10688624843E+04  0.14184373802E+04  0.10024595416E+03 0.  0.
        254    2    1    2    0    0  0.62834295467E+02 -0.92493253326E+03 -0.11798406111E+04  0.17496081955E+04  0.89980921876E+03 0.  0.
        -24    2    4    4    0    0 -0.26581688558E+03 -0.13509403490E+03 -0.23665279120E+02  0.30907113042E+03  0.77819684503E+02 0.  0.
         24    2    4    4    0    0  0.32865118105E+03 -0.78983849837E+03 -0.11561753320E+04  0.14405370650E+04  0.80927035651E+02 0.  0.
         11    1    3    3    0    0 -0.27998697730E+02  0.31399555675E+03 -0.43692497354E+03  0.53877691973E+03  0.00000000000E+00 0. -1.
        -11    1    3    3    0    0 -0.34835597737E+02  0.61093697651E+03 -0.63193751076E+03  0.87966046043E+03  0.00000000000E+00 0.  1.
          4    1    6    6  502    0  0.93549743131E+01 -0.41586645876E+02 -0.88590353556E+02  0.98311827380E+02  0.00000000000E+00 0. -1.
          3    1    5    5  503    0 -0.43981552373E+02 -0.51776308641E+02 -0.24165042239E+02  0.72104870515E+02  0.00000000000E+00 0. -1.
         -4    1    5    5    0  503 -0.22183533321E+03 -0.83317726257E+02  0.49976311962E+00  0.23696625990E+03  0.00000000000E+00 0.  1.
         -3    1    6    6    0  502  0.31929620674E+03 -0.74825185249E+03 -0.10675849785E+04  0.13422252377E+04  0.00000000000E+00 0.  1.
<mgrwt>
<rscale>  0 0.22315571E+04</rscale>
<asrwt>0</asrwt>
<pdfrwt beam="1">  1        2 0.41667297E+00 0.22315571E+04</pdfrwt>
<pdfrwt beam="2">  1       -2 0.70718653E-01 0.22315571E+04</pdfrwt>
<totfact> 0.43521174E+00</totfact>
</mgrwt>
</event>
<event>
12    1  0.1960998E-007  0.2145586E+04  0.7818608E-02  0.8541424E-01
         -1   -1    0    0    0  501 -0.00000000000E+00  0.00000000000E+00  0.16065344729E+04  0.16065344729E+04  0.00000000000E+00 0.  1.
          1   -1    0    0  501    0  0.00000000000E+00 -0.00000000000E+00 -0.71637729581E+03  0.71637729581E+03  0.00000000000E+00 0. -1.
         23    2    1    2    0    0 -0.22249288102E+03  0.37868155946E+02 -0.55489874074E+03  0.60598886040E+03  0.91503044246E+02 0.  0.
        254    2    1    2    0    0  0.22249288102E+03 -0.37868155946E+02  0.14450559179E+04  0.17169229083E+04  0.89927781474E+03 0.  0.
        -24    2    4    4    0    0  0.35036797002E+03  0.31048058153E+03  0.11227239714E+04  0.12190070565E+04  0.79455534528E+02 0.  0.
         24    2    4    4    0    0 -0.12787508900E+03 -0.34834873748E+03  0.32233194645E+03  0.49791585181E+03  0.79520000559E+02 0.  0.
         11    1    3    3    0    0 -0.12987899787E+03 -0.23815973397E+02 -0.31380362965E+03  0.34045333404E+03  0.00000000000E+00 0. -1.
        -11    1    3    3    0    0 -0.92613883152E+02  0.61684129342E+02 -0.24109511110E+03  0.26553552636E+03  0.00000000000E+00 0.  1.
          4    1    6    6  502    0 -0.12307135810E+02 -0.70609742478E+02  0.27695069796E+02  0.76838910817E+02  0.00000000000E+00 0. -1.
          3    1    5    5  503    0  0.32765622012E+03  0.28335501733E+03  0.10793620216E+04  0.11630438677E+04  0.00000000000E+00 0. -1.
         -4    1    5    5    0  503  0.22711749891E+02  0.27125564202E+02  0.43361949783E+02  0.55963188842E+02  0.00000000000E+00 0.  1.
         -3    1    6    6    0  502 -0.11556795319E+03 -0.27773899500E+03  0.29463687666E+03  0.42107694099E+03  0.00000000000E+00 0.  1.
<mgrwt>
<rscale>  0 0.21455860E+04</rscale>
<asrwt>0</asrwt>
<pdfrwt beam="1">  1        1 0.11021189E+00 0.21455860E+04</pdfrwt>
<pdfrwt beam="2">  1       -1 0.24715915E+00 0.21455860E+04</pdfrwt>
<totfact> 0.17528373E+00</totfact>
</mgrwt>
</event>
<event>
12    1  0.1960998E-007  0.3555616E+04  0.7818608E-02  0.8100735E-01
         -1   -1    0    0    0  501 -0.00000000000E+00  0.00000000000E+00  0.12219262004E+04  0.12219262004E+04  0.00000000000E+00 0.  1.
          1   -1    0    0  501    0  0.00000000000E+00 -0.00000000000E+00 -0.25865731874E+04  0.25865731874E+04  0.00000000000E+00 0. -1.
         23    2    1    2    0    0 -0.98943680284E+03  0.10646198736E+04 -0.15213915540E+04  0.21060142394E+04  0.90901340014E+02 0.  0.
        254    2    1    2    0    0  0.98943680284E+03 -0.10646198736E+04  0.15674456697E+03  0.17024851485E+04  0.87263174325E+03 0.  0.
        -24    2    4    4    0    0  0.67023691202E+03 -0.11228756150E+04  0.29166010799E+03  0.13421495072E+04  0.78946286758E+02 0.  0.
         24    2    4    4    0    0  0.31919989082E+03  0.58255741340E+02 -0.13491554102E+03  0.36033564125E+03  0.79732486807E+02 0.  0.
         11    1    3    3    0    0 -0.32331512705E+03  0.41135544660E+03 -0.55513023593E+03  0.76283389651E+03  0.00000000000E+00 0.  1.
        -11    1    3    3    0    0 -0.66612167579E+03  0.65326442702E+03 -0.96626131810E+03  0.13431803428E+04  0.00000000000E+00 0. -1.
          4    1    6    6  502    0  0.70702925483E+02 -0.18462895937E+02 -0.18381569075E+02  0.75350277238E+02  0.00000000000E+00 0. -1.
          3    1    5    5  503    0  0.51056813323E+02 -0.11252787398E+03  0.46780875899E+02  0.13212785838E+03  0.00000000000E+00 0. -1.
         -4    1    5    5    0  503  0.61918009870E+03 -0.10103477410E+04  0.24487923209E+03  0.12100216488E+04  0.00000000000E+00 0.  1.
         -3    1    6    6    0  502  0.24849696533E+03  0.76718637277E+02 -0.11653397194E+03  0.28498536402E+03  0.00000000000E+00 0.  1.
<mgrwt>
<rscale>  0 0.35556161E+04</rscale>
<asrwt>0</asrwt>
<pdfrwt beam="1">  1        1 0.39793433E+00 0.35556161E+04</pdfrwt>
<pdfrwt beam="2">  1       -1 0.18798865E+00 0.35556161E+04</pdfrwt>
<totfact> 0.17475490E-01</totfact>
</mgrwt>
</event>
<event>
12    1  0.1960998E-007  0.1612728E+04  0.7818608E-02  0.8812767E-01
          1   -1    0    0  501    0  0.00000000000E+00  0.00000000000E+00  0.51106352890E+03  0.51106352890E+03  0.00000000000E+00 0. -1.
         -1   -1    0    0    0  501 -0.00000000000E+00 -0.00000000000E+00 -0.12722932141E+04  0.12722932141E+04  0.00000000000E+00 0.  1.
         23    2    1    2    0    0  0.30664224064E+03 -0.29712557219E+03 -0.64451346528E+03  0.77835080055E+03  0.90107116241E+02 0.  0.
        254    2    1    2    0    0 -0.30664224064E+03  0.29712557219E+03 -0.11671621997E+03  0.10050059425E+04  0.90227556713E+03 0.  0.
        -24    2    4    4    0    0 -0.11074280019E+03  0.52852276816E+03  0.17847344636E+03  0.57436279348E+03  0.80246889183E+02 0.  0.
         24    2    4    4    0    0 -0.19589944045E+03 -0.23139719596E+03 -0.29518966632E+03  0.43064314901E+03  0.79970804783E+02 0.  0.
         13    1    3    3    0    0  0.20230347911E+03 -0.13370030890E+03 -0.35879827090E+03  0.43305735123E+03  0.00000000000E+00 0. -1.
        -13    1    3    3    0    0  0.10433876153E+03 -0.16342526330E+03 -0.28571519438E+03  0.34529344932E+03  0.00000000000E+00 0.  1.
          4    1    6    6  502    0  0.23214379151E+01 -0.86863737863E+01  0.24903151910E+01  0.93297284687E+01  0.00000000000E+00 0. -1.
          1    1    5    5  503    0  0.95474979577E-01  0.15629258723E+03  0.69008170777E+02  0.17084937685E+03  0.00000000000E+00 0. -1.
         -2    1    5    5    0  503 -0.11083827517E+03  0.37223018093E+03  0.10946527558E+03  0.40351341663E+03  0.00000000000E+00 0.  1.
         -3    1    6    6    0  502 -0.19822087837E+03 -0.22271082218E+03 -0.29767998151E+03  0.42131342054E+03  0.00000000000E+00 0.  1.
<mgrwt>
<rscale>  0 0.16127277E+04</rscale>
<asrwt>0</asrwt>
<pdfrwt beam="1">  1        1 0.78625159E-01 0.16127277E+04</pdfrwt>
<pdfrwt beam="2">  1       -1 0.19573741E+00 0.16127277E+04</pdfrwt>
<totfact> 0.66384052E+00</totfact>
</mgrwt>
</event>
<event>
12    1  0.1960998E-007  0.1905664E+04  0.7818608E-02  0.8652042E-01
          1   -1    0    0  501    0  0.00000000000E+00  0.00000000000E+00  0.12681157958E+04  0.12681157958E+04  0.00000000000E+00 0. -1.
         -1   -1    0    0    0  501 -0.00000000000E+00 -0.00000000000E+00 -0.71593520254E+03  0.71593520254E+03  0.00000000000E+00 0.  1.
         23    2    1    2    0    0  0.22864097684E+03 -0.69193251067E+03  0.11772501481E+03  0.74382688353E+03  0.91498404057E+02 0.  0.
        254    2    1    2    0    0 -0.22864097684E+03  0.69193251067E+03  0.43445557842E+03  0.12402241148E+04  0.90463081400E+03 0.  0.
        -24    2    4    4    0    0  0.29160828924E+03  0.49453378728E+03  0.10694353192E+03  0.58928512669E+03  0.78873191882E+02 0.  0.
         24    2    4    4    0    0 -0.52024926608E+03  0.19739872339E+03  0.32751204650E+03  0.65093898809E+03  0.82655131493E+02 0.  0.
         11    1    3    3    0    0  0.70552626533E+02 -0.29675654380E+03  0.86515251442E+02  0.31705994407E+03  0.00000000000E+00 0. -1.
        -11    1    3    3    0    0  0.15808835030E+03 -0.39517596686E+03  0.31209763363E+02  0.42676693946E+03  0.00000000000E+00 0.  1.
          2    1    6    6  502    0 -0.52206073890E+03  0.19928026085E+03  0.32842885690E+03  0.64817092770E+03  0.00000000000E+00 0. -1.
          3    1    5    5  503    0  0.28516116982E+03  0.44258104814E+03  0.10522807045E+03  0.53690578667E+03  0.00000000000E+00 0. -1.
         -4    1    5    5    0  503  0.64471194263E+01  0.51952739136E+02  0.17154614670E+01  0.52379340017E+02  0.00000000000E+00 0.  1.
         -1    1    6    6    0  502  0.18114728218E+01 -0.18815374681E+01 -0.91681039901E+00  0.27680603923E+01  0.00000000000E+00 0.  1.
<mgrwt>
<rscale>  0 0.19056639E+04</rscale>
<asrwt>0</asrwt>
<pdfrwt beam="1">  1        1 0.19509474E+00 0.19056639E+04</pdfrwt>
<pdfrwt beam="2">  1       -1 0.11014388E+00 0.19056639E+04</pdfrwt>
<totfact> 0.67847903E+00</totfact>
</mgrwt>
</event>
<event>
12    1  0.1960998E-007  0.1695925E+04  0.7818608E-02  0.8763692E-01
          1   -1    0    0  501    0  0.00000000000E+00  0.00000000000E+00  0.25052562749E+04  0.25052562749E+04  0.00000000000E+00 0.  1.
         -1   -1    0    0    0  501 -0.00000000000E+00 -0.00000000000E+00 -0.28701278913E+03  0.28701278913E+03  0.00000000000E+00 0. -1.
         23    2    1    2    0    0  0.46157136046E+03  0.16512314213E+03  0.13872598805E+04  0.14741580157E+04  0.91313231057E+02 0.  0.
        254    2    1    2    0    0 -0.46157136046E+03 -0.16512314213E+03  0.83098360527E+03  0.13181110484E+04  0.89809198350E+03 0.  0.
        -24    2    4    4    0    0 -0.16903596238E+03 -0.10670665079E+03  0.96026663115E+03  0.98413596269E+03  0.80325115977E+02 0.  0.
         24    2    4    4    0    0 -0.29253539808E+03 -0.58416491331E+02 -0.12928302588E+03  0.33397508571E+03  0.76392483321E+02 0.  0.
         11    1    3    3    0    0  0.14930247382E+03  0.95703699587E+02  0.54908331705E+03  0.57701205869E+03  0.00000000000E+00 0.  1.
        -11    1    3    3    0    0  0.31226888664E+03  0.69419442538E+02  0.83817656348E+03  0.89714595698E+03  0.00000000000E+00 0. -1.
          2    1    6    6  502    0 -0.13944433205E+03 -0.65469188926E+02 -0.75527952577E+02  0.17156750292E+03  0.00000000000E+00 0. -1.
          3    1    5    5  503    0 -0.10085208283E+03 -0.41794073294E+02  0.34939997517E+03  0.36605768646E+03  0.00000000000E+00 0. -1.
         -4    1    5    5    0  503 -0.68183879554E+02 -0.64912577500E+02  0.61086665599E+03  0.61807827623E+03  0.00000000000E+00 0.  1.
         -1    1    6    6    0  502 -0.15309106603E+03  0.70526975943E+01 -0.53755073300E+02  0.16240758279E+03  0.00000000000E+00 0.  1.
<mgrwt>
<rscale>  0 0.16959252E+04</rscale>
<asrwt>0</asrwt>
<pdfrwt beam="1">  1        1 0.38542403E+00 0.16959252E+04</pdfrwt>
<pdfrwt beam="2">  1       -1 0.44155815E-01 0.16959252E+04</pdfrwt>
<totfact> 0.64986290E+00</totfact>
</mgrwt>
</event>
<event>
12    1  0.1960998E-007  0.2006375E+04  0.7818608E-02  0.8603646E-01
         -2   -1    0    0    0  501 -0.00000000000E+00  0.00000000000E+00  0.70953458728E+03  0.70953458728E+03  0.00000000000E+00 0.  1.
          2   -1    0    0  501    0  0.00000000000E+00 -0.00000000000E+00 -0.14183738027E+04  0.14183738027E+04  0.00000000000E+00 0. -1.
         23    2    1    2    0    0  0.54492577347E+03  0.64168415781E+02  0.34351493442E+03  0.65449921270E+03  0.96462557954E+02 0.  0.
        254    2    1    2    0    0 -0.54492577347E+03 -0.64168415781E+02 -0.10523541499E+04  0.14734091773E+04  0.87316874821E+03 0.  0.
        -24    2    4    4    0    0  0.85717295333E+02 -0.17280410433E+03 -0.71484635360E+03  0.74474154908E+03  0.80162038893E+02 0.  0.
         24    2    4    4    0    0 -0.63064306880E+03  0.10863568855E+03 -0.33750779626E+03  0.72866762822E+03  0.86790591764E+02 0.  0.
         11    1    3    3    0    0  0.24383280924E+03 -0.18186871504E+02  0.16386709108E+03  0.29434269941E+03  0.00000000000E+00 0.  1.
        -11    1    3    3    0    0  0.30109296423E+03  0.82355287285E+02  0.17964784334E+03  0.36015651330E+03  0.00000000000E+00 0. -1.
          4    1    6    6  502    0 -0.90566415913E+02  0.17115112837E+01 -0.18793267319E+02  0.92511576890E+02  0.00000000000E+00 0. -1.
          1    1    5    5  503    0  0.48871601509E+02 -0.59801961443E+02 -0.41633512709E+03  0.42343788927E+03  0.00000000000E+00 0. -1.
         -2    1    5    5    0  503  0.36845693824E+02 -0.11300214289E+03 -0.29851122651E+03  0.32130365980E+03  0.00000000000E+00 0.  1.
         -3    1    6    6    0  502 -0.54007665289E+03  0.10692417727E+03 -0.31871452894E+03  0.63615605133E+03  0.00000000000E+00 0.  1.
<mgrwt>
<rscale>  0 0.20063751E+04</rscale>
<asrwt>0</asrwt>
<pdfrwt beam="1">  1        2 0.21821135E+00 0.20063751E+04</pdfrwt>
<pdfrwt beam="2">  1       -2 0.10915917E+00 0.20063751E+04</pdfrwt>
<totfact> 0.87803596E+00</totfact>
</mgrwt>
</event>
<event>
12    1  0.1960998E-007  0.1899673E+04  0.7818608E-02  0.8655019E-01
         -1   -1    0    0    0  501 -0.00000000000E+00  0.00000000000E+00  0.61306264623E+03  0.61306264623E+03  0.00000000000E+00 0.  1.
          1   -1    0    0  501    0  0.00000000000E+00 -0.00000000000E+00 -0.14716101135E+04  0.14716101135E+04  0.00000000000E+00 0. -1.
         23    2    1    2    0    0 -0.58190459378E+03 -0.42917887080E+03 -0.46398553314E+03  0.86405923530E+03  0.92240596993E+02 0.  0.
        254    2    1    2    0    0  0.58190459378E+03  0.42917887080E+03 -0.39456193418E+03  0.12206135245E+04  0.90078343504E+03 0.  0.
        -24    2    4    4    0    0  0.24205131292E+03  0.66334557549E+03 -0.12562265766E+03  0.72151727698E+03  0.78676160722E+02 0.  0.
         24    2    4    4    0    0  0.33985328086E+03 -0.23416670469E+03 -0.26893927652E+03  0.49909624750E+03  0.80214909576E+02 0.  0.
         13    1    3    3    0    0 -0.32167355809E+03 -0.18093320984E+03 -0.22488163723E+03  0.43218335826E+03  0.00000000000E+00 0.  1.
        -13    1    3    3    0    0 -0.26023103569E+03 -0.24824566096E+03 -0.23910389591E+03  0.43187587703E+03  0.00000000000E+00 0. -1.
          2    1    6    6  502    0  0.31620033711E+02 -0.33019423716E+02 -0.46008607969E+01  0.45948632128E+02  0.00000000000E+00 0. -1.
          3    1    5    5  503    0  0.14469629683E+03  0.34456861911E+03 -0.10190962808E+03  0.38736303887E+03  0.00000000000E+00 0. -1.
         -4    1    5    5    0  503  0.97355016085E+02  0.31877695638E+03 -0.23713029587E+02  0.33415423811E+03  0.00000000000E+00 0.  1.
         -3    1    6    6    0  502  0.30823324715E+03 -0.20114728097E+03 -0.26433841572E+03  0.45314761537E+03  0.00000000000E+00 0.  1.
<mgrwt>
<rscale>  0 0.18996728E+04</rscale>
<asrwt>0</asrwt>
<pdfrwt beam="1">  1        1 0.22640155E+00 0.18996728E+04</pdfrwt>
<pdfrwt beam="2">  1       -1 0.94317332E-01 0.18996728E+04</pdfrwt>
<totfact> 0.69702475E+00</totfact>
</mgrwt>
</event>
<event>
12    1  0.1960998E-007  0.1936303E+04  0.7818608E-02  0.8636994E-01
         -2   -1    0    0    0  501 -0.00000000000E+00  0.00000000000E+00  0.11333524085E+04  0.11333524085E+04  0.00000000000E+00 0.  1.
          2   -1    0    0  501    0  0.00000000000E+00 -0.00000000000E+00 -0.82703119425E+03  0.82703119425E+03  0.00000000000E+00 0. -1.
         23    2    1    2    0    0  0.27345028495E+03  0.63631046228E+03 -0.18514500091E+03  0.72335371980E+03  0.96415091321E+02 0.  0.
        254    2    1    2    0    0 -0.27345028495E+03 -0.63631046228E+03  0.49146621520E+03  0.12370298830E+04  0.89946530117E+03 0.  0.
        -24    2    4    4    0    0 -0.15033768604E+03 -0.23815256181E+03  0.70402647871E+03  0.76234425768E+03  0.78723706508E+02 0.  0.
         24    2    4    4    0    0 -0.12311259892E+03 -0.39815790047E+03 -0.21256026350E+03  0.47468562532E+03  0.80362625268E+02 0.  0.
         13    1    3    3    0    0  0.30690003808E+02  0.54787746551E+02  0.10177669297E+02  0.63617281128E+02  0.00000000000E+00 0.  1.
        -13    1    3    3    0    0  0.24276028115E+03  0.58152271573E+03 -0.19532267021E+03  0.65973643867E+03  0.00000000000E+00 0. -1.
          4    1    6    6  502    0 -0.89355948562E+02 -0.19579261919E+03 -0.76058351379E+02  0.22826324296E+03  0.00000000000E+00 0. -1.
          1    1    5    5  503    0 -0.11008271070E+02 -0.83467900255E+02  0.19597530361E+03  0.21329414439E+03  0.00000000000E+00 0. -1.
         -2    1    5    5    0  503 -0.13932941497E+03 -0.15468466155E+03  0.50805117510E+03  0.54905011330E+03  0.00000000000E+00 0.  1.
         -3    1    6    6    0  502 -0.33756650357E+02 -0.20236528129E+03 -0.13650191213E+03  0.24642238236E+03  0.00000000000E+00 0.  1.
<mgrwt>
<rscale>  0 0.19363035E+04</rscale>
<asrwt>0</asrwt>
<pdfrwt beam="1">  1        2 0.12723557E+00 0.19363035E+04</pdfrwt>
<pdfrwt beam="2">  1       -2 0.17436191E+00 0.19363035E+04</pdfrwt>
<totfact> 0.61043941E+00</totfact>
</mgrwt>
</event>
<event>
12    1  0.1960998E-007  0.3004469E+04  0.7818608E-02  0.8242456E-01
         -1   -1    0    0    0  501 -0.00000000000E+00  0.00000000000E+00  0.16513746670E+04  0.16513746670E+04  0.00000000000E+00 0.  1.
          1   -1    0    0  501    0  0.00000000000E+00 -0.00000000000E+00 -0.13665634344E+04  0.13665634344E+04  0.00000000000E+00 0. -1.
         23    2    1    2    0    0 -0.10524219699E+04 -0.38382627703E+03 -0.64294169531E+03  0.12947247437E+04  0.89574129275E+02 0.  0.
        254    2    1    2    0    0  0.10524219699E+04  0.38382627703E+03  0.92775292790E+03  0.17232133577E+04  0.92402606415E+03 0.  0.
        -24    2    4    4    0    0  0.60496942047E+03  0.66798222816E+03  0.67803461729E+03  0.11304661792E+04  0.77682580265E+02 0.  0.
         24    2    4    4    0    0  0.44745254943E+03 -0.28415595113E+03  0.24971831061E+03  0.59274717848E+03  0.89619163039E+02 0.  0.
         13    1    3    3    0    0 -0.71633752533E+03 -0.30520556739E+03 -0.44631723331E+03  0.89749036837E+03  0.00000000000E+00 0.  1.
        -13    1    3    3    0    0 -0.33608444457E+03 -0.78620709647E+02 -0.19662446200E+03  0.39723437530E+03  0.00000000000E+00 0. -1.
          4    1    6    6  502    0  0.59497669473E+02 -0.27876723411E+02  0.65044850533E+02  0.92454945578E+02  0.00000000000E+00 0. -1.
          3    1    5    5  503    0  0.15798625410E+03  0.12986191325E+03  0.13785640823E+03  0.24663366009E+03  0.00000000000E+00 0. -1.
         -4    1    5    5    0  503  0.44698316637E+03  0.53812031491E+03  0.54017820905E+03  0.88383251913E+03  0.00000000000E+00 0.  1.
         -3    1    6    6    0  502  0.38795487996E+03 -0.25627922771E+03  0.18467346008E+03  0.50029223290E+03  0.00000000000E+00 0.  1.
<mgrwt>
<rscale>  0 0.30044688E+04</rscale>
<asrwt>0</asrwt>
<pdfrwt beam="1">  1        1 0.21024053E+00 0.30044688E+04</pdfrwt>
<pdfrwt beam="2">  1       -1 0.25405764E+00 0.30044688E+04</pdfrwt>
<totfact> 0.45262417E-01</totfact>
</mgrwt>
</event>
<event>
12    1  0.1960998E-007  0.2273680E+04  0.7818608E-02  0.8488372E-01
          2   -1    0    0  501    0  0.00000000000E+00  0.00000000000E+00  0.15511439677E+04  0.15511439677E+04  0.00000000000E+00 0. -1.
         -2   -1    0    0    0  501 -0.00000000000E+00 -0.00000000000E+00 -0.83319483873E+03  0.83319483873E+03  0.00000000000E+00 0.  1.
         23    2    1    2    0    0 -0.92057884222E+03 -0.24961345650E+03  0.29266601490E+03  0.10018228193E+04  0.90682317370E+02 0.  0.
        254    2    1    2    0    0  0.92057884222E+03  0.24961345650E+03  0.42528311408E+03  0.13825159871E+04  0.90593181039E+03 0.  0.
        -24    2    4    4    0    0 -0.11795245485E+03  0.21890715730E+03  0.16399496182E+03  0.30830180523E+03  0.79514341368E+02 0.  0.
         24    2    4    4    0    0  0.10385312971E+04  0.30706299196E+02  0.26128815226E+03  0.10742141819E+04  0.78577848142E+02 0.  0.
         11    1    3    3    0    0 -0.70249635224E+03 -0.21893662779E+03  0.19717722486E+03  0.76178292834E+03  0.00000000000E+00 0.  1.
        -11    1    3    3    0    0 -0.21808248997E+03 -0.30676828709E+02  0.95488790036E+02  0.24003989101E+03  0.00000000000E+00 0. -1.
          2    1    6    6  502    0  0.10233511722E+04  0.34046921007E+02  0.26612369128E+03  0.10579360253E+04  0.00000000000E+00 0. -1.
          3    1    5    5  503    0 -0.98772764272E+02  0.12264781056E+03  0.13072609335E+03  0.20466522880E+03  0.00000000000E+00 0. -1.
         -4    1    5    5    0  503 -0.19179690581E+02  0.96259346737E+02  0.33268868476E+02  0.10363657643E+03  0.00000000000E+00 0.  1.
         -1    1    6    6    0  502  0.15180124861E+02 -0.33406218112E+01 -0.48355390222E+01  0.16278156606E+02  0.00000000000E+00 0.  1.
<mgrwt>
<rscale>  0 0.22736800E+04</rscale>
<asrwt>0</asrwt>
<pdfrwt beam="1">  1        2 0.23863753E+00 0.22736800E+04</pdfrwt>
<pdfrwt beam="2">  1       -2 0.12818382E+00 0.22736800E+04</pdfrwt>
<totfact> 0.48578188E+00</totfact>
</mgrwt>
</event>
<event>
12    1  0.1960998E-007  0.1453943E+04  0.7818608E-02  0.8915671E-01
          1   -1    0    0  501    0  0.00000000000E+00  0.00000000000E+00  0.18743745203E+04  0.18743745203E+04  0.00000000000E+00 0. -1.
         -1   -1    0    0    0  501 -0.00000000000E+00 -0.00000000000E+00 -0.28195424247E+03  0.28195424247E+03  0.00000000000E+00 0.  1.
         23    2    1    2    0    0 -0.14599902208E+03 -0.35656673408E+03  0.80731061997E+03  0.89926666643E+03  0.92057318703E+02 0.  0.
        254    2    1    2    0    0  0.14599902208E+03  0.35656673408E+03  0.78510965787E+03  0.12570620963E+04  0.90296865333E+03 0.  0.
        -24    2    4    4    0    0 -0.27677662800E+03  0.45353320036E+03  0.48115142294E+03  0.72122631613E+03  0.79768675792E+02 0.  0.
         24    2    4    4    0    0  0.42277565008E+03 -0.96966466281E+02  0.30395823493E+03  0.53583578022E+03  0.81164209478E+02 0.  0.
         11    1    3    3    0    0 -0.14438032361E+03 -0.32150210896E+03  0.77578244572E+03  0.85208431918E+03  0.00000000000E+00 0. -1.
        -11    1    3    3    0    0 -0.16186984612E+01 -0.35064625123E+02  0.31528174252E+02  0.47182347243E+02  0.00000000000E+00 0.  1.
          4    1    6    6  502    0  0.79179390925E+02 -0.49055329179E+02  0.48551659576E+02  0.10503839734E+03  0.00000000000E+00 0. -1.
          3    1    5    5  503    0 -0.14391719720E+03  0.30722736080E+03  0.29090707116E+03  0.44690909022E+03  0.00000000000E+00 0. -1.
         -4    1    5    5    0  503 -0.13285943080E+03  0.14630583957E+03  0.19024435178E+03  0.27431722590E+03  0.00000000000E+00 0.  1.
         -3    1    6    6    0  502  0.34359625915E+03 -0.47911137102E+02  0.25540657536E+03  0.43079738288E+03  0.00000000000E+00 0.  1.
<mgrwt>
<rscale>  0 0.14539434E+04</rscale>
<asrwt>0</asrwt>
<pdfrwt beam="1">  1        1 0.28836530E+00 0.14539434E+04</pdfrwt>
<pdfrwt beam="2">  1       -1 0.43377577E-01 0.14539434E+04</pdfrwt>
<totfact> 0.18473836E+01</totfact>
</mgrwt>
</event>
<event>
12    1  0.1960998E-007  0.2569215E+04  0.7818608E-02  0.8378734E-01
         -1   -1    0    0    0  501 -0.00000000000E+00  0.00000000000E+00  0.85504768044E+03  0.85504768044E+03  0.00000000000E+00 0.  1.
          1   -1    0    0  501    0  0.00000000000E+00 -0.00000000000E+00 -0.19299694165E+04  0.19299694165E+04  0.00000000000E+00 0. -1.
         23    2    1    2    0    0 -0.47966170558E+03 -0.45596156881E+03 -0.14577626566E+04  0.16052184478E+04  0.11695297407E+03 0.  0.
        254    2    1    2    0    0  0.47966170558E+03  0.45596156881E+03  0.38284092052E+03  0.11797986492E+04  0.89854403237E+03 0.  0.
        -24    2    4    4    0    0  0.71128652861E+03  0.20249695153E+03  0.15463382708E+03  0.75980806800E+03  0.80393647479E+02 0.  0.
         24    2    4    4    0    0 -0.23162482303E+03  0.25346461728E+03  0.22820709344E+03  0.41999058117E+03  0.80120159253E+02 0.  0.
         13    1    3    3    0    0 -0.34869965999E+03 -0.28874007696E+03 -0.10941600847E+04  0.11841235475E+04  0.00000000000E+00 0. -1.
        -13    1    3    3    0    0 -0.13096204559E+03 -0.16722149186E+03 -0.36360257194E+03  0.42109490029E+03  0.00000000000E+00 0.  1.
          2    1    6    6  502    0 -0.14620989398E+03  0.12395211733E+03  0.88141400848E+02  0.21097480188E+03  0.00000000000E+00 0. -1.
          1    1    5    5  503    0  0.50227198474E+03  0.11239245287E+03  0.13009274067E+03  0.53087977104E+03  0.00000000000E+00 0. -1.
         -2    1    5    5    0  503  0.20901454386E+03  0.90104498667E+02  0.24541086407E+02  0.22892829696E+03  0.00000000000E+00 0.  1.
         -1    1    6    6    0  502 -0.85414929050E+02  0.12951249995E+03  0.14006569259E+03  0.20901577928E+03  0.00000000000E+00 0.  1.
<mgrwt>
<rscale>  0 0.25692146E+04</rscale>
<asrwt>0</asrwt>
<pdfrwt beam="1">  1        1 0.29691837E+00 0.25692146E+04</pdfrwt>
<pdfrwt beam="2">  1       -1 0.13154580E+00 0.25692146E+04</pdfrwt>
<totfact> 0.14448313E+00</totfact>
</mgrwt>
</event>
<event>
12    1  0.1960998E-007  0.1225156E+04  0.7818608E-02  0.9091118E-01
          2   -1    0    0  501    0  0.00000000000E+00  0.00000000000E+00  0.14233913472E+04  0.14233913472E+04  0.00000000000E+00 0. -1.
         -2   -1    0    0    0  501 -0.00000000000E+00 -0.00000000000E+00 -0.26363222276E+03  0.26363222276E+03  0.00000000000E+00 0.  1.
         23    2    1    2    0    0  0.22174635904E+03  0.10403289323E+03  0.80203362404E+02  0.27327985824E+03  0.90857090839E+02 0.  0.
        254    2    1    2    0    0 -0.22174635904E+03 -0.10403289323E+03  0.10795557620E+04  0.14137437117E+04  0.87933858581E+03 0.  0.
        -24    2    4    4    0    0 -0.21504492338E+03  0.59702811003E+02 -0.72171178407E+02  0.24762928002E+03  0.79390406307E+02 0.  0.
         24    2    4    4    0    0 -0.67014356569E+01 -0.16373570423E+03  0.11517269404E+04  0.11661144317E+04  0.80583077839E+02 0.  0.
         11    1    3    3    0    0  0.14096347688E+03  0.56802606278E+02  0.93989515790E+02  0.17869322028E+03  0.00000000000E+00 0. -1.
        -11    1    3    3    0    0  0.80782882157E+02  0.47230286954E+02 -0.13786153385E+02  0.94586637959E+02  0.00000000000E+00 0.  1.
          2    1    6    6  502    0  0.32288281581E+02 -0.33286457708E+02  0.30874413078E+03  0.31220739851E+03  0.00000000000E+00 0. -1.
          1    1    5    5  503    0 -0.17428891546E+03  0.19958268639E+02 -0.32940722065E+02  0.17849383661E+03  0.00000000000E+00 0. -1.
         -2    1    5    5    0  503 -0.40756007927E+02  0.39744542364E+02 -0.39230456341E+02  0.69135443403E+02  0.00000000000E+00 0.  1.
         -1    1    6    6    0  502 -0.38989717238E+02 -0.13044924653E+03  0.84298280965E+03  0.85390703319E+03  0.00000000000E+00 0.  1.
<mgrwt>
<rscale>  0 0.12251560E+04</rscale>
<asrwt>0</asrwt>
<pdfrwt beam="1">  1        2 0.21898328E+00 0.12251560E+04</pdfrwt>
<pdfrwt beam="2">  1       -2 0.40558804E-01 0.12251560E+04</pdfrwt>
<totfact> 0.79512530E+01</totfact>
</mgrwt>
</event>
<event>
12    1  0.1960998E-007  0.2192203E+04  0.7818608E-02  0.8521680E-01
         -2   -1    0    0    0  501 -0.00000000000E+00  0.00000000000E+00  0.46880968275E+03  0.46880968275E+03  0.00000000000E+00 0.  1.
          2   -1    0    0  501    0  0.00000000000E+00 -0.00000000000E+00 -0.25627435111E+04  0.25627435111E+04  0.00000000000E+00 0. -1.
         23    2    1    2    0    0 -0.17929804342E+03  0.84488188927E+03 -0.12692484273E+04  0.15364950709E+04  0.62067202820E+02 0.  0.
        254    2    1    2    0    0  0.17929804342E+03 -0.84488188927E+03 -0.82468540105E+03  0.14950581229E+04  0.89951074755E+03 0.  0.
        -24    2    4    4    0    0  0.15144760940E+03  0.77949554285E+02  0.75753938469E+02  0.20295131602E+03  0.80237560243E+02 0.  0.
         24    2    4    4    0    0  0.27850434020E+02 -0.92283144356E+03 -0.90043933952E+03  0.12921068069E+04  0.79721241455E+02 0.  0.
         11    1    3    3    0    0 -0.67247218392E+02  0.42175897623E+03 -0.58761563336E+03  0.72642615246E+03  0.00000000000E+00 0. -1.
        -11    1    3    3    0    0 -0.11205082503E+03  0.42312291304E+03 -0.68163279392E+03  0.81006891848E+03  0.00000000000E+00 0.  1.
          4    1    6    6  502    0  0.21486791578E+02 -0.89576112105E+03 -0.88845896954E+03  0.12618276462E+04  0.00000000000E+00 0. -1.
          1    1    5    5  503    0  0.10711349189E+03  0.85928621653E+02  0.33857796409E+02  0.14143330068E+03  0.00000000000E+00 0. -1.
         -2    1    5    5    0  503  0.44334117517E+02 -0.79790673678E+01  0.41896142061E+02  0.61518015342E+02  0.00000000000E+00 0.  1.
         -3    1    6    6    0  502  0.63636424416E+01 -0.27070322505E+02 -0.11980369980E+02  0.30279160663E+02  0.00000000000E+00 0.  1.
<mgrwt>
<rscale>  0 0.21922034E+04</rscale>
<asrwt>0</asrwt>
<pdfrwt beam="1">  1        2 0.39426823E+00 0.21922034E+04</pdfrwt>
<pdfrwt beam="2">  1       -2 0.72124567E-01 0.21922034E+04</pdfrwt>
<totfact> 0.50966323E+00</totfact>
</mgrwt>
</event>
<event>
12    1  0.1960998E-007  0.2329150E+04  0.7818608E-02  0.8466516E-01
         -2   -1    0    0    0  501 -0.00000000000E+00  0.00000000000E+00  0.18403733937E+04  0.18403733937E+04  0.00000000000E+00 0. -1.
          2   -1    0    0  501    0  0.00000000000E+00 -0.00000000000E+00 -0.73693476918E+03  0.73693476918E+03  0.00000000000E+00 0.  1.
         23    2    1    2    0    0 -0.57193538432E+03 -0.46260100445E+03  0.11981771928E+04  0.14089089061E+04  0.91027178127E+02 0.  0.
        254    2    1    2    0    0  0.57193538432E+03  0.46260100445E+03 -0.94738568316E+02  0.11683992568E+04  0.90281318873E+03 0.  0.
        -24    2    4    4    0    0  0.50962204197E+03  0.25630874240E+03 -0.45988479385E+03  0.73699807042E+03  0.79141235111E+02 0.  0.
         24    2    4    4    0    0  0.62313342344E+02  0.20629226205E+03  0.36514622553E+03  0.43140118635E+03  0.79597534803E+02 0.  0.
         13    1    3    3    0    0 -0.80551711956E+02 -0.31448886967E+02  0.11747030002E+03  0.14586597334E+03  0.00000000000E+00 0.  1.
        -13    1    3    3    0    0 -0.49138367236E+03 -0.43115211748E+03  0.10807068928E+04  0.12630429328E+04  0.00000000000E+00 0. -1.
          4    1    6    6  502    0 -0.14023928513E+02  0.70736430018E+01  0.17525287906E+02  0.23533863100E+02  0.00000000000E+00 0. -1.
          3    1    5    5  503    0  0.61160309367E+02  0.82892264473E+01 -0.32821229910E+02  0.69903704120E+02  0.00000000000E+00 0. -1.
         -4    1    5    5    0  503  0.44846173261E+03  0.24801951595E+03 -0.42706356394E+03  0.66709436630E+03  0.00000000000E+00 0.  1.
         -3    1    6    6    0  502  0.76337270856E+02  0.19921861905E+03  0.34762093763E+03  0.40786732325E+03  0.00000000000E+00 0.  1.
<mgrwt>
<rscale>  0 0.23291502E+04</rscale>
<asrwt>0</asrwt>
<pdfrwt beam="1">  1        2 0.11337458E+00 0.23291502E+04</pdfrwt>
<pdfrwt beam="2">  1       -2 0.28313437E+00 0.23291502E+04</pdfrwt>
<totfact> 0.13984933E+00</totfact>
</mgrwt>
</event>
<event>
12    1  0.1960998E-007  0.1896707E+04  0.7818608E-02  0.8656497E-01
          1   -1    0    0  501    0  0.00000000000E+00  0.00000000000E+00  0.13794778491E+04  0.13794778491E+04  0.00000000000E+00 0. -1.
         -1   -1    0    0    0  501 -0.00000000000E+00 -0.00000000000E+00 -0.65196754639E+03  0.65196754639E+03  0.00000000000E+00 0.  1.
         23    2    1    2    0    0 -0.51700976164E+03  0.74053300069E+02 -0.26474457080E+03  0.59247680746E+03  0.90311099654E+02 0.  0.
        254    2    1    2    0    0  0.51700976164E+03 -0.74053300069E+02  0.99225487347E+03  0.14389685880E+04  0.90181920496E+03 0.  0.
        -24    2    4    4    0    0  0.67169152738E+03  0.18271657757E+03  0.51031203151E+03  0.86680404761E+03  0.79850058126E+02 0.  0.
         24    2    4    4    0    0 -0.15468176573E+03 -0.25676987764E+03  0.48194284196E+03  0.57216454039E+03  0.72430239850E+02 0.  0.
         13    1    3    3    0    0 -0.34676775458E+03  0.14774779188E+02 -0.14554329834E+03  0.37636288527E+03  0.00000000000E+00 0. -1.
        -13    1    3    3    0    0 -0.17024200706E+03  0.59278520880E+02 -0.11920127247E+03  0.21611392219E+03  0.00000000000E+00 0.  1.
          2    1    6    6  502    0 -0.45133332602E+02 -0.13273703124E+03  0.18371538187E+03  0.23110058137E+03  0.00000000000E+00 0. -1.
          1    1    5    5  503    0  0.28422397535E+03  0.94783355764E+02  0.17552327634E+03  0.34723993611E+03  0.00000000000E+00 0. -1.
         -2    1    5    5    0  503  0.38746755203E+03  0.87933221805E+02  0.33478875516E+03  0.51956411150E+03  0.00000000000E+00 0.  1.
         -1    1    6    6    0  502 -0.10954843313E+03 -0.12403284640E+03  0.29822746010E+03  0.34106395902E+03  0.00000000000E+00 0.  1.
<mgrwt>
<rscale>  0 0.18967075E+04</rscale>
<asrwt>0</asrwt>
<pdfrwt beam="1">  1        1 0.21222736E+00 0.18967075E+04</pdfrwt>
<pdfrwt beam="2">  1       -1 0.10030270E+00 0.18967075E+04</pdfrwt>
<totfact> 0.70362419E+00</totfact>
</mgrwt>
</event>
<event>
12    1  0.1960998E-007  0.9951517E+03  0.7818608E-02  0.9313878E-01
         -2   -1    0    0    0  501 -0.00000000000E+00  0.00000000000E+00  0.97331752278E+03  0.97331752278E+03  0.00000000000E+00 0.  1.
          2   -1    0    0  501    0  0.00000000000E+00 -0.00000000000E+00 -0.25436892598E+03  0.25436892598E+03  0.00000000000E+00 0. -1.
         23    2    1    2    0    0 -0.10633256838E+02  0.30248080108E+02  0.81721069318E+02  0.12564291401E+03  0.89887686417E+02 0.  0.
        254    2    1    2    0    0  0.10633256838E+02 -0.30248080108E+02  0.63722752749E+03  0.11020435348E+04  0.89856163851E+03 0.  0.
        -24    2    4    4    0    0 -0.35658281543E+03 -0.18687849551E+03  0.54650898441E+03  0.68469887159E+03  0.89808676528E+02 0.  0.
         24    2    4    4    0    0  0.36721607227E+03  0.15663041541E+03  0.90718543079E+02  0.41734466316E+03  0.81030753694E+02 0.  0.
         13    1    3    3    0    0 -0.97992079928E+01 -0.15837264484E+02  0.77101760853E+02  0.79319133570E+02  0.00000000000E+00 0.  1.
        -13    1    3    3    0    0 -0.83404884492E+00  0.46085344592E+02  0.46193084649E+01  0.46323780441E+02  0.00000000000E+00 0. -1.
          4    1    6    6  502    0  0.15119747985E+03  0.22666157892E+02  0.26427167440E+02  0.15515420653E+03  0.00000000000E+00 0. -1.
          1    1    5    5  503    0 -0.26347634083E+03 -0.12130652890E+03  0.45021903402E+03  0.53556720841E+03  0.00000000000E+00 0. -1.
         -2    1    5    5    0  503 -0.93106474605E+02 -0.65571966617E+02  0.96289950387E+02  0.14913166319E+03  0.00000000000E+00 0.  1.
         -3    1    6    6    0  502  0.21601859242E+03  0.13396425751E+03  0.64291375640E+02  0.26219045662E+03  0.00000000000E+00 0.  1.
<mgrwt>
<rscale>  0 0.99515171E+03</rscale>
<asrwt>0</asrwt>
<pdfrwt beam="1">  1        2 0.39133682E-01 0.99515171E+03</pdfrwt>
<pdfrwt beam="2">  1       -2 0.14974116E+00 0.99515171E+03</pdfrwt>
<totfact> 0.39642095E+01</totfact>
</mgrwt>
</event>
<event>
12    1  0.1960998E-007  0.1556536E+04  0.7818608E-02  0.8847704E-01
         -1   -1    0    0    0  501 -0.00000000000E+00  0.00000000000E+00  0.44959441539E+03  0.44959441539E+03  0.00000000000E+00 0.  1.
          1   -1    0    0  501    0  0.00000000000E+00 -0.00000000000E+00 -0.13472168595E+04  0.13472168595E+04  0.00000000000E+00 0. -1.
         23    2    1    2    0    0  0.35293347255E+03 -0.35792943682E+03 -0.40701343491E+03  0.65271522410E+03  0.87759385724E+02 0.  0.
        254    2    1    2    0    0 -0.35293347255E+03  0.35792943682E+03 -0.49060900920E+03  0.11440960508E+04  0.90309637123E+03 0.  0.
        -24    2    4    4    0    0  0.41396831086E+02  0.23481138469E+03  0.20979844304E+03  0.32734660780E+03  0.79311606551E+02 0.  0.
         24    2    4    4    0    0 -0.39433030364E+03  0.12311805214E+03 -0.70040745223E+03  0.81674944299E+03  0.76515425582E+02 0.  0.
         13    1    3    3    0    0  0.14660883455E+03 -0.96059246841E+02 -0.16528341040E+03  0.24091520298E+03  0.00000000000E+00 0. -1.
        -13    1    3    3    0    0  0.20632463800E+03 -0.26187018998E+03 -0.24173002451E+03  0.41180002113E+03  0.00000000000E+00 0.  1.
          2    1    6    6  502    0 -0.13085119026E+03  0.27750827479E+02 -0.29523213221E+03  0.32412058606E+03  0.00000000000E+00 0. -1.
          1    1    5    5  503    0  0.33065169150E+02  0.23784865012E+03  0.20916216770E+03  0.31845580254E+03  0.00000000000E+00 0. -1.
         -2    1    5    5    0  503  0.83316619364E+01 -0.30372654283E+01  0.63627533832E+00  0.88908052622E+01  0.00000000000E+00 0.  1.
         -1    1    6    6    0  502 -0.26347911338E+03  0.95367224657E+02 -0.40517532003E+03  0.49262885693E+03  0.00000000000E+00 0.  1.
<mgrwt>
<rscale>  0 0.15565361E+04</rscale>
<asrwt>0</asrwt>
<pdfrwt beam="1">  1        1 0.20726413E+00 0.15565361E+04</pdfrwt>
<pdfrwt beam="2">  1       -1 0.69168372E-01 0.15565361E+04</pdfrwt>
<totfact> 0.17045143E+01</totfact>
</mgrwt>
</event>
<event>
12    1  0.1960998E-007  0.1849050E+04  0.7818608E-02  0.8680642E-01
         -1   -1    0    0    0  501 -0.00000000000E+00  0.00000000000E+00  0.13794463237E+04  0.13794463237E+04  0.00000000000E+00 0.  1.
          1   -1    0    0  501    0  0.00000000000E+00 -0.00000000000E+00 -0.61962993209E+03  0.61962993209E+03  0.00000000000E+00 0. -1.
         23    2    1    2    0    0 -0.10082949477E+03 -0.68353901708E+03  0.42501396925E+03  0.81631609127E+03  0.91339542014E+02 0.  0.
        254    2    1    2    0    0  0.10082949477E+03  0.68353901708E+03  0.33480242234E+03  0.11827601645E+04  0.89968703993E+03 0.  0.
        -24    2    4    4    0    0 -0.33815174125E+03  0.34052815106E+03  0.37891785350E+03  0.61788162411E+03  0.88842219348E+02 0.  0.
         24    2    4    4    0    0  0.43898123602E+03  0.34301086602E+03 -0.44115431164E+02  0.56487854038E+03  0.82344485739E+02 0.  0.
         13    1    3    3    0    0 -0.43034011289E+02 -0.86386067940E+02  0.69718663108E+02  0.11905952649E+03  0.00000000000E+00 0.  1.
        -13    1    3    3    0    0 -0.57795483480E+02 -0.59715294914E+03  0.35529530614E+03  0.69725656478E+03  0.00000000000E+00 0. -1.
          2    1    6    6  502    0  0.34106686075E+03  0.22934646452E+03 -0.53957817895E+02  0.41453329228E+03  0.00000000000E+00 0. -1.
          1    1    5    5  503    0 -0.33253401307E+03  0.32760738318E+03  0.38232231116E+03  0.60338695459E+03  0.00000000000E+00 0. -1.
         -2    1    5    5    0  503 -0.56177281741E+01  0.12920767884E+02 -0.34044576559E+01  0.14494669520E+02  0.00000000000E+00 0.  1.
         -1    1    6    6    0  502  0.97914375265E+02  0.11366440149E+03  0.98423867306E+01  0.15034524810E+03  0.00000000000E+00 0.  1.
<mgrwt>
<rscale>  0 0.18490497E+04</rscale>
<asrwt>0</asrwt>
<pdfrwt beam="1">  1        1 0.95327682E-01 0.18490497E+04</pdfrwt>
<pdfrwt beam="2">  1       -1 0.21222251E+00 0.18490497E+04</pdfrwt>
<totfact> 0.38125299E+00</totfact>
</mgrwt>
</event>
<event>
12    1  0.1960998E-007  0.1101419E+04  0.7818608E-02  0.9203810E-01
          1   -1    0    0  501    0  0.00000000000E+00  0.00000000000E+00  0.20926247290E+04  0.20926247290E+04  0.00000000000E+00 0. -1.
         -1   -1    0    0    0  501 -0.00000000000E+00 -0.00000000000E+00 -0.14492841180E+03  0.14492841180E+03  0.00000000000E+00 0.  1.
         23    2    1    2    0    0  0.61811755532E+02  0.11958738853E+03  0.54533233839E+03  0.56905917461E+03  0.91209365211E+02 0.  0.
        254    2    1    2    0    0 -0.61811755532E+02 -0.11958738853E+03  0.14023639788E+04  0.16684939662E+04  0.89393822468E+03 0.  0.
        -24    2    4    4    0    0 -0.25325495266E+03 -0.43370832591E+03  0.63420251635E+03  0.81293723210E+03  0.80082011514E+02 0.  0.
         24    2    4    4    0    0  0.19144319713E+03  0.31412093738E+03  0.76816146247E+03  0.85555673411E+03  0.81134652491E+02 0.  0.
         11    1    3    3    0    0  0.44152459620E+02  0.48865086575E+02  0.11437534468E+03  0.13198089198E+03  0.00000000000E+00 0.  1.
        -11    1    3    3    0    0  0.17659295913E+02  0.70722301955E+02  0.43095699371E+03  0.43707828264E+03  0.00000000000E+00 0. -1.
          4    1    6    6  502    0  0.14577461694E+03  0.27673516775E+03  0.58861136179E+03  0.66655526946E+03  0.00000000000E+00 0. -1.
          3    1    5    5  503    0 -0.23428528782E+03 -0.42834162745E+03  0.60093071307E+03  0.77426343566E+03  0.00000000000E+00 0. -1.
         -4    1    5    5    0  503 -0.18969664841E+02 -0.53666984543E+01  0.33271803289E+02  0.38673796433E+02  0.00000000000E+00 0.  1.
         -3    1    6    6    0  502  0.45668580186E+02  0.37385769626E+02  0.17955010069E+03  0.18900146466E+03  0.00000000000E+00 0.  1.
<mgrwt>
<rscale>  0 0.11014187E+04</rscale>
<asrwt>0</asrwt>
<pdfrwt beam="1">  1        1 0.32194224E+00 0.11014187E+04</pdfrwt>
<pdfrwt beam="2">  1       -1 0.22296680E-01 0.11014187E+04</pdfrwt>
<totfact> 0.43910033E+01</totfact>
</mgrwt>
</event>
<event>
12    1  0.1960998E-007  0.1272840E+04  0.7818608E-02  0.9051385E-01
          2   -1    0    0  501    0  0.00000000000E+00  0.00000000000E+00  0.57706896736E+03  0.57706896736E+03  0.00000000000E+00 0. -1.
         -2   -1    0    0    0  501 -0.00000000000E+00 -0.00000000000E+00 -0.70187493956E+03  0.70187493956E+03  0.00000000000E+00 0.  1.
         23    2    1    2    0    0 -0.13785037414E+03  0.27242917201E+03 -0.23716408405E+00  0.31890833121E+03  0.92098252196E+02 0.  0.
        254    2    1    2    0    0  0.13785037414E+03 -0.27242917201E+03 -0.12456880812E+03  0.96003557571E+03  0.90162660745E+03 0.  0.
        -24    2    4    4    0    0  0.87880639099E+02 -0.40590239155E+03 -0.43658363920E+03  0.60792425332E+03  0.80541079955E+02 0.  0.
         24    2    4    4    0    0  0.49969735041E+02  0.13347321954E+03  0.31201483108E+03  0.35211132239E+03  0.79479895492E+02 0.  0.
         13    1    3    3    0    0  0.92285472303E+01  0.51071497330E+02  0.10397599550E+02  0.52929897033E+02  0.00000000000E+00 0.  1.
        -13    1    3    3    0    0 -0.14707892137E+03  0.22135767468E+03 -0.10634763634E+02  0.26597843418E+03  0.00000000000E+00 0. -1.
          4    1    6    6  502    0  0.43448846913E+02  0.82420127176E+02  0.11253733436E+03  0.14610109954E+03  0.00000000000E+00 0. -1.
          1    1    5    5  503    0 -0.33042996964E+01  0.19726062653E+01 -0.10033140853E+02  0.10745859078E+02  0.00000000000E+00 0. -1.
         -2    1    5    5    0  503  0.91184938796E+02 -0.40787499782E+03 -0.42655049835E+03  0.59717839424E+03  0.00000000000E+00 0.  1.
         -3    1    6    6    0  502  0.65208881280E+01  0.51053092367E+02  0.19947749672E+03  0.20601022285E+03  0.00000000000E+00 0.  1.
<mgrwt>
<rscale>  0 0.12728397E+04</rscale>
<asrwt>0</asrwt>
<pdfrwt beam="1">  1        2 0.88779842E-01 0.12728397E+04</pdfrwt>
<pdfrwt beam="2">  1       -2 0.10798076E+00 0.12728397E+04</pdfrwt>
<totfact> 0.35079051E+01</totfact>
</mgrwt>
</event>
<event>
12    1  0.1960998E-007  0.1969232E+04  0.7818608E-02  0.8621142E-01
         -2   -1    0    0    0  501 -0.00000000000E+00  0.00000000000E+00  0.45202036211E+03  0.45202036211E+03  0.00000000000E+00 0.  1.
          2   -1    0    0  501    0  0.00000000000E+00 -0.00000000000E+00 -0.21447451612E+04  0.21447451612E+04  0.00000000000E+00 0. -1.
         23    2    1    2    0    0 -0.60948369082E+03 -0.23553197495E+03 -0.12217413348E+04  0.13887569643E+04  0.95122742017E+02 0.  0.
        254    2    1    2    0    0  0.60948369082E+03  0.23553197495E+03 -0.47098346434E+03  0.12080085591E+04  0.90028527399E+03 0.  0.
        -24    2    4    4    0    0  0.82253029546E+03  0.18542728383E+03 -0.24100253208E+03  0.88113979410E+03  0.85940396453E+02 0.  0.
         24    2    4    4    0    0 -0.21304660465E+03  0.50104691121E+02 -0.22998093226E+03  0.32686876498E+03  0.77798615002E+02 0.  0.
         13    1    3    3    0    0 -0.31412007779E+03 -0.98310270243E+02 -0.70324327104E+03  0.77645826080E+03  0.00000000000E+00 0. -1.
        -13    1    3    3    0    0 -0.29536361303E+03 -0.13722170470E+03 -0.51849806377E+03  0.61229870347E+03  0.00000000000E+00 0.  1.
          4    1    6    6  502    0 -0.40799061378E+01  0.11834852739E+02 -0.39849265756E+02  0.41769287218E+02  0.00000000000E+00 0. -1.
          1    1    5    5  503    0  0.31855377534E+03  0.10866487922E+03 -0.73217513771E+02  0.34444936940E+03  0.00000000000E+00 0. -1.
         -2    1    5    5    0  503  0.50397652013E+03  0.76762404604E+02 -0.16778501831E+03  0.53669042470E+03  0.00000000000E+00 0.  1.
         -3    1    6    6    0  502 -0.20896669851E+03  0.38269838382E+02 -0.19013166650E+03  0.28509947777E+03  0.00000000000E+00 0.  1.
<mgrwt>
<rscale>  0 0.19692318E+04</rscale>
<asrwt>0</asrwt>
<pdfrwt beam="1">  1        2 0.32996079E+00 0.19692318E+04</pdfrwt>
<pdfrwt beam="2">  1       -2 0.69541595E-01 0.19692318E+04</pdfrwt>
<totfact> 0.97417085E+00</totfact>
</mgrwt>
</event>
<event>
12    1  0.1960998E-007  0.4070755E+04  0.7818608E-02  0.7990423E-01
          1   -1    0    0  501    0  0.00000000000E+00  0.00000000000E+00  0.28280214545E+04  0.28280214545E+04  0.00000000000E+00 0. -1.
         -1   -1    0    0    0  501 -0.00000000000E+00 -0.00000000000E+00 -0.14648975471E+04  0.14648975471E+04  0.00000000000E+00 0.  1.
         23    2    1    2    0    0  0.31223491307E+03  0.12227637568E+04  0.21952494379E+04  0.25337822516E+04  0.91052500757E+02 0.  0.
        254    2    1    2    0    0 -0.31223491307E+03 -0.12227637568E+04 -0.83212553040E+03  0.17591367500E+04  0.89971515551E+03 0.  0.
        -24    2    4    4    0    0  0.51872121092E+02  0.11183385563E+03 -0.83778706938E+01  0.14713441173E+03  0.79880023706E+02 0.  0.
         24    2    4    4    0    0 -0.36410703416E+03 -0.13345976125E+04 -0.82374765971E+03  0.16120023383E+04  0.79161937471E+02 0.  0.
         11    1    3    3    0    0  0.27550194398E+03  0.11544799268E+04  0.20370814616E+04  0.23576314606E+04  0.00000000000E+00 0.  1.
        -11    1    3    3    0    0  0.36732969090E+02  0.68283830051E+02  0.15816797623E+03  0.17615079100E+03  0.00000000000E+00 0. -1.
          4    1    6    6  502    0 -0.35478566171E+03 -0.12975689170E+04 -0.78448030456E+03  0.15572306535E+04  0.00000000000E+00 0. -1.
          1    1    5    5  503    0  0.59401867299E+02  0.87305435043E+02 -0.33938424877E+02  0.11091725524E+03  0.00000000000E+00 0. -1.
         -2    1    5    5    0  503 -0.75297462064E+01  0.24528420584E+02  0.25560554183E+02  0.36217156493E+02  0.00000000000E+00 0.  1.
         -3    1    6    6    0  502 -0.93213724582E+01 -0.37028695494E+02 -0.39267355151E+02  0.54771684793E+02  0.00000000000E+00 0.  1.
<mgrwt>
<rscale>  0 0.40707551E+04</rscale>
<asrwt>0</asrwt>
<pdfrwt beam="1">  1        1 0.43508022E+00 0.40707551E+04</pdfrwt>
<pdfrwt beam="2">  1       -1 0.22536885E+00 0.40707551E+04</pdfrwt>
<totfact> 0.62733022E-02</totfact>
</mgrwt>
</event>
<event>
12    1  0.1960998E-007  0.2198275E+04  0.7818608E-02  0.8519146E-01
         -2   -1    0    0    0  501 -0.00000000000E+00  0.00000000000E+00  0.80499397864E+03  0.80499397864E+03  0.00000000000E+00 0.  1.
          2   -1    0    0  501    0  0.00000000000E+00 -0.00000000000E+00 -0.15007606406E+04  0.15007606406E+04  0.00000000000E+00 0. -1.
         23    2    1    2    0    0  0.10784043040E+03  0.51223829428E+03  0.49365310484E+03  0.72519142128E+03  0.90507353387E+02 0.  0.
        254    2    1    2    0    0 -0.10784043040E+03 -0.51223829428E+03 -0.11894197668E+04  0.15805631980E+04  0.89969050931E+03 0.  0.
        -24    2    4    4    0    0  0.34999645504E+02 -0.60115690296E+03 -0.31119594805E+03  0.68274710596E+03  0.81768548059E+02 0.  0.
         24    2    4    4    0    0 -0.14284007590E+03  0.88918608682E+02 -0.87822381876E+03  0.89781609201E+03  0.80541001869E+02 0.  0.
         11    1    3    3    0    0  0.12746818006E+02  0.12340077239E+03  0.70456603962E+02  0.14266872480E+03  0.00000000000E+00 0. -1.
        -11    1    3    3    0    0  0.95093612392E+02  0.38883752189E+03  0.42319650088E+03  0.58252269647E+03  0.00000000000E+00 0.  1.
          2    1    6    6  502    0 -0.45738574954E+02  0.50998431720E+02 -0.19494320948E+03  0.20662940788E+03  0.00000000000E+00 0. -1.
          3    1    5    5  503    0  0.37283267434E+02 -0.10484425874E+03 -0.52067354831E+02  0.12285507747E+03  0.00000000000E+00 0. -1.
         -4    1    5    5    0  503 -0.22836219299E+01 -0.49631264422E+03 -0.25912859322E+03  0.55989202849E+03  0.00000000000E+00 0.  1.
         -1    1    6    6    0  502 -0.97101500948E+02  0.37920176962E+02 -0.68328060928E+03  0.69118668414E+03  0.00000000000E+00 0.  1.
<mgrwt>
<rscale>  0 0.21982750E+04</rscale>
<asrwt>0</asrwt>
<pdfrwt beam="1">  1        2 0.23088625E+00 0.21982750E+04</pdfrwt>
<pdfrwt beam="2">  1       -2 0.12384523E+00 0.21982750E+04</pdfrwt>
<totfact> 0.56904995E+00</totfact>
</mgrwt>
</event>
<event>
12    1  0.1960998E-007  0.1162662E+04  0.7818608E-02  0.9146181E-01
          2   -1    0    0  501    0  0.00000000000E+00  0.00000000000E+00  0.29930774980E+04  0.29930774980E+04  0.00000000000E+00 0. -1.
         -2   -1    0    0    0  501 -0.00000000000E+00 -0.00000000000E+00 -0.11290910872E+03  0.11290910872E+03  0.00000000000E+00 0.  1.
         23    2    1    2    0    0 -0.14739967426E+03 -0.90103548706E+02  0.24260738025E+03  0.31263246428E+03  0.95054738488E+02 0.  0.
        254    2    1    2    0    0  0.14739967426E+03  0.90103548706E+02  0.26375610091E+04  0.27933541425E+04  0.90346774999E+03 0.  0.
        -24    2    4    4    0    0 -0.37104939808E+03 -0.30882772600E+02  0.11619416759E+04  0.12227454227E+04  0.79790408355E+02 0.  0.
         24    2    4    4    0    0  0.51844907234E+03  0.12098632131E+03  0.14756193332E+04  0.15706087197E+04  0.77020798665E+02 0.  0.
         13    1    3    3    0    0 -0.31658579652E+02 -0.69568788684E+02  0.68990680032E+02  0.10296502297E+03  0.00000000000E+00 0.  1.
        -13    1    3    3    0    0 -0.11574109460E+03 -0.20534760023E+02  0.17361670022E+03  0.20966744131E+03  0.00000000000E+00 0. -1.
          4    1    6    6  502    0  0.66728151746E+02  0.28176376106E+02  0.14018442487E+03  0.15779172152E+03  0.00000000000E+00 0. -1.
          1    1    5    5  503    0 -0.25162464706E+02 -0.17438943529E+02  0.15425977255E+03  0.15726838147E+03  0.00000000000E+00 0. -1.
         -2    1    5    5    0  503 -0.34588693338E+03 -0.13443829071E+02  0.10076819033E+04  0.10654770413E+04  0.00000000000E+00 0.  1.
         -3    1    6    6    0  502  0.45172092060E+03  0.92809945201E+02  0.13354349083E+04  0.14128169982E+04  0.00000000000E+00 0.  1.
<mgrwt>
<rscale>  0 0.11626620E+04</rscale>
<asrwt>0</asrwt>
<pdfrwt beam="1">  1        2 0.46047340E+00 0.11626620E+04</pdfrwt>
<pdfrwt beam="2">  1       -2 0.17370634E-01 0.11626620E+04</pdfrwt>
<totfact> 0.48287659E+01</totfact>
</mgrwt>
</event>
<event>
12    1  0.1960998E-007  0.2060553E+04  0.7818608E-02  0.8578822E-01
          2   -1    0    0  501    0  0.00000000000E+00  0.00000000000E+00  0.10393880674E+04  0.10393880674E+04  0.00000000000E+00 0. -1.
         -2   -1    0    0    0  501 -0.00000000000E+00 -0.00000000000E+00 -0.10212449890E+04  0.10212449890E+04  0.00000000000E+00 0.  1.
         23    2    1    2    0    0 -0.14424852649E+03 -0.78801720361E+03 -0.19808967241E+03  0.83009717026E+03  0.89683015011E+02 0.  0.
        254    2    1    2    0    0  0.14424852649E+03  0.78801720361E+03  0.21623275086E+03  0.12305358861E+04  0.90867112527E+03 0.  0.
        -24    2    4    4    0    0 -0.26155615943E+03  0.70520878691E+03 -0.44827538763E+00  0.75627726985E+03  0.78892650326E+02 0.  0.
         24    2    4    4    0    0  0.40580468591E+03  0.82808416700E+02  0.21668102624E+03  0.47425861626E+03  0.80224005019E+02 0.  0.
         11    1    3    3    0    0 -0.13936979467E+03 -0.65473693040E+03 -0.19282137420E+03  0.69662362151E+03  0.00000000000E+00 0.  1.
        -11    1    3    3    0    0 -0.48787318190E+01 -0.13328027321E+03 -0.52682982175E+01  0.13347354875E+03  0.00000000000E+00 0. -1.
          4    1    6    6  502    0  0.11669279675E+02  0.18066750603E+02  0.18538625661E+02  0.28394721462E+02  0.00000000000E+00 0. -1.
          3    1    5    5  503    0 -0.15703510116E+03  0.41349245539E+03  0.38420533778E+02  0.44397316482E+03  0.00000000000E+00 0. -1.
         -4    1    5    5    0  503 -0.10452105826E+03  0.29171633152E+03 -0.38868809166E+02  0.31230410504E+03  0.00000000000E+00 0.  1.
         -3    1    6    6    0  502  0.39413540624E+03  0.64741666096E+02  0.19814240058E+03  0.44586389480E+03  0.00000000000E+00 0.  1.
<mgrwt>
<rscale>  0 0.20605532E+04</rscale>
<asrwt>0</asrwt>
<pdfrwt beam="1">  1        2 0.15990586E+00 0.20605532E+04</pdfrwt>
<pdfrwt beam="2">  1       -2 0.15711461E+00 0.20605532E+04</pdfrwt>
<totfact> 0.58160730E+00</totfact>
</mgrwt>
</event>
<event>
12    1  0.1960998E-007  0.1169397E+04  0.7818608E-02  0.9140073E-01
         -2   -1    0    0    0  501 -0.00000000000E+00  0.00000000000E+00  0.54798387454E+03  0.54798387454E+03  0.00000000000E+00 0. -1.
          2   -1    0    0  501    0  0.00000000000E+00 -0.00000000000E+00 -0.62387279655E+03  0.62387279655E+03  0.00000000000E+00 0.  1.
         23    2    1    2    0    0 -0.23226117701E+02 -0.20909355551E+03  0.64809230105E+02  0.23754871417E+03  0.89272547834E+02 0.  0.
        254    2    1    2    0    0  0.23226117701E+02  0.20909355551E+03 -0.14069815212E+03  0.93430795691E+03  0.89937523918E+03 0.  0.
        -24    2    4    4    0    0 -0.20147596031E+01 -0.34803194803E+03 -0.91588774524E+02  0.36879853553E+03  0.80582628907E+02 0.  0.
         24    2    4    4    0    0  0.25240877305E+02  0.55712550355E+03 -0.49109377595E+02  0.56550942139E+03  0.79769957528E+02 0.  0.
         11    1    3    3    0    0 -0.19911134058E+02 -0.11141891775E+03 -0.11203704157E+02  0.11373720359E+03  0.00000000000E+00 0.  1.
        -11    1    3    3    0    0 -0.33149836433E+01 -0.97674637762E+02  0.76012934262E+02  0.12381151059E+03  0.00000000000E+00 0. -1.
          2    1    6    6  502    0  0.38600106097E+02  0.17441123189E+03  0.53346829434E+01  0.17871123312E+03  0.00000000000E+00 0. -1.
          1    1    5    5  503    0  0.93465488577E+01 -0.11534466135E+03 -0.69022471625E+02  0.13474364722E+03  0.00000000000E+00 0. -1.
         -2    1    5    5    0  503 -0.11361308461E+02 -0.23268728668E+03 -0.22566302899E+02  0.23405488830E+03  0.00000000000E+00 0.  1.
         -1    1    6    6    0  502 -0.13359228792E+02  0.38271427165E+03 -0.54444060539E+02  0.38679818827E+03  0.00000000000E+00 0.  1.
<mgrwt>
<rscale>  0 0.11693968E+04</rscale>
<asrwt>0</asrwt>
<pdfrwt beam="1">  1        2 0.95980429E-01 0.11693968E+04</pdfrwt>
<pdfrwt beam="2">  1       -2 0.84305212E-01 0.11693968E+04</pdfrwt>
<totfact> 0.57431781E+01</totfact>
</mgrwt>
</event>
<event>
12    1  0.1960998E-007  0.1800196E+04  0.7818608E-02  0.8706195E-01
          1   -1    0    0  501    0  0.00000000000E+00  0.00000000000E+00  0.24353203786E+04  0.24353203786E+04  0.00000000000E+00 0. -1.
         -1   -1    0    0    0  501 -0.00000000000E+00 -0.00000000000E+00 -0.33267759717E+03  0.33267759717E+03  0.00000000000E+00 0.  1.
         23    2    1    2    0    0  0.22532517345E+03 -0.15688272189E+03 -0.15099932488E+03  0.32548287952E+03  0.88060697949E+02 0.  0.
        254    2    1    2    0    0 -0.22532517345E+03  0.15688272189E+03  0.22536421063E+04  0.24425150963E+04  0.90088491488E+03 0.  0.
        -24    2    4    4    0    0  0.25649516489E+03 -0.11403074319E+03  0.13431333236E+04  0.13743816680E+04  0.78262791376E+02 0.  0.
         24    2    4    4    0    0 -0.48182033834E+03  0.27091346509E+03  0.91050878274E+03  0.10681334282E+04  0.79610508334E+02 0.  0.
         13    1    3    3    0    0  0.14350375701E+03 -0.47015166030E+02 -0.87062303318E+02  0.17430891765E+03  0.00000000000E+00 0. -1.
        -13    1    3    3    0    0  0.81821416438E+02 -0.10986755586E+03 -0.63937021565E+02  0.15117396186E+03  0.00000000000E+00 0.  1.
          2    1    6    6  502    0 -0.24790691106E+02  0.26705386308E+02  0.96883417457E+02  0.10350919090E+03  0.00000000000E+00 0. -1.
          1    1    5    5  503    0  0.25531907825E+02  0.47130755259E+01  0.62445450457E+02  0.67627846934E+02  0.00000000000E+00 0. -1.
         -2    1    5    5    0  503  0.23096325706E+03 -0.11874381872E+03  0.12806878731E+04  0.13067538211E+04  0.00000000000E+00 0.  1.
         -1    1    6    6    0  502 -0.45702964724E+03  0.24420807878E+03  0.81362536528E+03  0.96462423732E+03  0.00000000000E+00 0.  1.
<mgrwt>
<rscale>  0 0.18001961E+04</rscale>
<asrwt>0</asrwt>
<pdfrwt beam="1">  1        1 0.37466466E+00 0.18001961E+04</pdfrwt>
<pdfrwt beam="2">  1       -1 0.51181170E-01 0.18001961E+04</pdfrwt>
<totfact> 0.54453561E+00</totfact>
</mgrwt>
</event>
<event>
12    1  0.1960998E-007  0.1262462E+04  0.7818608E-02  0.9059875E-01
          1   -1    0    0  501    0  0.00000000000E+00  0.00000000000E+00  0.55643299243E+03  0.55643299243E+03  0.00000000000E+00 0.  1.
         -1   -1    0    0    0  501 -0.00000000000E+00 -0.00000000000E+00 -0.71608322183E+03  0.71608322183E+03  0.00000000000E+00 0. -1.
         23    2    1    2    0    0 -0.26937979068E+02  0.12838389206E+03  0.23208480656E+03  0.28174719589E+03  0.91159456467E+02 0.  0.
        254    2    1    2    0    0  0.26937979068E+02 -0.12838389206E+03 -0.39173503596E+03  0.99076901837E+03  0.90053252629E+03 0.  0.
        -24    2    4    4    0    0 -0.53281331699E+02 -0.27526036133E+03  0.21164741762E+03  0.35973804369E+03  0.77522021787E+02 0.  0.
         24    2    4    4    0    0  0.80219310767E+02  0.14687646927E+03 -0.60338245358E+03  0.63103097468E+03  0.78242384107E+02 0.  0.
         11    1    3    3    0    0  0.38335295314E+01  0.11683618035E+03  0.21495164601E+03  0.24468264980E+03  0.00000000000E+00 0.  1.
        -11    1    3    3    0    0 -0.30771508599E+02  0.11547711704E+02  0.17133160543E+02  0.37064546096E+02  0.00000000000E+00 0. -1.
          4    1    6    6  502    0  0.73411593479E+02  0.13171146995E+03 -0.40851341902E+03  0.43545423054E+03  0.00000000000E+00 0. -1.
          3    1    5    5  503    0 -0.23443408666E+02 -0.25170186165E+03  0.18106730672E+03  0.31094821133E+03  0.00000000000E+00 0. -1.
         -4    1    5    5    0  503 -0.29837923034E+02 -0.23558499674E+02  0.30580110909E+02  0.48789832353E+02  0.00000000000E+00 0.  1.
         -3    1    6    6    0  502  0.68077172888E+01  0.15164999325E+02 -0.19486903456E+03  0.19557674415E+03  0.00000000000E+00 0.  1.
<mgrwt>
<rscale>  0 0.12624616E+04</rscale>
<asrwt>0</asrwt>
<pdfrwt beam="1">  1        1 0.85605076E-01 0.12624616E+04</pdfrwt>
<pdfrwt beam="2">  1       -1 0.11016665E+00 0.12624616E+04</pdfrwt>
<totfact> 0.28602400E+01</totfact>
</mgrwt>
</event>
<event>
12    1  0.1960998E-007  0.1870058E+04  0.7818608E-02  0.8669906E-01
         -1   -1    0    0    0  501 -0.00000000000E+00  0.00000000000E+00  0.20564525429E+03  0.20564525429E+03  0.00000000000E+00 0.  1.
          1   -1    0    0  501    0  0.00000000000E+00 -0.00000000000E+00 -0.42513941407E+04  0.42513941407E+04  0.00000000000E+00 0. -1.
         23    2    1    2    0    0  0.60350113970E+03 -0.37166374700E+03 -0.17895695247E+04  0.19269634248E+04  0.91002143847E+02 0.  0.
        254    2    1    2    0    0 -0.60350113970E+03  0.37166374700E+03 -0.22561793617E+04  0.25300759702E+04  0.89921717982E+03 0.  0.
        -24    2    4    4    0    0  0.57471187776E+01 -0.16081798407E+03 -0.11098332524E+04  0.11244030454E+04  0.81589870815E+02 0.  0.
         24    2    4    4    0    0 -0.60924825847E+03  0.53248173107E+03 -0.11463461094E+04  0.14056729249E+04  0.84182746976E+02 0.  0.
         11    1    3    3    0    0  0.56644138679E+03 -0.35485877056E+03 -0.16179056419E+04  0.17505425610E+04  0.00000000000E+00 0.  1.
        -11    1    3    3    0    0  0.37059752907E+02 -0.16804976437E+02 -0.17166388283E+03  0.17642086381E+03  0.00000000000E+00 0. -1.
          2    1    6    6  502    0 -0.53263600421E+03  0.49742437783E+03 -0.10123760474E+04  0.12474122758E+04  0.00000000000E+00 0. -1.
          3    1    5    5  503    0  0.37405649666E+02 -0.98595465376E+02 -0.79221996962E+03  0.79920756295E+03  0.00000000000E+00 0. -1.
         -4    1    5    5    0  503 -0.31658530888E+02 -0.62222518694E+02 -0.31761328275E+03  0.32519548243E+03  0.00000000000E+00 0.  1.
         -1    1    6    6    0  502 -0.76612254265E+02  0.35057353234E+02 -0.13397006199E+03  0.15826064902E+03  0.00000000000E+00 0.  1.
<mgrwt>
<rscale>  0 0.18700578E+04</rscale>
<asrwt>0</asrwt>
<pdfrwt beam="1">  1        1 0.65406051E+00 0.18700578E+04</pdfrwt>
<pdfrwt beam="2">  1       -1 0.31637738E-01 0.18700578E+04</pdfrwt>
<totfact> 0.49986100E-01</totfact>
</mgrwt>
</event>
<event>
12    1  0.1960998E-007  0.1802917E+04  0.7818608E-02  0.8704750E-01
          2   -1    0    0  501    0  0.00000000000E+00  0.00000000000E+00  0.28010232019E+04  0.28010232019E+04  0.00000000000E+00 0. -1.
         -2   -1    0    0    0  501 -0.00000000000E+00 -0.00000000000E+00 -0.29011809924E+03  0.29011809924E+03  0.00000000000E+00 0.  1.
         23    2    1    2    0    0  0.60535392251E+03 -0.29295739108E+03  0.10616937411E+04  0.12600908436E+04  0.91421712971E+02 0.  0.
        254    2    1    2    0    0 -0.60535392251E+03  0.29295739108E+03  0.14492113615E+04  0.18310504576E+04  0.89456961904E+03 0.  0.
        -24    2    4    4    0    0  0.18515028135E+03  0.21825031910E+02  0.61593414640E+03  0.64819661642E+03  0.77633898064E+02 0.  0.
         24    2    4    4    0    0 -0.79050420387E+03  0.27113235917E+03  0.83327721514E+03  0.11828538412E+04  0.79891424887E+02 0.  0.
         13    1    3    3    0    0  0.34729416795E+03 -0.21499240030E+03  0.66669247027E+03  0.78186560302E+03  0.00000000000E+00 0. -1.
        -13    1    3    3    0    0  0.25805975457E+03 -0.77964990784E+02  0.39500127085E+03  0.47822524054E+03  0.00000000000E+00 0.  1.
          4    1    6    6  502    0 -0.41048193230E+03  0.16516337429E+03  0.39451152172E+03  0.59280156690E+03  0.00000000000E+00 0. -1.
          3    1    5    5  503    0  0.88956713522E+02  0.62281412903E+01  0.42004828661E+03  0.42940965256E+03  0.00000000000E+00 0. -1.
         -4    1    5    5    0  503  0.96193567833E+02  0.15596890620E+02  0.19588585979E+03  0.21878696386E+03  0.00000000000E+00 0.  1.
         -3    1    6    6    0  502 -0.38002227157E+03  0.10596898488E+03  0.43876569341E+03  0.59005227427E+03  0.00000000000E+00 0.  1.
<mgrwt>
<rscale>  0 0.18029171E+04</rscale>
<asrwt>0</asrwt>
<pdfrwt beam="1">  1        2 0.43092663E+00 0.18029171E+04</pdfrwt>
<pdfrwt beam="2">  1       -2 0.44633556E-01 0.18029171E+04</pdfrwt>
<totfact> 0.10402051E+01</totfact>
</mgrwt>
</event>
<event>
12    1  0.1960998E-007  0.3528416E+04  0.7818608E-02  0.8107088E-01
          1   -1    0    0  501    0  0.00000000000E+00  0.00000000000E+00  0.21782185389E+04  0.21782185389E+04  0.00000000000E+00 0. -1.
         -1   -1    0    0    0  501 -0.00000000000E+00 -0.00000000000E+00 -0.14288881386E+04  0.14288881386E+04  0.00000000000E+00 0.  1.
         23    2    1    2    0    0 -0.14579668749E+04  0.75714146404E+03  0.21941358760E+03  0.16599455957E+04  0.91358925322E+02 0.  0.
        254    2    1    2    0    0  0.14579668749E+04 -0.75714146404E+03  0.52991681271E+03  0.19471610818E+04  0.90094053350E+03 0.  0.
        -24    2    4    4    0    0  0.58433310086E+03 -0.78483225903E+03  0.15887415594E+03  0.99426407214E+03  0.76897335046E+02 0.  0.
         24    2    4    4    0    0  0.87363377408E+03  0.27690794986E+02  0.37104265677E+03  0.95289700962E+03  0.79607201024E+02 0.  0.
         11    1    3    3    0    0 -0.34675891226E+03  0.18435251023E+03  0.13479484514E+02  0.39294947228E+03  0.00000000000E+00 0. -1.
        -11    1    3    3    0    0 -0.11112079627E+04  0.57278895381E+03  0.20593410309E+03  0.12669961234E+04  0.00000000000E+00 0.  1.
          4    1    6    6  502    0  0.13545402223E+03 -0.16133310628E+02  0.36155236479E+02  0.14112149721E+03  0.00000000000E+00 0. -1.
          3    1    5    5  503    0  0.30615744244E+02 -0.38470201202E+02 -0.87408500064E+01  0.49936786390E+02  0.00000000000E+00 0. -1.
         -2    1    5    5    0  503  0.55371735662E+03 -0.74636205783E+03  0.16761500595E+03  0.94432728575E+03  0.00000000000E+00 0.  1.
         -3    1    6    6    0  502  0.73817975185E+03  0.43824105614E+02  0.33488742029E+03  0.81177551241E+03  0.00000000000E+00 0.  1.
<mgrwt>
<rscale>  0 0.35284164E+04</rscale>
<asrwt>0</asrwt>
<pdfrwt beam="1">  1        1 0.33511055E+00 0.35284164E+04</pdfrwt>
<pdfrwt beam="2">  1       -1 0.21982894E+00 0.35284164E+04</pdfrwt>
<totfact> 0.20246819E-01</totfact>
</mgrwt>
</event>
<event>
12    1  0.1960998E-007  0.2372249E+04  0.7818608E-02  0.8449967E-01
         -2   -1    0    0    0  501 -0.00000000000E+00  0.00000000000E+00  0.45138732208E+03  0.45138732208E+03  0.00000000000E+00 0.  1.
          2   -1    0    0  501    0  0.00000000000E+00 -0.00000000000E+00 -0.31168173941E+04  0.31168173941E+04  0.00000000000E+00 0. -1.
         23    2    1    2    0    0  0.25081714447E+03  0.65576429559E+03 -0.22606593202E+04  0.23690171066E+04  0.93410053231E+02 0.  0.
        254    2    1    2    0    0 -0.25081714447E+03 -0.65576429559E+03 -0.40477075186E+03  0.11991876096E+04  0.88389790710E+03 0.  0.
        -24    2    4    4    0    0  0.26301568404E+03 -0.50872043728E+03 -0.28907467233E+03  0.64650690569E+03  0.80207727608E+02 0.  0.
         24    2    4    4    0    0 -0.51383282851E+03 -0.14704385831E+03 -0.11569607954E+03  0.55268070393E+03  0.80151766980E+02 0.  0.
         11    1    3    3    0    0  0.20216425373E+03  0.59348738176E+03 -0.20621095468E+04  0.21553174803E+04  0.00000000000E+00 0. -1.
        -11    1    3    3    0    0  0.48652890740E+02  0.62276913824E+02 -0.19854977335E+03  0.21369962628E+03  0.00000000000E+00 0.  1.
          2    1    6    6  502    0 -0.28541040158E+03 -0.40997532127E+02 -0.53252039867E+02  0.29321608878E+03  0.00000000000E+00 0. -1.
          1    1    5    5  503    0  0.12307187610E+03 -0.15834339509E+03 -0.11241337376E+03  0.22990451073E+03  0.00000000000E+00 0. -1.
         -2    1    5    5    0  503  0.13994380795E+03 -0.35037704219E+03 -0.17666129857E+03  0.41660239496E+03  0.00000000000E+00 0.  1.
         -1    1    6    6    0  502 -0.22842242693E+03 -0.10604632618E+03 -0.62444039669E+02  0.25946461515E+03  0.00000000000E+00 0.  1.
<mgrwt>
<rscale>  0 0.23722494E+04</rscale>
<asrwt>0</asrwt>
<pdfrwt beam="1">  1        2 0.47951038E+00 0.23722494E+04</pdfrwt>
<pdfrwt beam="2">  1       -2 0.69444202E-01 0.23722494E+04</pdfrwt>
<totfact> 0.25047403E+00</totfact>
</mgrwt>
</event>
<event>
12    1  0.1960998E-007  0.3949250E+04  0.7818608E-02  0.8014863E-01
         -2   -1    0    0    0  501 -0.00000000000E+00  0.00000000000E+00  0.16617921386E+04  0.16617921386E+04  0.00000000000E+00 0.  1.
          2   -1    0    0  501    0  0.00000000000E+00 -0.00000000000E+00 -0.23463482482E+04  0.23463482482E+04  0.00000000000E+00 0. -1.
         23    2    1    2    0    0 -0.40219902136E+03 -0.16709786059E+04  0.42590691253E+03  0.17730266353E+04  0.91066992972E+02 0.  0.
        254    2    1    2    0    0  0.40219902136E+03  0.16709786059E+04 -0.11104630222E+04  0.22351137514E+04  0.89926181060E+03 0.  0.
        -24    2    4    4    0    0  0.51099863648E+03  0.92704948923E+03 -0.10225771389E+04  0.14740566166E+04  0.81477248598E+02 0.  0.
         24    2    4    4    0    0 -0.10879961513E+03  0.74392911670E+03 -0.87885883305E+02  0.76105713484E+03  0.78842546117E+02 0.  0.
         13    1    3    3    0    0 -0.27755385942E+03 -0.10129722318E+04  0.29085217155E+03  0.10898366267E+04  0.00000000000E+00 0.  1.
        -13    1    3    3    0    0 -0.12464516194E+03 -0.65800637411E+03  0.13505474097E+03  0.68319000858E+03  0.00000000000E+00 0. -1.
          2    1    6    6  502    0 -0.28295481048E+01  0.40019361708E+02 -0.23048633126E+02  0.46268727484E+02  0.00000000000E+00 0. -1.
          1    1    5    5  503    0  0.21375210415E+02  0.68758735296E+02 -0.90904543553E+02  0.11596680274E+03  0.00000000000E+00 0. -1.
         -2    1    5    5    0  503  0.48962342607E+03  0.85829075393E+03 -0.93167259531E+03  0.13580898139E+04  0.00000000000E+00 0.  1.
         -1    1    6    6    0  502 -0.10597006702E+03  0.70390975499E+03 -0.64837250179E+02  0.71478840735E+03  0.00000000000E+00 0.  1.
<mgrwt>
<rscale>  0 0.39492496E+04</rscale>
<asrwt>0</asrwt>
<pdfrwt beam="1">  1        2 0.36097665E+00 0.39492496E+04</pdfrwt>
<pdfrwt beam="2">  1       -2 0.25566033E+00 0.39492496E+04</pdfrwt>
<totfact> 0.20047315E-01</totfact>
</mgrwt>
</event>
<event>
12    1  0.1960998E-007  0.1996245E+04  0.7818608E-02  0.8608378E-01
         -2   -1    0    0    0  501 -0.00000000000E+00  0.00000000000E+00  0.24799625903E+03  0.24799625903E+03  0.00000000000E+00 0.  1.
          2   -1    0    0  501    0  0.00000000000E+00 -0.00000000000E+00 -0.40171928842E+04  0.40171928842E+04  0.00000000000E+00 0. -1.
         23    2    1    2    0    0  0.38223975983E+03 -0.18236630329E+03 -0.74994901270E+02  0.43940444106E+03  0.89929555970E+02 0.  0.
        254    2    1    2    0    0 -0.38223975983E+03  0.18236630329E+03 -0.36942017239E+04  0.38257847021E+04  0.90007639001E+03 0.  0.
        -24    2    4    4    0    0 -0.27452525379E+03 -0.33880394478E+03 -0.19842370975E+04  0.20331331244E+04  0.79254112298E+02 0.  0.
         24    2    4    4    0    0 -0.10771450603E+03  0.52117024807E+03 -0.17099646263E+04  0.17926515777E+04  0.79998834685E+02 0.  0.
         13    1    3    3    0    0  0.33224329139E+03 -0.12217312079E+03 -0.71065935457E+02  0.36105711916E+03  0.00000000000E+00 0.  1.
        -13    1    3    3    0    0  0.49996468438E+02 -0.60193182499E+02 -0.39289658122E+01  0.78347321894E+02  0.00000000000E+00 0. -1.
          2    1    6    6  502    0 -0.50561104735E+01  0.12368866194E+03 -0.31216653958E+03  0.33581601775E+03  0.00000000000E+00 0. -1.
          3    1    5    5  503    0 -0.12719163904E+03 -0.10057383716E+03 -0.66454406323E+03  0.68404065796E+03  0.00000000000E+00 0. -1.
         -4    1    5    5    0  503 -0.14733361475E+03 -0.23823010762E+03 -0.13196930343E+04  0.13490924664E+04  0.00000000000E+00 0.  1.
         -1    1    6    6    0  502 -0.10265839556E+03  0.39748158613E+03 -0.13977980868E+04  0.14568355600E+04  0.00000000000E+00 0.  1.
<mgrwt>
<rscale>  0 0.19962453E+04</rscale>
<asrwt>0</asrwt>
<pdfrwt beam="1">  1        2 0.61802962E+00 0.19962453E+04</pdfrwt>
<pdfrwt beam="2">  1       -2 0.38153274E-01 0.19962453E+04</pdfrwt>
<totfact> 0.20186545E+00</totfact>
</mgrwt>
</event>
<event>
12    1  0.1960998E-007  0.1052582E+04  0.7818608E-02  0.9252682E-01
          1   -1    0    0  501    0  0.00000000000E+00  0.00000000000E+00  0.97948339214E+03  0.97948339214E+03  0.00000000000E+00 0. -1.
         -1   -1    0    0    0  501 -0.00000000000E+00 -0.00000000000E+00 -0.28278414604E+03  0.28278414604E+03  0.00000000000E+00 0.  1.
         23    2    1    2    0    0  0.31405287562E+02  0.93679461433E+02  0.33968925549E+02  0.13958892690E+03  0.92569147291E+02 0.  0.
        254    2    1    2    0    0 -0.31405287562E+02 -0.93679461433E+02  0.66273032055E+03  0.11226786113E+04  0.90079612169E+03 0.  0.
        -24    2    4    4    0    0 -0.14455371349E+03  0.10517638962E+03 -0.16759150218E+03  0.25782823246E+03  0.80191251599E+02 0.  0.
         24    2    4    4    0    0  0.11314842593E+03 -0.19885585105E+03  0.83032182273E+03  0.86485037881E+03  0.78648792961E+02 0.  0.
         11    1    3    3    0    0 -0.78743936639E+01  0.95734762042E+02  0.23831779171E+02  0.98970219951E+02  0.00000000000E+00 0. -1.
        -11    1    3    3    0    0  0.39279681226E+02 -0.20553006091E+01  0.10137146379E+02  0.40618706953E+02  0.00000000000E+00 0.  1.
          2    1    6    6  502    0  0.11466456410E+03 -0.13183388986E+03  0.61439145772E+03  0.63875269087E+03  0.00000000000E+00 0. -1.
          3    1    5    5  503    0 -0.14076908487E+03  0.95726116677E+02 -0.17582738650E+03  0.24473392595E+03  0.00000000000E+00 0. -1.
         -4    1    5    5    0  503 -0.37846286210E+01  0.94502729438E+01  0.82358843158E+01  0.13094306510E+02  0.00000000000E+00 0.  1.
         -1    1    6    6    0  502 -0.15161381670E+01 -0.67021961197E+02  0.21593036501E+03  0.22609768794E+03  0.00000000000E+00 0.  1.
<mgrwt>
<rscale>  0 0.10525823E+04</rscale>
<asrwt>0</asrwt>
<pdfrwt beam="1">  1        1 0.15068975E+00 0.10525823E+04</pdfrwt>
<pdfrwt beam="2">  1       -1 0.43505254E-01 0.10525823E+04</pdfrwt>
<totfact> 0.81808543E+01</totfact>
</mgrwt>
</event>
<event>
12    1  0.1960998E-007  0.1770631E+04  0.7818608E-02  0.8722075E-01
          1   -1    0    0  501    0  0.00000000000E+00  0.00000000000E+00  0.61287481053E+03  0.61287481053E+03  0.00000000000E+00 0. -1.
         -1   -1    0    0    0  501 -0.00000000000E+00 -0.00000000000E+00 -0.12788643929E+04  0.12788643929E+04  0.00000000000E+00 0.  1.
         23    2    1    2    0    0  0.57759337463E+03 -0.63930228505E+02 -0.56425185108E+03  0.81528329503E+03  0.92765937615E+02 0.  0.
        254    2    1    2    0    0 -0.57759337463E+03  0.63930228505E+02 -0.10173773130E+03  0.10764559084E+04  0.90039190147E+03 0.  0.
        -24    2    4    4    0    0  0.78047535836E+02 -0.24799151233E+03 -0.20204433559E+03  0.33901376238E+03  0.80729235746E+02 0.  0.
         24    2    4    4    0    0 -0.65564091047E+03  0.31192174084E+03  0.10030660429E+03  0.73744214602E+03  0.81236247965E+02 0.  0.
         13    1    3    3    0    0  0.37520816941E+03 -0.33355611146E+02 -0.42400347936E+03  0.56716198542E+03  0.00000000000E+00 0.  1.
        -13    1    3    3    0    0  0.20238520522E+03 -0.30574617359E+02 -0.14024837172E+03  0.24812130962E+03  0.00000000000E+00 0. -1.
          4    1    6    6  502    0 -0.88338448431E+02  0.36072982225E+02 -0.13736761419E+02  0.96403527591E+02  0.00000000000E+00 0. -1.
          1    1    5    5  503    0  0.61599724977E+02 -0.13543932672E+03 -0.69110107627E+02  0.16405652780E+03  0.00000000000E+00 0. -1.
         -2    1    5    5    0  503  0.16447810859E+02 -0.11255218562E+03 -0.13293422796E+03  0.17495723458E+03  0.00000000000E+00 0.  1.
         -3    1    6    6    0  502 -0.56730246204E+03  0.27584875861E+03  0.11404336571E+03  0.64103861843E+03  0.00000000000E+00 0.  1.
<mgrwt>
<rscale>  0 0.17706313E+04</rscale>
<asrwt>0</asrwt>
<pdfrwt beam="1">  1        1 0.94288434E-01 0.17706313E+04</pdfrwt>
<pdfrwt beam="2">  1       -1 0.19674837E+00 0.17706313E+04</pdfrwt>
<totfact> 0.49786655E+00</totfact>
</mgrwt>
</event>
<event>
12    1  0.1960998E-007  0.1991748E+04  0.7818608E-02  0.8610489E-01
          3   -1    0    0  501    0  0.00000000000E+00  0.00000000000E+00  0.29331972851E+03  0.29331972851E+03  0.00000000000E+00 0.  1.
         -3   -1    0    0    0  501 -0.00000000000E+00 -0.00000000000E+00 -0.33811732556E+04  0.33811732556E+04  0.00000000000E+00 0. -1.
         23    2    1    2    0    0 -0.63048212834E+03  0.19952434931E+02 -0.21064442926E+04  0.22007130489E+04  0.90136296378E+02 0.  0.
        254    2    1    2    0    0  0.63048212834E+03 -0.19952434931E+02 -0.98140923449E+03  0.14737799352E+04  0.90053173075E+03 0.  0.
        -24    2    4    4    0    0 -0.21561414378E+03 -0.89955832635E+02 -0.22699398033E+03  0.33531384094E+03  0.79546175263E+02 0.  0.
         24    2    4    4    0    0  0.84609627212E+03  0.70003397704E+02 -0.75441525416E+03  0.11384660943E+04  0.78633928632E+02 0.  0.
         13    1    3    3    0    0 -0.41262423896E+03  0.55805422715E+02 -0.13653744704E+04  0.14274524343E+04  0.00000000000E+00 0. -1.
        -13    1    3    3    0    0 -0.21785788938E+03 -0.35852987784E+02 -0.74106982224E+03  0.77326061463E+03  0.00000000000E+00 0.  1.
          4    1    6    6  502    0  0.14022768490E+03  0.31168241928E+02 -0.15810667245E+03  0.21361877911E+03  0.00000000000E+00 0. -1.
          1    1    5    5  503    0 -0.19722783872E+03 -0.10414620871E+03 -0.19870542667E+03  0.29871240306E+03  0.00000000000E+00 0. -1.
         -2    1    5    5    0  503 -0.18386305057E+02  0.14190376072E+02 -0.28288553666E+02  0.36601437885E+02  0.00000000000E+00 0.  1.
         -1    1    6    6    0  502  0.70586858722E+03  0.38835155776E+02 -0.59630858171E+03  0.92484731516E+03  0.00000000000E+00 0.  1.
<mgrwt>
<rscale>  0 0.19917478E+04</rscale>
<asrwt>0</asrwt>
<pdfrwt beam="1">  1        3 0.45126110E-01 0.19917478E+04</pdfrwt>
<pdfrwt beam="2">  1       -3 0.52018052E+00 0.19917478E+04</pdfrwt>
<totfact> 0.28375063E-02</totfact>
</mgrwt>
</event>
<event>
12    1  0.1960998E-007  0.2766838E+04  0.7818608E-02  0.8313639E-01
         -2   -1    0    0    0  501 -0.00000000000E+00  0.00000000000E+00  0.72582783243E+03  0.72582783243E+03  0.00000000000E+00 0. -1.
          2   -1    0    0  501    0  0.00000000000E+00 -0.00000000000E+00 -0.26367790140E+04  0.26367790140E+04  0.00000000000E+00 0.  1.
         23    2    1    2    0    0 -0.11009144295E+04 -0.87742072020E+02 -0.15111747574E+04  0.18740533043E+04  0.93356239635E+02 0.  0.
        254    2    1    2    0    0  0.11009144295E+04  0.87742072020E+02 -0.39977642415E+03  0.14885535422E+04  0.91447209154E+03 0.  0.
        -24    2    4    4    0    0  0.72047592601E+03  0.44261379223E+03 -0.44645310250E+03  0.95994152440E+03  0.84704359417E+02 0.  0.
         24    2    4    4    0    0  0.38043850352E+03 -0.35487172021E+03  0.46676678359E+02  0.52861201775E+03  0.81145303262E+02 0.  0.
         13    1    3    3    0    0 -0.82631472909E+03 -0.30082913821E+02 -0.10949556439E+04  0.13720892374E+04  0.00000000000E+00 0.  1.
        -13    1    3    3    0    0 -0.27459970044E+03 -0.57659158199E+02 -0.41621911351E+03  0.50196406690E+03  0.00000000000E+00 0. -1.
          4    1    6    6  502    0  0.79471813305E+02 -0.10864853488E+03 -0.12872137415E+02  0.13522560838E+03  0.00000000000E+00 0. -1.
          1    1    5    5  503    0  0.57582776828E+03  0.35734974495E+03 -0.31835833489E+03  0.74875128603E+03  0.00000000000E+00 0. -1.
         -2    1    5    5    0  503  0.14464815773E+03  0.85264047283E+02 -0.12809476762E+03  0.21119023837E+03  0.00000000000E+00 0.  1.
         -3    1    6    6    0  502  0.30096669022E+03 -0.24622318534E+03  0.59548815774E+02  0.39338640937E+03  0.00000000000E+00 0.  1.
<mgrwt>
<rscale>  0 0.27668376E+04</rscale>
<asrwt>0</asrwt>
<pdfrwt beam="1">  1        2 0.40565831E+00 0.27668376E+04</pdfrwt>
<pdfrwt beam="2">  1       -2 0.11166582E+00 0.27668376E+04</pdfrwt>
<totfact> 0.15997116E+00</totfact>
</mgrwt>
</event>
<event>
12    1  0.1960998E-007  0.1247612E+04  0.7818608E-02  0.9072173E-01
          1   -1    0    0  501    0  0.00000000000E+00  0.00000000000E+00  0.60052648549E+03  0.60052648549E+03  0.00000000000E+00 0. -1.
         -1   -1    0    0    0  501 -0.00000000000E+00 -0.00000000000E+00 -0.64798791833E+03  0.64798791833E+03  0.00000000000E+00 0.  1.
         23    2    1    2    0    0 -0.12444741932E+03 -0.52232648102E+01 -0.27121266553E+03  0.31221693324E+03  0.91698750194E+02 0.  0.
        254    2    1    2    0    0  0.12444741932E+03  0.52232648102E+01  0.22375123269E+03  0.93629747058E+03  0.90059641162E+03 0.  0.
        -24    2    4    4    0    0 -0.12024711049E+02 -0.41187744978E+03  0.24840359931E+03  0.48926706213E+03  0.88827262818E+02 0.  0.
         24    2    4    4    0    0  0.13647213037E+03  0.41710071459E+03 -0.24652366615E+02  0.44703040846E+03  0.81429714641E+02 0.  0.
         13    1    3    3    0    0 -0.21412952460E+02  0.36396306065E+02 -0.57497423645E+02  0.71338344206E+02  0.00000000000E+00 0.  1.
        -13    1    3    3    0    0 -0.10303446687E+03 -0.41619570875E+02 -0.21371524189E+03  0.24087858904E+03  0.00000000000E+00 0. -1.
          4    1    6    6  502    0  0.22120104563E+02  0.15031398480E+03  0.20390910329E+02  0.15329508236E+03  0.00000000000E+00 0. -1.
          3    1    5    5  503    0  0.28851854693E+02 -0.28914696973E+03  0.15199522457E+03  0.32793436526E+03  0.00000000000E+00 0. -1.
         -4    1    5    5    0  503 -0.40876565743E+02 -0.12273048005E+03  0.96408374733E+02  0.16133269687E+03  0.00000000000E+00 0.  1.
         -3    1    6    6    0  502  0.11435202581E+03  0.26678672979E+03 -0.45043276945E+02  0.29373532610E+03  0.00000000000E+00 0.  1.
<mgrwt>
<rscale>  0 0.12476120E+04</rscale>
<asrwt>0</asrwt>
<pdfrwt beam="1">  1        1 0.92388690E-01 0.12476120E+04</pdfrwt>
<pdfrwt beam="2">  1       -1 0.99690449E-01 0.12476120E+04</pdfrwt>
<totfact> 0.32402404E+01</totfact>
</mgrwt>
</event>
<event>
12    1  0.1960998E-007  0.2732890E+04  0.7818608E-02  0.8324411E-01
          2   -1    0    0  501    0  0.00000000000E+00  0.00000000000E+00  0.98349764965E+03  0.98349764965E+03  0.00000000000E+00 0. -1.
         -2   -1    0    0    0  501 -0.00000000000E+00 -0.00000000000E+00 -0.18985022163E+04  0.18985022163E+04  0.00000000000E+00 0.  1.
         23    2    1    2    0    0  0.74984576426E+03  0.89747524662E+03 -0.58663399161E+02  0.11746086375E+04  0.92377315253E+02 0.  0.
        254    2    1    2    0    0 -0.74984576426E+03 -0.89747524662E+03 -0.85634116744E+03  0.17073912284E+04  0.90229381211E+03 0.  0.
        -24    2    4    4    0    0  0.18539434105E+03 -0.81939544831E+02 -0.22330287739E+03  0.31213952131E+03  0.80509347371E+02 0.  0.
         24    2    4    4    0    0 -0.93524010531E+03 -0.81553570179E+03 -0.63303829005E+03  0.13952517071E+04  0.78849946531E+02 0.  0.
         11    1    3    3    0    0  0.51539962592E+03  0.58757580946E+03 -0.78436032444E+02  0.78551531968E+03  0.00000000000E+00 0.  1.
        -11    1    3    3    0    0  0.23444613835E+03  0.30989943716E+03  0.19772633284E+02  0.38909331781E+03  0.00000000000E+00 0. -1.
          2    1    6    6  502    0 -0.68276652721E+03 -0.64046973306E+03 -0.47663970688E+03  0.10505032222E+04  0.00000000000E+00 0. -1.
          3    1    5    5  503    0  0.17270644401E+03 -0.47336250221E+02 -0.16709992005E+03  0.24492982600E+03  0.00000000000E+00 0. -1.
         -4    1    5    5    0  503  0.12687897039E+02 -0.34603294609E+02 -0.56202957342E+02  0.67209695306E+02  0.00000000000E+00 0.  1.
         -1    1    6    6    0  502 -0.25247357809E+03 -0.17506596873E+03 -0.15639858317E+03  0.34474848493E+03  0.00000000000E+00 0.  1.
<mgrwt>
<rscale>  0 0.27328904E+04</rscale>
<asrwt>0</asrwt>
<pdfrwt beam="1">  1        2 0.15130733E+00 0.27328904E+04</pdfrwt>
<pdfrwt beam="2">  1       -2 0.29207726E+00 0.27328904E+04</pdfrwt>
<totfact> 0.80261580E-01</totfact>
</mgrwt>
</event>
<event>
12    1  0.1960998E-007  0.1841303E+04  0.7818608E-02  0.8684638E-01
          2   -1    0    0  501    0  0.00000000000E+00  0.00000000000E+00  0.95457995594E+03  0.95457995594E+03  0.00000000000E+00 0. -1.
         -2   -1    0    0    0  501 -0.00000000000E+00 -0.00000000000E+00 -0.88792868019E+03  0.88792868019E+03  0.00000000000E+00 0.  1.
         23    2    1    2    0    0  0.46064948881E+03 -0.49654063927E+03 -0.13827782447E+03  0.69725421048E+03  0.91061074568E+02 0.  0.
        254    2    1    2    0    0 -0.46064948881E+03  0.49654063927E+03  0.20492910022E+03  0.11452544257E+04  0.90047832033E+03 0.  0.
        -24    2    4    4    0    0 -0.26428577635E+03 -0.20885383600E+03 -0.80444800777E+02  0.35532566575E+03  0.79486265353E+02 0.  0.
         24    2    4    4    0    0 -0.19636371246E+03  0.70539447527E+03  0.28537390099E+03  0.78992875990E+03  0.80056911322E+02 0.  0.
         13    1    3    3    0    0  0.17117239874E+03 -0.12831052555E+03 -0.25171674128E+02  0.21540007947E+03  0.00000000000E+00 0. -1.
        -13    1    3    3    0    0  0.28947709007E+03 -0.36823011371E+03 -0.11310615034E+03  0.48185413101E+03  0.00000000000E+00 0.  1.
          4    1    6    6  502    0 -0.13400500069E+03  0.36096951819E+03  0.12417271748E+03  0.40456791400E+03  0.00000000000E+00 0. -1.
          3    1    5    5  503    0 -0.25561651978E+03 -0.17165654570E+03 -0.71538684915E+02  0.31610687798E+03  0.00000000000E+00 0. -1.
         -4    1    5    5    0  503 -0.86692565718E+01 -0.37197290297E+02 -0.89061158620E+01  0.39218787777E+02  0.00000000000E+00 0.  1.
         -3    1    6    6    0  502 -0.62358711771E+02  0.34442495708E+03  0.16120118351E+03  0.38536084591E+03  0.00000000000E+00 0.  1.
<mgrwt>
<rscale>  0 0.18413027E+04</rscale>
<asrwt>0</asrwt>
<pdfrwt beam="1">  1        2 0.14685846E+00 0.18413027E+04</pdfrwt>
<pdfrwt beam="2">  1       -2 0.13660441E+00 0.18413027E+04</pdfrwt>
<totfact> 0.97096823E+00</totfact>
</mgrwt>
</event>
<event>
12    1  0.1960998E-007  0.2067771E+04  0.7818608E-02  0.8575575E-01
         -2   -1    0    0    0  501 -0.00000000000E+00  0.00000000000E+00  0.43023651859E+03  0.43023651859E+03  0.00000000000E+00 0.  1.
          2   -1    0    0  501    0  0.00000000000E+00 -0.00000000000E+00 -0.24844928877E+04  0.24844928877E+04  0.00000000000E+00 0. -1.
         23    2    1    2    0    0 -0.12956954062E+03  0.67494841413E+03 -0.15053415570E+04  0.16573315805E+04  0.91384554219E+02 0.  0.
        254    2    1    2    0    0  0.12956954062E+03 -0.67494841413E+03 -0.54891481215E+03  0.12573978259E+04  0.89855338958E+03 0.  0.
        -24    2    4    4    0    0 -0.35174183420E+03 -0.28889682291E+03 -0.59905909220E+02  0.46600938540E+03  0.79952092551E+02 0.  0.
         24    2    4    4    0    0  0.48131137482E+03 -0.38605159121E+03 -0.48900890293E+03  0.79138844048E+03  0.80433114883E+02 0.  0.
         13    1    3    3    0    0 -0.44210755269E+02  0.19375901355E+03 -0.53838825435E+03  0.57389812566E+03  0.00000000000E+00 0. -1.
        -13    1    3    3    0    0 -0.85358785348E+02  0.48118940057E+03 -0.96695330266E+03  0.10834334548E+04  0.00000000000E+00 0.  1.
          2    1    6    6  502    0  0.49020422174E+01 -0.84421009173E+01  0.19831884142E+01  0.99615321153E+01  0.00000000000E+00 0. -1.
          3    1    5    5  503    0 -0.28545865137E+03 -0.23493794175E+03 -0.79879886023E+02  0.37823706099E+03  0.00000000000E+00 0. -1.
         -4    1    5    5    0  503 -0.66283182830E+02 -0.53958881161E+02  0.19973976803E+02  0.87772324406E+02  0.00000000000E+00 0.  1.
         -1    1    6    6    0  502  0.47640933260E+03 -0.37760949030E+03 -0.49099209134E+03  0.78142690836E+03  0.00000000000E+00 0.  1.
<mgrwt>
<rscale>  0 0.20677713E+04</rscale>
<asrwt>0</asrwt>
<pdfrwt beam="1">  1        2 0.38222967E+00 0.20677713E+04</pdfrwt>
<pdfrwt beam="2">  1       -2 0.66190234E-01 0.20677713E+04</pdfrwt>
<totfact> 0.68961154E+00</totfact>
</mgrwt>
</event>
<event>
12    1  0.1960998E-007  0.4064537E+04  0.7818608E-02  0.7991652E-01
         -1   -1    0    0    0  501 -0.00000000000E+00  0.00000000000E+00  0.14364963592E+04  0.14364963592E+04  0.00000000000E+00 0.  1.
          1   -1    0    0  501    0  0.00000000000E+00 -0.00000000000E+00 -0.28751308132E+04  0.28751308132E+04  0.00000000000E+00 0. -1.
         23    2    1    2    0    0  0.24449326165E+03 -0.14458249429E+04  0.64840072925E+03  0.16056935779E+04  0.87416473751E+02 0.  0.
        254    2    1    2    0    0 -0.24449326165E+03  0.14458249429E+04 -0.20870351832E+04  0.27059335945E+04  0.90342351158E+03 0.  0.
        -24    2    4    4    0    0  0.55900224930E+02  0.10633538651E+04 -0.18984827494E+04  0.21781499001E+04  0.79081981860E+02 0.  0.
         24    2    4    4    0    0 -0.30039348658E+03  0.38247107779E+03 -0.18855243382E+03  0.52778369441E+03  0.80518542310E+02 0.  0.
         11    1    3    3    0    0  0.19248665499E+03 -0.94700708404E+03  0.45567226884E+03  0.10684150627E+04  0.00000000000E+00 0.  1.
        -11    1    3    3    0    0  0.52006606659E+02 -0.49881785889E+03  0.19272846041E+03  0.53727851523E+03  0.00000000000E+00 0. -1.
          4    1    6    6  502    0 -0.24971125515E+03  0.34958986554E+03 -0.18348691158E+03  0.46715760912E+03  0.00000000000E+00 0. -1.
          3    1    5    5  503    0  0.56972386909E+02  0.10518733259E+04 -0.18557738900E+04  0.21339119188E+04  0.00000000000E+00 0. -1.
         -4    1    5    5    0  503 -0.10721619791E+01  0.11480539226E+02 -0.42708859440E+02  0.44237981271E+02  0.00000000000E+00 0.  1.
         -3    1    6    6    0  502 -0.50682231427E+02  0.32881212253E+02 -0.50655222391E+01  0.60626085286E+02  0.00000000000E+00 0.  1.
<mgrwt>
<rscale>  0 0.40645368E+04</rscale>
<asrwt>0</asrwt>
<pdfrwt beam="1">  1        1 0.44232781E+00 0.40645368E+04</pdfrwt>
<pdfrwt beam="2">  1       -1 0.22099944E+00 0.40645368E+04</pdfrwt>
<totfact> 0.62095936E-02</totfact>
</mgrwt>
</event>
<event>
12    1  0.1960998E-007  0.2541775E+04  0.7818608E-02  0.8388252E-01
         -2   -1    0    0    0  501 -0.00000000000E+00  0.00000000000E+00  0.57148256516E+03  0.57148256516E+03  0.00000000000E+00 0.  1.
          2   -1    0    0  501    0  0.00000000000E+00 -0.00000000000E+00 -0.28262548272E+04  0.28262548272E+04  0.00000000000E+00 0. -1.
         23    2    1    2    0    0  0.67216725950E+03  0.75196785517E+03 -0.37613932344E+03  0.10832746303E+04  0.12140285878E+03 0.  0.
        254    2    1    2    0    0 -0.67216725950E+03 -0.75196785517E+03 -0.18786329386E+04  0.23144627620E+04  0.90011759165E+03 0.  0.
        -24    2    4    4    0    0 -0.57284571492E+03 -0.34503189061E+03 -0.17409643587E+04  0.18666675310E+04  0.79319318036E+02 0.  0.
         24    2    4    4    0    0 -0.99321544581E+02 -0.40693596456E+03 -0.13766857985E+03  0.44779523101E+03  0.78142706445E+02 0.  0.
         11    1    3    3    0    0  0.43811240039E+03  0.47840355703E+03 -0.30263398945E+03  0.71582104630E+03  0.00000000000E+00 0. -1.
        -11    1    3    3    0    0  0.23405485911E+03  0.27356429814E+03 -0.73505333985E+02  0.36745358402E+03  0.00000000000E+00 0.  1.
          2    1    6    6  502    0 -0.43746988823E+01 -0.14290063300E+03 -0.23577604814E+02  0.14489869685E+03  0.00000000000E+00 0. -1.
          3    1    5    5  503    0 -0.55888835520E+03 -0.33878463291E+03 -0.16552928607E+04  0.17796420078E+04  0.00000000000E+00 0. -1.
         -4    1    5    5    0  503 -0.13957359722E+02 -0.62472577019E+01 -0.85671497983E+02  0.87025523187E+02  0.00000000000E+00 0.  1.
         -1    1    6    6    0  502 -0.94946845699E+02 -0.26403533157E+03 -0.11409097503E+03  0.30289653416E+03  0.00000000000E+00 0.  1.
<mgrwt>
<rscale>  0 0.25417753E+04</rscale>
<asrwt>0</asrwt>
<pdfrwt beam="1">  1        2 0.43480844E+00 0.25417753E+04</pdfrwt>
<pdfrwt beam="2">  1       -2 0.87920394E-01 0.25417753E+04</pdfrwt>
<totfact> 0.22094454E+00</totfact>
</mgrwt>
</event>
<event>
12    1  0.1960998E-007  0.2088707E+04  0.7818608E-02  0.8566234E-01
         -2   -1    0    0    0  501 -0.00000000000E+00  0.00000000000E+00  0.60255221071E+03  0.60255221071E+03  0.00000000000E+00 0.  1.
          2   -1    0    0  501    0  0.00000000000E+00 -0.00000000000E+00 -0.18100915748E+04  0.18100915748E+04  0.00000000000E+00 0. -1.
         23    2    1    2    0    0  0.23902269954E+03  0.72503583876E+03 -0.90451256793E+03  0.11872593736E+04  0.92914025639E+02 0.  0.
        254    2    1    2    0    0 -0.23902269954E+03 -0.72503583876E+03 -0.30302679614E+03  0.12253844119E+04  0.90935850987E+03 0.  0.
        -24    2    4    4    0    0 -0.17603824710E+03  0.12247101874E+03  0.13690573250E+03  0.26501649420E+03  0.74175115334E+02 0.  0.
         24    2    4    4    0    0 -0.62984452448E+02 -0.84750685750E+03 -0.43993252864E+03  0.96036791774E+03  0.80814558764E+02 0.  0.
         11    1    3    3    0    0  0.12401842274E+03  0.42219300265E+03 -0.58739270987E+03  0.73393303255E+03  0.00000000000E+00 0. -1.
        -11    1    3    3    0    0  0.11500427681E+03  0.30284283611E+03 -0.31711985806E+03  0.45332634100E+03  0.00000000000E+00 0.  1.
          2    1    6    6  502    0 -0.54884618905E+02 -0.68324680676E+03 -0.38932846574E+03  0.78829891195E+03  0.00000000000E+00 0. -1.
          1    1    5    5  503    0 -0.17574141714E+03  0.10627467852E+03  0.13996001957E+03  0.24853201016E+03  0.00000000000E+00 0. -1.
         -4    1    5    5    0  503 -0.29682995212E+00  0.16196340224E+02 -0.30542870730E+01  0.16484484044E+02  0.00000000000E+00 0.  1.
         -1    1    6    6    0  502 -0.80998335430E+01 -0.16426005074E+03 -0.50604062898E+02  0.17206900580E+03  0.00000000000E+00 0.  1.
<mgrwt>
<rscale>  0 0.20887074E+04</rscale>
<asrwt>0</asrwt>
<pdfrwt beam="1">  1        2 0.27847563E+00 0.20887074E+04</pdfrwt>
<pdfrwt beam="2">  1       -2 0.92700339E-01 0.20887074E+04</pdfrwt>
<totfact> 0.77534604E+00</totfact>
</mgrwt>
</event>
<event>
12    1  0.1960998E-007  0.2229040E+04  0.7818608E-02  0.8506437E-01
          3   -1    0    0  501    0  0.00000000000E+00  0.00000000000E+00  0.56029182028E+03  0.56029182028E+03  0.00000000000E+00 0. -1.
         -3   -1    0    0    0  501 -0.00000000000E+00 -0.00000000000E+00 -0.22169781533E+04  0.22169781533E+04  0.00000000000E+00 0.  1.
         23    2    1    2    0    0  0.28343519261E+03 -0.25756823431E+03  0.36132030782E+03  0.53550658661E+03  0.97662867675E+02 0.  0.
        254    2    1    2    0    0 -0.28343519261E+03  0.25756823431E+03 -0.20180066409E+04  0.22417633870E+04  0.89803974130E+03 0.  0.
        -24    2    4    4    0    0  0.10261557666E+03  0.14563261556E+02  0.35381236322E+02  0.13676647232E+03  0.81921858532E+02 0.  0.
         24    2    4    4    0    0 -0.38605076927E+03  0.24300497276E+03 -0.20533878772E+04  0.21049969147E+04  0.80768950663E+02 0.  0.
         11    1    3    3    0    0  0.17047160938E+03 -0.17169339356E+03  0.28681884763E+03  0.37523891370E+03  0.00000000000E+00 0. -1.
        -11    1    3    3    0    0  0.11296358323E+03 -0.85874840749E+02  0.74501460188E+02  0.16026767291E+03  0.00000000000E+00 0.  1.
          2    1    6    6  502    0 -0.12467976820E+02  0.28880401137E+02 -0.18295332746E+03  0.18563794882E+03  0.00000000000E+00 0. -1.
          1    1    5    5  503    0  0.28008660083E+02  0.41376405188E+01 -0.26876416049E+02  0.39037761825E+02  0.00000000000E+00 0. -1.
         -2    1    5    5    0  503  0.74606916579E+02  0.10425621037E+02  0.62257652371E+02  0.97728710491E+02  0.00000000000E+00 0.  1.
         -1    1    6    6    0  502 -0.37358279245E+03  0.21412457162E+03 -0.18704345497E+04  0.19193589658E+04  0.00000000000E+00 0.  1.
<mgrwt>
<rscale>  0 0.22290399E+04</rscale>
<asrwt>0</asrwt>
<pdfrwt beam="1">  1        3 0.86198740E-01 0.22290399E+04</pdfrwt>
<pdfrwt beam="2">  1       -3 0.34107357E+00 0.22290399E+04</pdfrwt>
<totfact> 0.65748764E-02</totfact>
</mgrwt>
</event>
<event>
12    1  0.1960998E-007  0.1935986E+04  0.7818608E-02  0.8637149E-01
         -1   -1    0    0    0  501 -0.00000000000E+00  0.00000000000E+00  0.54124327674E+03  0.54124327674E+03  0.00000000000E+00 0. -1.
          1   -1    0    0  501    0  0.00000000000E+00 -0.00000000000E+00 -0.17312177848E+04  0.17312177848E+04  0.00000000000E+00 0.  1.
         23    2    1    2    0    0  0.12233159498E+03 -0.16585999628E+03  0.38475101784E+03  0.44621864078E+03  0.92753286507E+02 0.  0.
        254    2    1    2    0    0 -0.12233159498E+03  0.16585999628E+03 -0.15747255259E+04  0.18262424207E+04  0.90162427872E+03 0.  0.
        -24    2    4    4    0    0 -0.21756172728E+03  0.37227930158E+03 -0.15163786398E+04  0.15784908835E+04  0.79399663580E+02 0.  0.
         24    2    4    4    0    0  0.95230132306E+02 -0.20641930530E+03 -0.58346886070E+02  0.24775153721E+03  0.79364711152E+02 0.  0.
         11    1    3    3    0    0  0.81671660063E+02 -0.12123425938E+03  0.34290569842E+03  0.37276309328E+03  0.00000000000E+00 0. -1.
        -11    1    3    3    0    0  0.40659934916E+02 -0.44625736896E+02  0.41845319415E+02  0.73455547496E+02  0.00000000000E+00 0.  1.
          2    1    6    6  502    0 -0.66787943032E+01 -0.56368834155E+01 -0.16585306597E+02  0.18747083584E+02  0.00000000000E+00 0. -1.
          3    1    5    5  503    0 -0.16555454364E+03  0.32949808663E+03 -0.12174045044E+04  0.12720263454E+04  0.00000000000E+00 0. -1.
         -4    1    5    5    0  503 -0.52007183640E+02  0.42781214953E+02 -0.29897413541E+03  0.30646453815E+03  0.00000000000E+00 0.  1.
         -1    1    6    6    0  502  0.10190892661E+03 -0.20078242188E+03 -0.41761579473E+02  0.22900445362E+03  0.00000000000E+00 0.  1.
<mgrwt>
<rscale>  0 0.19359855E+04</rscale>
<asrwt>0</asrwt>
<pdfrwt beam="1">  1        1 0.26634120E+00 0.19359855E+04</pdfrwt>
<pdfrwt beam="2">  1       -1 0.83268196E-01 0.19359855E+04</pdfrwt>
<totfact> 0.60585022E+00</totfact>
</mgrwt>
</event>
<event>
12    1  0.1960998E-007  0.2318567E+04  0.7818608E-02  0.8470636E-01
         -3   -1    0    0    0  501 -0.00000000000E+00  0.00000000000E+00  0.86683725678E+03  0.86683725678E+03  0.00000000000E+00 0.  1.
          3   -1    0    0  501    0  0.00000000000E+00 -0.00000000000E+00 -0.15503934384E+04  0.15503934384E+04  0.00000000000E+00 0. -1.
         23    2    1    2    0    0 -0.88320531183E+03  0.19662449891E+02  0.15734597310E+03  0.90164750791E+03  0.88160299977E+02 0.  0.
        254    2    1    2    0    0  0.88320531183E+03 -0.19662449891E+02 -0.84090215468E+03  0.15155831872E+04  0.89968757295E+03 0.  0.
        -24    2    4    4    0    0  0.51993283049E+03  0.30129993370E+03 -0.82521214208E+03  0.10239792116E+04  0.80290398578E+02 0.  0.
         24    2    4    4    0    0  0.36327248133E+03 -0.32096238359E+03 -0.15690012607E+02  0.49160397563E+03  0.80277923382E+02 0.  0.
         13    1    3    3    0    0 -0.75922300958E+03  0.45373041206E+02  0.14655252819E+03  0.77456822467E+03  0.00000000000E+00 0.  1.
        -13    1    3    3    0    0 -0.12398230224E+03 -0.25710591315E+02  0.10793444905E+02  0.12707928324E+03  0.00000000000E+00 0. -1.
          4    1    6    6  502    0  0.36459276392E+03 -0.31064855364E+03 -0.86871829685E+01  0.47906771393E+03  0.00000000000E+00 0. -1.
          1    1    5    5  503    0  0.43638254438E+03  0.21979656893E+03 -0.64285492494E+03  0.80746684841E+03  0.00000000000E+00 0. -1.
         -2    1    5    5    0  503  0.83550286113E+02  0.81503364771E+02 -0.18235721713E+03  0.21651236320E+03  0.00000000000E+00 0.  1.
         -3    1    6    6    0  502 -0.13202825888E+01 -0.10313829952E+02 -0.70028296384E+01  0.12536261697E+02  0.00000000000E+00 0.  1.
<mgrwt>
<rscale>  0 0.23185675E+04</rscale>
<asrwt>0</asrwt>
<pdfrwt beam="1">  1        3 0.23852206E+00 0.23185675E+04</pdfrwt>
<pdfrwt beam="2">  1       -3 0.13335958E+00 0.23185675E+04</pdfrwt>
<totfact> 0.88518450E-02</totfact>
</mgrwt>
</event>
<event>
12    1  0.1960998E-007  0.1595540E+04  0.7818608E-02  0.8823293E-01
          2   -1    0    0  501    0  0.00000000000E+00  0.00000000000E+00  0.99779965588E+03  0.99779965588E+03  0.00000000000E+00 0. -1.
         -2   -1    0    0    0  501 -0.00000000000E+00 -0.00000000000E+00 -0.63784024544E+03  0.63784024544E+03  0.00000000000E+00 0.  1.
         23    2    1    2    0    0  0.50784368011E+03 -0.79284285223E+01 -0.61527392816E+02  0.51966287924E+03  0.91081417345E+02 0.  0.
        254    2    1    2    0    0 -0.50784368011E+03  0.79284285223E+01  0.42148680326E+03  0.11159770221E+04  0.89988083937E+03 0.  0.
        -24    2    4    4    0    0  0.51058536119E+02  0.22902994533E+03  0.44590279955E+03  0.51004486469E+03  0.79087087358E+02 0.  0.
         24    2    4    4    0    0 -0.55890221623E+03 -0.22110151680E+03 -0.24415996289E+02  0.60593215738E+03  0.72801582596E+02 0.  0.
         11    1    3    3    0    0  0.30731405773E+03 -0.34532070916E+02 -0.36894228219E+01  0.30927011793E+03  0.00000000000E+00 0. -1.
        -11    1    3    3    0    0  0.20052962238E+03  0.26603642393E+02 -0.57837969994E+02  0.21039276131E+03  0.00000000000E+00 0.  1.
          2    1    6    6  502    0 -0.44266764756E+03 -0.14435745323E+03 -0.29603331505E+02  0.46655125949E+03  0.00000000000E+00 0. -1.
          1    1    5    5  503    0  0.23179939747E+02  0.16054894155E+03  0.37042630073E+03  0.40438708747E+03  0.00000000000E+00 0. -1.
         -2    1    5    5    0  503  0.27878596372E+02  0.68481003772E+02  0.75476498818E+02  0.10565777722E+03  0.00000000000E+00 0.  1.
         -1    1    6    6    0  502 -0.11623456867E+03 -0.76744063577E+02  0.51873352157E+01  0.13938089789E+03  0.00000000000E+00 0.  1.
<mgrwt>
<rscale>  0 0.15955398E+04</rscale>
<asrwt>0</asrwt>
<pdfrwt beam="1">  1        2 0.15350764E+00 0.15955398E+04</pdfrwt>
<pdfrwt beam="2">  1       -2 0.98129268E-01 0.15955398E+04</pdfrwt>
<totfact> 0.20941569E+01</totfact>
</mgrwt>
</event>
<event>
12    1  0.1960998E-007  0.2286637E+04  0.7818608E-02  0.8483209E-01
         -1   -1    0    0    0  501 -0.00000000000E+00  0.00000000000E+00  0.10172491907E+04  0.10172491907E+04  0.00000000000E+00 0.  1.
          1   -1    0    0  501    0  0.00000000000E+00 -0.00000000000E+00 -0.12850115387E+04  0.12850115387E+04  0.00000000000E+00 0. -1.
         23    2    1    2    0    0 -0.87479670279E+03  0.40258593028E+03 -0.12921361343E+03  0.97608301631E+03  0.93258749568E+02 0.  0.
        254    2    1    2    0    0  0.87479670279E+03 -0.40258593028E+03 -0.13854873452E+03  0.13261777131E+04  0.90122520632E+03 0.  0.
        -24    2    4    4    0    0  0.73859199320E+03  0.26180582650E+02  0.18553219812E+03  0.76595643909E+03  0.77868573312E+02 0.  0.
         24    2    4    4    0    0  0.13620470958E+03 -0.42876651293E+03 -0.32408093265E+03  0.56022127405E+03  0.80168444351E+02 0.  0.
         13    1    3    3    0    0 -0.37832280147E+03  0.20333147857E+03 -0.95917447719E+02  0.44008179815E+03  0.00000000000E+00 0. -1.
        -13    1    3    3    0    0 -0.49647390132E+03  0.19925445170E+03 -0.33296165710E+02  0.53600121816E+03  0.00000000000E+00 0.  1.
          2    1    6    6  502    0  0.10791413647E+03 -0.24439231083E+03 -0.22339163693E+03  0.34824831068E+03  0.00000000000E+00 0. -1.
          3    1    5    5  503    0  0.16835967883E+03 -0.20823734267E+02  0.61918469149E+02  0.18058933021E+03  0.00000000000E+00 0. -1.
         -4    1    5    5    0  503  0.57023231437E+03  0.47004316917E+02  0.12361372897E+03  0.58536710888E+03  0.00000000000E+00 0.  1.
         -3    1    6    6    0  502  0.28290573114E+02 -0.18437420209E+03 -0.10068929572E+03  0.21197296336E+03  0.00000000000E+00 0.  1.
<mgrwt>
<rscale>  0 0.22866368E+04</rscale>
<asrwt>0</asrwt>
<pdfrwt beam="1">  1        1 0.19769408E+00 0.22866368E+04</pdfrwt>
<pdfrwt beam="2">  1       -1 0.15649988E+00 0.22866368E+04</pdfrwt>
<totfact> 0.26077311E+00</totfact>
</mgrwt>
</event>
<event>
12    1  0.1960998E-007  0.1603147E+04  0.7818608E-02  0.8818617E-01
         -1   -1    0    0    0  501 -0.00000000000E+00  0.00000000000E+00  0.16588855511E+03  0.16588855511E+03  0.00000000000E+00 0.  1.
          1   -1    0    0  501    0  0.00000000000E+00 -0.00000000000E+00 -0.38732040397E+04  0.38732040397E+04  0.00000000000E+00 0. -1.
         23    2    1    2    0    0 -0.49753514760E+03  0.16737303031E+03 -0.16129866013E+04  0.16987807918E+04  0.92603715758E+02 0.  0.
        254    2    1    2    0    0  0.49753514760E+03 -0.16737303031E+03 -0.20943288833E+04  0.23403118030E+04  0.90293460986E+03 0.  0.
        -24    2    4    4    0    0  0.26594436190E+03 -0.53304472546E+03 -0.11165016825E+04  0.12679885712E+04  0.79724067220E+02 0.  0.
         24    2    4    4    0    0  0.23159078570E+03  0.36567169515E+03 -0.97782720083E+03  0.10723232318E+04  0.79881149917E+02 0.  0.
         11    1    3    3    0    0 -0.19460926201E+03  0.63791831470E+02 -0.77859893723E+03  0.80508289491E+03  0.00000000000E+00 0. -1.
        -11    1    3    3    0    0 -0.30292588560E+03  0.10358119884E+03 -0.83438766407E+03  0.89369789687E+03  0.00000000000E+00 0.  1.
          2    1    6    6  502    0  0.21937615567E+03  0.36342592551E+03 -0.96606307752E+03  0.10552166464E+04  0.00000000000E+00 0. -1.
          1    1    5    5  503    0  0.24817928633E+03 -0.43050345441E+03 -0.91837203000E+03  0.10441902930E+04  0.00000000000E+00 0. -1.
         -2    1    5    5    0  503  0.17765075574E+02 -0.10254127105E+03 -0.19812965246E+03  0.22379827828E+03  0.00000000000E+00 0.  1.
         -1    1    6    6    0  502  0.12214630029E+02  0.22457696430E+01 -0.11764123309E+02  0.17106585435E+02  0.00000000000E+00 0.  1.
<mgrwt>
<rscale>  0 0.16031472E+04</rscale>
<asrwt>0</asrwt>
<pdfrwt beam="1">  1        1 0.59587759E+00 0.16031472E+04</pdfrwt>
<pdfrwt beam="2">  1       -1 0.25521314E-01 0.16031472E+04</pdfrwt>
<totfact> 0.16258806E+00</totfact>
</mgrwt>
</event>
<event>
12    1  0.1960998E-007  0.1886870E+04  0.7818608E-02  0.8661420E-01
          2   -1    0    0  501    0  0.00000000000E+00  0.00000000000E+00  0.13970996036E+04  0.13970996036E+04  0.00000000000E+00 0. -1.
         -2   -1    0    0    0  501 -0.00000000000E+00 -0.00000000000E+00 -0.63708355893E+03  0.63708355893E+03  0.00000000000E+00 0.  1.
         23    2    1    2    0    0  0.38587096380E+03  0.58007690907E+03  0.76437818196E+02  0.70704860595E+03  0.93216790227E+02 0.  0.
        254    2    1    2    0    0 -0.38587096380E+03 -0.58007690907E+03  0.68357822645E+03  0.13271345565E+04  0.89923373956E+03 0.  0.
        -24    2    4    4    0    0 -0.47047700918E+03 -0.77295368966E+03  0.50626829487E+03  0.10399630614E+04  0.80059728594E+02 0.  0.
         24    2    4    4    0    0  0.84606045383E+02  0.19287678059E+03  0.17730993158E+03  0.28717149515E+03  0.81664070355E+02 0.  0.
         11    1    3    3    0    0  0.33793248764E+03  0.47078876667E+03  0.91732359294E+02  0.58673269448E+03  0.00000000000E+00 0. -1.
        -11    1    3    3    0    0  0.47938476163E+02  0.10928814240E+03 -0.15294541097E+02  0.12031591147E+03  0.00000000000E+00 0.  1.
          4    1    6    6  502    0 -0.95661021429E+01 -0.16907786494E+01  0.84426311919E+01  0.12870394869E+02  0.00000000000E+00 0. -1.
          1    1    5    5  503    0 -0.59037225274E+02 -0.58581811947E+02  0.59859387232E+02  0.10247130769E+03  0.00000000000E+00 0. -1.
         -2    1    5    5    0  503 -0.41143978391E+03 -0.71437187771E+03  0.44640890763E+03  0.93749175371E+03  0.00000000000E+00 0.  1.
         -3    1    6    6    0  502  0.94172147526E+02  0.19456755924E+03  0.16886730039E+03  0.27430110028E+03  0.00000000000E+00 0.  1.
<mgrwt>
<rscale>  0 0.18868696E+04</rscale>
<asrwt>0</asrwt>
<pdfrwt beam="1">  1        2 0.21493840E+00 0.18868696E+04</pdfrwt>
<pdfrwt beam="2">  1       -2 0.98012856E-01 0.18868696E+04</pdfrwt>
<totfact> 0.11797280E+01</totfact>
</mgrwt>
</event>
<event>
12    1  0.1960998E-007  0.1866548E+04  0.7818608E-02  0.8671689E-01
          1   -1    0    0  501    0  0.00000000000E+00  0.00000000000E+00  0.21663924910E+04  0.21663924910E+04  0.00000000000E+00 0. -1.
         -1   -1    0    0    0  501 -0.00000000000E+00 -0.00000000000E+00 -0.40205094215E+03  0.40205094215E+03  0.00000000000E+00 0.  1.
         23    2    1    2    0    0 -0.23410745101E+03 -0.67107186928E+03  0.57939356951E+03  0.92000364294E+03  0.74605913183E+02 0.  0.
        254    2    1    2    0    0  0.23410745101E+03  0.67107186928E+03  0.11849479793E+04  0.16484397902E+04  0.89894842780E+03 0.  0.
        -24    2    4    4    0    0  0.33731031182E+03 -0.77298722910E+02  0.56786531359E+03  0.66995935516E+03  0.81370659104E+02 0.  0.
         24    2    4    4    0    0 -0.10320286081E+03  0.74837059219E+03  0.61708266575E+03  0.97848043505E+03  0.76964743016E+02 0.  0.
         11    1    3    3    0    0 -0.83616704710E+02 -0.31736825968E+03  0.23224544218E+03  0.40206008379E+03  0.00000000000E+00 0.  1.
        -11    1    3    3    0    0 -0.15049074630E+03 -0.35370360960E+03  0.34714812733E+03  0.51794355916E+03  0.00000000000E+00 0. -1.
          2    1    6    6  502    0 -0.74332910098E+02  0.69008244753E+03  0.57097926452E+03  0.89875273931E+03  0.00000000000E+00 0. -1.
          3    1    5    5  503    0  0.32935143762E+03 -0.84850652715E+02  0.52366245230E+03  0.62441521977E+03  0.00000000000E+00 0. -1.
         -4    1    5    5    0  503  0.79588741987E+01  0.75519298046E+01  0.44202861291E+02  0.45544135392E+02  0.00000000000E+00 0.  1.
         -1    1    6    6    0  502 -0.28869950712E+02  0.58288144659E+02  0.46103401235E+02  0.79727695735E+02  0.00000000000E+00 0.  1.
<mgrwt>
<rscale>  0 0.18665478E+04</rscale>
<asrwt>0</asrwt>
<pdfrwt beam="1">  1        1 0.33329115E+00 0.18665478E+04</pdfrwt>
<pdfrwt beam="2">  1       -1 0.61853992E-01 0.18665478E+04</pdfrwt>
<totfact> 0.57138039E+00</totfact>
</mgrwt>
</event>
<event>
12    1  0.1960998E-007  0.1079925E+04  0.7818608E-02  0.9224983E-01
         -1   -1    0    0    0  501 -0.00000000000E+00  0.00000000000E+00  0.26019207006E+03  0.26019207006E+03  0.00000000000E+00 0.  1.
          1   -1    0    0  501    0  0.00000000000E+00 -0.00000000000E+00 -0.11205542282E+04  0.11205542282E+04  0.00000000000E+00 0. -1.
         23    2    1    2    0    0 -0.76014022958E+02 -0.78459793556E+02 -0.20346915439E+02  0.14463538532E+03  0.92581460491E+02 0.  0.
        254    2    1    2    0    0  0.76014022958E+02  0.78459793556E+02 -0.84001524275E+03  0.12361109130E+04  0.90022803237E+03 0.  0.
        -24    2    4    4    0    0  0.46623762928E+03 -0.58492377776E+02 -0.35760111302E+03  0.59583150755E+03  0.79609950015E+02 0.  0.
         24    2    4    4    0    0 -0.39022360632E+03  0.13695217133E+03 -0.48241412973E+03  0.64027940544E+03  0.78765248031E+02 0.  0.
         13    1    3    3    0    0 -0.96075569535E+02 -0.76157134809E+02 -0.13628404909E+02  0.12335379064E+03  0.00000000000E+00 0.  1.
        -13    1    3    3    0    0  0.20061546578E+02 -0.23026587475E+01 -0.67185105297E+01  0.21281594680E+02  0.00000000000E+00 0. -1.
          4    1    6    6  502    0 -0.39288095127E+03  0.13047053112E+03 -0.47385389915E+03  0.62921818084E+03  0.00000000000E+00 0. -1.
          3    1    5    5  503    0  0.43028176082E+03 -0.54448581478E+02 -0.35328947587E+03  0.55939297053E+03  0.00000000000E+00 0. -1.
         -4    1    5    5    0  503  0.35955868459E+02 -0.40437962977E+01 -0.43116371517E+01  0.36438537019E+02  0.00000000000E+00 0.  1.
         -1    1    6    6    0  502  0.26573449447E+01  0.64816402093E+01 -0.85602305834E+01  0.11061224598E+02  0.00000000000E+00 0.  1.
<mgrwt>
<rscale>  0 0.10799247E+04</rscale>
<asrwt>0</asrwt>
<pdfrwt beam="1">  1        1 0.17239296E+00 0.10799247E+04</pdfrwt>
<pdfrwt beam="2">  1       -1 0.40029549E-01 0.10799247E+04</pdfrwt>
<totfact> 0.74202415E+01</totfact>
</mgrwt>
</event>
<event>
12    1  0.1960998E-007  0.1512973E+04  0.7818608E-02  0.8875871E-01
          2   -1    0    0  501    0  0.00000000000E+00  0.00000000000E+00  0.17090798325E+04  0.17090798325E+04  0.00000000000E+00 0.  1.
         -2   -1    0    0    0  501 -0.00000000000E+00 -0.00000000000E+00 -0.33484225515E+03  0.33484225515E+03  0.00000000000E+00 0. -1.
         23    2    1    2    0    0 -0.31818769267E+03  0.11585272574E+03 -0.13344595141E+02  0.35516411392E+03  0.10629302784E+03 0.  0.
        254    2    1    2    0    0  0.31818769267E+03 -0.11585272574E+03  0.13875821725E+04  0.16887579737E+04  0.90102938167E+03 0.  0.
        -24    2    4    4    0    0  0.62725032500E+03 -0.54525077586E+02  0.98030364374E+03  0.11676877224E+04  0.77996338732E+02 0.  0.
         24    2    4    4    0    0 -0.30906263233E+03 -0.61327648153E+02  0.40727852874E+03  0.52107025131E+03  0.79734658091E+02 0.  0.
         13    1    3    3    0    0 -0.34064845069E+02  0.22287551795E+02 -0.37116093662E+02  0.55088592678E+02  0.00000000000E+00 0. -1.
        -13    1    3    3    0    0 -0.28412284760E+03  0.93565173944E+02  0.23771498520E+02  0.30007552124E+03  0.00000000000E+00 0.  1.
          4    1    6    6  502    0 -0.20549265986E+03 -0.30318592260E+01  0.24187918815E+03  0.31739875092E+03  0.00000000000E+00 0. -1.
          1    1    5    5  503    0  0.10028487210E+03 -0.24539527329E+02  0.20850730831E+03  0.23266830809E+03  0.00000000000E+00 0. -1.
         -2    1    5    5    0  503  0.52696545290E+03 -0.29985550257E+02  0.77179633543E+03  0.93501941432E+03  0.00000000000E+00 0.  1.
         -3    1    6    6    0  502 -0.10356997247E+03 -0.58295788927E+02  0.16539934059E+03  0.20367150039E+03  0.00000000000E+00 0.  1.
<mgrwt>
<rscale>  0 0.15129734E+04</rscale>
<asrwt>0</asrwt>
<pdfrwt beam="1">  1        2 0.26293535E+00 0.15129734E+04</pdfrwt>
<pdfrwt beam="2">  1       -2 0.51514194E-01 0.15129734E+04</pdfrwt>
<totfact> 0.33304088E+01</totfact>
</mgrwt>
</event>
<event>
12    1  0.1960998E-007  0.2528612E+04  0.7818608E-02  0.8392863E-01
         -2   -1    0    0    0  501 -0.00000000000E+00  0.00000000000E+00  0.22209215955E+04  0.22209215955E+04  0.00000000000E+00 0. -1.
          2   -1    0    0  501    0  0.00000000000E+00 -0.00000000000E+00 -0.71973276645E+03  0.71973276645E+03  0.00000000000E+00 0.  1.
         23    2    1    2    0    0 -0.24683908482E+03  0.10616931047E+04  0.51933870176E+03  0.12108996468E+04  0.91888438508E+02 0.  0.
        254    2    1    2    0    0  0.24683908482E+03 -0.10616931047E+04  0.98185012732E+03  0.17297547152E+04  0.91646053917E+03 0.  0.
        -24    2    4    4    0    0 -0.14809120417E+03  0.98169086415E+02  0.11018143354E+03  0.22403015252E+03  0.80507059696E+02 0.  0.
         24    2    4    4    0    0  0.39493028899E+03 -0.11598621911E+04  0.87166869377E+03  0.15057245627E+04  0.78421370883E+02 0.  0.
         13    1    3    3    0    0 -0.17282494612E+03  0.82078758906E+03  0.36029937594E+03  0.91289450029E+03  0.00000000000E+00 0.  1.
        -13    1    3    3    0    0 -0.74014138704E+02  0.24090551563E+03  0.15903932582E+03  0.29800514651E+03  0.00000000000E+00 0. -1.
          4    1    6    6  502    0  0.11420854164E+03 -0.30896665506E+03  0.27644281214E+03  0.43002861917E+03  0.00000000000E+00 0. -1.
          3    1    5    5  503    0 -0.23718726821E+02 -0.30062297980E+01 -0.76022817146E+01  0.25088047092E+02  0.00000000000E+00 0. -1.
         -4    1    5    5    0  503 -0.12437247734E+03  0.10117531621E+03  0.11778371526E+03  0.19894210543E+03  0.00000000000E+00 0.  1.
         -3    1    6    6    0  502  0.28072174734E+03 -0.85089553604E+03  0.59522588163E+03  0.10756959435E+04  0.00000000000E+00 0.  1.
<mgrwt>
<rscale>  0 0.25286123E+04</rscale>
<asrwt>0</asrwt>
<pdfrwt beam="1">  1        2 0.11072812E+00 0.25286123E+04</pdfrwt>
<pdfrwt beam="2">  1       -2 0.34168024E+00 0.25286123E+04</pdfrwt>
<totfact> 0.61780204E-01</totfact>
</mgrwt>
</event>
<event>
12    1  0.1960998E-007  0.1751638E+04  0.7818608E-02  0.8732449E-01
          2   -1    0    0  501    0  0.00000000000E+00  0.00000000000E+00  0.63522828651E+03  0.63522828651E+03  0.00000000000E+00 0. -1.
         -2   -1    0    0    0  501 -0.00000000000E+00 -0.00000000000E+00 -0.12075321813E+04  0.12075321813E+04  0.00000000000E+00 0.  1.
         23    2    1    2    0    0  0.22593074467E+03 -0.48155901143E+03 -0.58485984751E+03  0.79552486594E+03  0.88628371433E+02 0.  0.
        254    2    1    2    0    0 -0.22593074467E+03  0.48155901143E+03  0.12555952675E+02  0.10472356019E+04  0.90199832100E+03 0.  0.
        -24    2    4    4    0    0 -0.14248158676E+03  0.73403963500E+03  0.92945292933E+02  0.75764034196E+03  0.79150944190E+02 0.  0.
         24    2    4    4    0    0 -0.83449157906E+02 -0.25248062358E+03 -0.80389340258E+02  0.28959525995E+03  0.81809176254E+02 0.  0.
         13    1    3    3    0    0  0.47800355823E+02 -0.18415616859E+03 -0.17262522066E+03  0.25690043841E+03  0.00000000000E+00 0.  1.
        -13    1    3    3    0    0  0.17813038884E+03 -0.29740284284E+03 -0.41223462685E+03  0.53862442754E+03  0.00000000000E+00 0. -1.
          4    1    6    6  502    0 -0.67832731999E+02 -0.23047052122E+03 -0.95656580780E+02  0.25858871230E+03  0.00000000000E+00 0. -1.
          1    1    5    5  503    0 -0.13750815848E+03  0.53900468547E+03  0.81494099373E+02  0.56220621914E+03  0.00000000000E+00 0. -1.
         -2    1    5    5    0  503 -0.49734282768E+01  0.19503494954E+03  0.11451193561E+02  0.19543412282E+03  0.00000000000E+00 0.  1.
         -3    1    6    6    0  502 -0.15616425907E+02 -0.22010102355E+02  0.15267240522E+02  0.31006547646E+02  0.00000000000E+00 0.  1.
<mgrwt>
<rscale>  0 0.17516376E+04</rscale>
<asrwt>0</asrwt>
<pdfrwt beam="1">  1        2 0.97727429E-01 0.17516376E+04</pdfrwt>
<pdfrwt beam="2">  1       -2 0.18577418E+00 0.17516376E+04</pdfrwt>
<totfact> 0.72504781E+00</totfact>
</mgrwt>
</event>
<event>
12    1  0.1960998E-007  0.1684079E+04  0.7818608E-02  0.8770497E-01
          2   -1    0    0  501    0  0.00000000000E+00  0.00000000000E+00  0.20290993588E+04  0.20290993588E+04  0.00000000000E+00 0. -1.
         -2   -1    0    0    0  501 -0.00000000000E+00 -0.00000000000E+00 -0.34943118365E+03  0.34943118365E+03  0.00000000000E+00 0.  1.
         23    2    1    2    0    0  0.24582100639E+02  0.38561490084E+03 -0.40043749326E+02  0.39931175283E+03  0.92429663325E+02 0.  0.
        254    2    1    2    0    0 -0.24582100639E+02 -0.38561490084E+03  0.17197119245E+04  0.19792187896E+04  0.90033037412E+03 0.  0.
        -24    2    4    4    0    0 -0.37553942741E+03 -0.44569830974E+03  0.82946714303E+03  0.10168850568E+04  0.79766111760E+02 0.  0.
         24    2    4    4    0    0  0.35095732677E+03  0.60083408898E+02  0.89024478145E+03  0.96233373279E+03  0.82276248973E+02 0.  0.
         13    1    3    3    0    0  0.46123143504E+01  0.19985590682E+03  0.25038772412E+02  0.20147108244E+03  0.00000000000E+00 0. -1.
        -13    1    3    3    0    0  0.19969786289E+02  0.18575899402E+03 -0.65082521737E+02  0.19784067038E+03  0.00000000000E+00 0.  1.
          4    1    6    6  502    0  0.43279712951E+02  0.25548893933E+02  0.75046082700E+02  0.90320507433E+02  0.00000000000E+00 0. -1.
          3    1    5    5  503    0 -0.86438312095E+02 -0.93737406750E+02  0.12920817211E+03  0.18152970820E+03  0.00000000000E+00 0. -1.
         -4    1    5    5    0  503 -0.28910111531E+03 -0.35196090299E+03  0.70025897092E+03  0.83535534862E+03  0.00000000000E+00 0.  1.
         -3    1    6    6    0  502  0.30767761381E+03  0.34534514965E+02  0.81519869875E+03  0.87201322536E+03  0.00000000000E+00 0.  1.
<mgrwt>
<rscale>  0 0.16840791E+04</rscale>
<asrwt>0</asrwt>
<pdfrwt beam="1">  1        2 0.31216912E+00 0.16840791E+04</pdfrwt>
<pdfrwt beam="2">  1       -2 0.53758645E-01 0.16840791E+04</pdfrwt>
<totfact> 0.19994173E+01</totfact>
</mgrwt>
</event>
<event>
12    1  0.1960998E-007  0.1841399E+04  0.7818608E-02  0.8684589E-01
          1   -1    0    0  501    0  0.00000000000E+00  0.00000000000E+00  0.85627693922E+03  0.85627693922E+03  0.00000000000E+00 0. -1.
         -1   -1    0    0    0  501 -0.00000000000E+00 -0.00000000000E+00 -0.98996867582E+03  0.98996867582E+03  0.00000000000E+00 0.  1.
         23    2    1    2    0    0  0.19080976346E+03  0.13110239149E+03 -0.71485189465E+03  0.75635634665E+03  0.86403060958E+02 0.  0.
        254    2    1    2    0    0 -0.19080976346E+03 -0.13110239149E+03  0.58116015805E+03  0.10898892684E+04  0.89247705022E+03 0.  0.
        -24    2    4    4    0    0  0.20836741855E+03  0.25891112412E+03  0.32480283819E+03  0.47143958849E+03  0.79413163811E+02 0.  0.
         24    2    4    4    0    0 -0.39917718201E+03 -0.39001351561E+03  0.25635731986E+03  0.61844967991E+03  0.72855790032E+02 0.  0.
         13    1    3    3    0    0  0.13150903084E+03  0.44117188318E+02 -0.46452484699E+03  0.48479303312E+03  0.00000000000E+00 0.  1.
        -13    1    3    3    0    0  0.59300732619E+02  0.86985203169E+02 -0.25032704766E+03  0.27156331352E+03  0.00000000000E+00 0. -1.
          2    1    6    6  502    0 -0.39657262700E+03 -0.38097621274E+03  0.26009718820E+03  0.60832825881E+03  0.00000000000E+00 0. -1.
          1    1    5    5  503    0  0.14121735179E+03  0.22496809144E+03  0.23894507368E+03  0.35727822610E+03  0.00000000000E+00 0. -1.
         -2    1    5    5    0  503  0.67150066766E+02  0.33943032683E+02  0.85857764509E+02  0.11416136238E+03  0.00000000000E+00 0.  1.
         -1    1    6    6    0  502 -0.26045550122E+01 -0.90373028720E+01 -0.37398683354E+01  0.10121421105E+02  0.00000000000E+00 0.  1.
<mgrwt>
<rscale>  0 0.18413988E+04</rscale>
<asrwt>0</asrwt>
<pdfrwt beam="1">  1        1 0.13173491E+00 0.18413988E+04</pdfrwt>
<pdfrwt beam="2">  1       -1 0.15230287E+00 0.18413988E+04</pdfrwt>
<totfact> 0.62287526E+00</totfact>
</mgrwt>
</event>
<event>
12    1  0.1960998E-007  0.1551147E+04  0.7818608E-02  0.8851135E-01
         -2   -1    0    0    0  501 -0.00000000000E+00  0.00000000000E+00  0.11553373897E+04  0.11553373897E+04  0.00000000000E+00 0.  1.
          2   -1    0    0  501    0  0.00000000000E+00 -0.00000000000E+00 -0.52063949023E+03  0.52063949023E+03  0.00000000000E+00 0. -1.
         23    2    1    2    0    0  0.39212863120E+03  0.31960574802E+03  0.15771262625E+03  0.53768507080E+03  0.91210006624E+02 0.  0.
        254    2    1    2    0    0 -0.39212863120E+03 -0.31960574802E+03  0.47698527326E+03  0.11382918092E+04  0.90126610628E+03 0.  0.
        -24    2    4    4    0    0  0.22660216149E+03 -0.35046080874E+02  0.37237139061E+03  0.44467973664E+03  0.80640239650E+02 0.  0.
         24    2    4    4    0    0 -0.61873079269E+03 -0.28455966714E+03  0.10461388265E+03  0.69361207253E+03  0.79697206491E+02 0.  0.
         13    1    3    3    0    0  0.30606213485E+03  0.21730006497E+03  0.14853187665E+03  0.40367693395E+03  0.00000000000E+00 0.  1.
        -13    1    3    3    0    0  0.86066496358E+02  0.10230568305E+03  0.91807495990E+01  0.13400813685E+03  0.00000000000E+00 0. -1.
          4    1    6    6  502    0 -0.40462873972E+03 -0.14634805576E+03  0.52150557928E+02  0.43343033018E+03  0.00000000000E+00 0. -1.
          1    1    5    5  503    0  0.47965847446E+01  0.72687068329E+01 -0.54625834041E+00  0.87258078371E+01  0.00000000000E+00 0. -1.
         -2    1    5    5    0  503  0.22180557675E+03 -0.42314787707E+02  0.37291764895E+03  0.43595392880E+03  0.00000000000E+00 0.  1.
         -3    1    6    6    0  502 -0.21410205298E+03 -0.13821161138E+03  0.52463324717E+02  0.26018174234E+03  0.00000000000E+00 0.  1.
<mgrwt>
<rscale>  0 0.15511470E+04</rscale>
<asrwt>0</asrwt>
<pdfrwt beam="1">  1        2 0.80098383E-01 0.15511470E+04</pdfrwt>
<pdfrwt beam="2">  1       -2 0.17774421E+00 0.15511470E+04</pdfrwt>
<totfact> 0.10615824E+01</totfact>
</mgrwt>
</event>
<event>
12    1  0.1960998E-007  0.1225784E+04  0.7818608E-02  0.9090583E-01
          2   -1    0    0  501    0  0.00000000000E+00  0.00000000000E+00  0.13389899358E+04  0.13389899358E+04  0.00000000000E+00 0. -1.
         -2   -1    0    0    0  501 -0.00000000000E+00 -0.00000000000E+00 -0.28053727601E+03  0.28053727601E+03  0.00000000000E+00 0.  1.
         23    2    1    2    0    0  0.11990513172E+02 -0.27389297678E+03  0.21830356172E+03  0.36161525575E+03  0.89151629243E+02 0.  0.
        254    2    1    2    0    0 -0.11990513172E+02  0.27389297678E+03  0.84014909811E+03  0.12579119561E+04  0.89517084800E+03 0.  0.
        -24    2    4    4    0    0  0.29551554153E+03 -0.14064309715E+03  0.99482933394E+02  0.35163311597E+03  0.81480538499E+02 0.  0.
         24    2    4    4    0    0 -0.30750605470E+03  0.41453607393E+03  0.74066616471E+03  0.90627884012E+03  0.79717239262E+02 0.  0.
         11    1    3    3    0    0 -0.12217115794E+02 -0.12894176430E+03  0.15394380254E+03  0.20118133820E+03  0.00000000000E+00 0.  1.
        -11    1    3    3    0    0  0.24207628966E+02 -0.14495121248E+03  0.64359759182E+02  0.16043391755E+03  0.00000000000E+00 0. -1.
          4    1    6    6  502    0 -0.24257330384E+03  0.37374235814E+03  0.62953389573E+03  0.77125746925E+03  0.00000000000E+00 0. -1.
          3    1    5    5  503    0  0.27978058441E+03 -0.13889084679E+03  0.72994990187E+02  0.32077423731E+03  0.00000000000E+00 0. -1.
         -4    1    5    5    0  503  0.15734957121E+02 -0.17522503626E+01  0.26487943206E+02  0.30858878661E+02  0.00000000000E+00 0.  1.
         -3    1    6    6    0  502 -0.64932750859E+02  0.40793715788E+02  0.11113226898E+03  0.13502137087E+03  0.00000000000E+00 0.  1.
<mgrwt>
<rscale>  0 0.12257840E+04</rscale>
<asrwt>0</asrwt>
<pdfrwt beam="1">  1        2 0.20599845E+00 0.12257840E+04</pdfrwt>
<pdfrwt beam="2">  1       -2 0.43159582E-01 0.12257840E+04</pdfrwt>
<totfact> 0.78634352E+01</totfact>
</mgrwt>
</event>
<event>
12    1  0.1960998E-007  0.1866249E+04  0.7818608E-02  0.8671841E-01
          2   -1    0    0  501    0  0.00000000000E+00  0.00000000000E+00  0.54664319144E+03  0.54664319144E+03  0.00000000000E+00 0. -1.
         -2   -1    0    0    0  501 -0.00000000000E+00 -0.00000000000E+00 -0.15928510296E+04  0.15928510296E+04  0.00000000000E+00 0.  1.
         23    2    1    2    0    0 -0.32335723767E+03  0.55286184649E+03 -0.40436089707E+02  0.64802965217E+03  0.89951254975E+02 0.  0.
        254    2    1    2    0    0  0.32335723767E+03 -0.55286184649E+03 -0.10057717485E+04  0.14914645689E+04  0.89592054659E+03 0.  0.
        -24    2    4    4    0    0 -0.22805167513E+03 -0.44961447531E+03 -0.32070177470E+03  0.60282628773E+03  0.79932233508E+02 0.  0.
         24    2    4    4    0    0  0.55140891280E+03 -0.10324737119E+03 -0.68506997379E+03  0.88863828118E+03  0.75135324657E+02 0.  0.
         13    1    3    3    0    0 -0.13406345786E+03  0.19192200757E+03  0.24253942971E+02  0.23536210713E+03  0.00000000000E+00 0.  1.
        -13    1    3    3    0    0 -0.18929377981E+03  0.36093983892E+03 -0.64690032678E+02  0.41266754504E+03  0.00000000000E+00 0. -1.
          4    1    6    6  502    0  0.48128097733E+03 -0.10477700617E+03 -0.62857884851E+03  0.79857433527E+03  0.00000000000E+00 0. -1.
          1    1    5    5  503    0 -0.13717986233E+03 -0.18360651664E+03 -0.13687515868E+03  0.26695407216E+03  0.00000000000E+00 0. -1.
         -2    1    5    5    0  503 -0.90871812804E+02 -0.26600795866E+03 -0.18382661602E+03  0.33587221557E+03  0.00000000000E+00 0.  1.
         -3    1    6    6    0  502  0.70127935474E+02  0.15296349783E+01 -0.56491125283E+02  0.90063945909E+02  0.00000000000E+00 0.  1.
<mgrwt>
<rscale>  0 0.18662488E+04</rscale>
<asrwt>0</asrwt>
<pdfrwt beam="1">  1        2 0.84098951E-01 0.18662488E+04</pdfrwt>
<pdfrwt beam="2">  1       -2 0.24505401E+00 0.18662488E+04</pdfrwt>
<totfact> 0.35888903E+00</totfact>
</mgrwt>
</event>
<event>
12    1  0.1960998E-007  0.1853995E+04  0.7818608E-02  0.8678101E-01
         -1   -1    0    0    0  501 -0.00000000000E+00  0.00000000000E+00  0.39394032005E+03  0.39394032005E+03  0.00000000000E+00 0.  1.
          1   -1    0    0  501    0  0.00000000000E+00 -0.00000000000E+00 -0.21813566792E+04  0.21813566792E+04  0.00000000000E+00 0. -1.
         23    2    1    2    0    0  0.33818624003E+03 -0.22351873888E+03  0.11610940749E+03  0.43119365011E+03  0.90088899464E+02 0.  0.
        254    2    1    2    0    0 -0.33818624003E+03  0.22351873888E+03 -0.19035257666E+04  0.21441033491E+04  0.89968787252E+03 0.  0.
        -24    2    4    4    0    0 -0.21546859367E+03 -0.30508574088E+03 -0.44763410187E+03  0.58835380317E+03  0.79245721610E+02 0.  0.
         24    2    4    4    0    0 -0.12271764636E+03  0.52860447977E+03 -0.14558916648E+04  0.15557495460E+04  0.79080930090E+02 0.  0.
         11    1    3    3    0    0  0.33521770130E+03 -0.21497330854E+03  0.96729131932E+02  0.40980599753E+03  0.00000000000E+00 0. -1.
        -11    1    3    3    0    0  0.29685387352E+01 -0.85454303400E+01  0.19380275561E+02  0.21387652577E+02  0.00000000000E+00 0.  1.
          2    1    6    6  502    0 -0.10262967811E+03  0.36858592454E+03 -0.92821845415E+03  0.10039810423E+04  0.00000000000E+00 0. -1.
          1    1    5    5  503    0 -0.18736356081E+03 -0.23519478424E+03 -0.31274865169E+03  0.43385874382E+03  0.00000000000E+00 0. -1.
         -2    1    5    5    0  503 -0.28105032861E+02 -0.69890956642E+02 -0.13488545018E+03  0.15449505935E+03  0.00000000000E+00 0.  1.
         -1    1    6    6    0  502 -0.20087968248E+02  0.16001855523E+03 -0.52767321061E+03  0.55176850371E+03  0.00000000000E+00 0.  1.
<mgrwt>
<rscale>  0 0.18539950E+04</rscale>
<asrwt>0</asrwt>
<pdfrwt beam="1">  1        1 0.33559333E+00 0.18539950E+04</pdfrwt>
<pdfrwt beam="2">  1       -1 0.60606203E-01 0.18539950E+04</pdfrwt>
<totfact> 0.58187866E+00</totfact>
</mgrwt>
</event>
<event>
12    1  0.1960998E-007  0.3086590E+04  0.7818608E-02  0.8219428E-01
          2   -1    0    0  501    0  0.00000000000E+00  0.00000000000E+00  0.17517026735E+04  0.17517026735E+04  0.00000000000E+00 0. -1.
         -2   -1    0    0    0  501 -0.00000000000E+00 -0.00000000000E+00 -0.13596828967E+04  0.13596828967E+04  0.00000000000E+00 0.  1.
         23    2    1    2    0    0 -0.89872371547E+03 -0.10871660905E+04  0.14981139526E+03  0.14214131328E+04  0.91309445214E+02 0.  0.
        254    2    1    2    0    0  0.89872371547E+03  0.10871660905E+04  0.24220838154E+03  0.16899724374E+04  0.89872549418E+03 0.  0.
        -24    2    4    4    0    0  0.20508573509E+03 -0.13973735841E+03  0.26575234979E+02  0.26197475638E+03  0.79610563325E+02 0.  0.
         24    2    4    4    0    0  0.69363798038E+03  0.12269034489E+04  0.21563314656E+03  0.14279976810E+04  0.79082249787E+02 0.  0.
         13    1    3    3    0    0 -0.22506574152E+03 -0.23432964211E+03  0.45172855846E+01  0.32493903281E+03  0.00000000000E+00 0.  1.
        -13    1    3    3    0    0 -0.67365797395E+03 -0.85283644843E+03  0.14529410968E+03  0.10964741000E+04  0.00000000000E+00 0. -1.
          4    1    6    6  502    0  0.64053627641E+03  0.11379834032E+04  0.17869312836E+03  0.13180380046E+04  0.00000000000E+00 0. -1.
          1    1    5    5  503    0  0.92277131106E+02 -0.94446747930E+02  0.43979958663E+02  0.13917432911E+03  0.00000000000E+00 0. -1.
         -2    1    5    5    0  503  0.11280860398E+03 -0.45290610478E+02 -0.17404723684E+02  0.12280042726E+03  0.00000000000E+00 0.  1.
         -3    1    6    6    0  502  0.53101703974E+02  0.88920045705E+02  0.36940018202E+02  0.10995967642E+03  0.00000000000E+00 0.  1.
<mgrwt>
<rscale>  0 0.30865905E+04</rscale>
<asrwt>0</asrwt>
<pdfrwt beam="1">  1        2 0.26949272E+00 0.30865905E+04</pdfrwt>
<pdfrwt beam="2">  1       -2 0.20918198E+00 0.30865905E+04</pdfrwt>
<totfact> 0.90432422E-01</totfact>
</mgrwt>
</event>
<event>
12    1  0.1960998E-007  0.1845843E+04  0.7818608E-02  0.8682294E-01
         -1   -1    0    0    0  501 -0.00000000000E+00  0.00000000000E+00  0.48903703679E+03  0.48903703679E+03  0.00000000000E+00 0.  1.
          1   -1    0    0  501    0  0.00000000000E+00 -0.00000000000E+00 -0.17417578090E+04  0.17417578090E+04  0.00000000000E+00 0. -1.
         23    2    1    2    0    0  0.40101365226E+03  0.53951355732E+03 -0.24469346034E+03  0.72116531174E+03  0.91201367837E+02 0.  0.
        254    2    1    2    0    0 -0.40101365226E+03 -0.53951355732E+03 -0.10080273118E+04  0.15096295340E+04  0.90054174847E+03 0.  0.
        -24    2    4    4    0    0 -0.36174679348E+03 -0.62356151901E+03 -0.28953135146E+03  0.78089930840E+03  0.79281875670E+02 0.  0.
         24    2    4    4    0    0 -0.39266858773E+02  0.84047961682E+02 -0.71849596038E+03  0.72873022561E+03  0.78774047662E+02 0.  0.
         13    1    3    3    0    0  0.19313593654E+03  0.29548116984E+03 -0.17097626430E+03  0.39222888046E+03  0.00000000000E+00 0. -1.
        -13    1    3    3    0    0  0.20787771572E+03  0.24403238748E+03 -0.73717196040E+02  0.32893643128E+03  0.00000000000E+00 0.  1.
          2    1    6    6  502    0 -0.18958944672E+02  0.89545770933E+02 -0.66460097459E+03  0.67087431170E+03  0.00000000000E+00 0. -1.
          3    1    5    5  503    0 -0.35470055191E+03 -0.57224947147E+03 -0.27334102387E+03  0.72663419576E+03  0.00000000000E+00 0. -1.
         -4    1    5    5    0  503 -0.70462415747E+01 -0.51312047535E+02 -0.16190327590E+02  0.54265112642E+02  0.00000000000E+00 0.  1.
         -1    1    6    6    0  502 -0.20307914101E+02 -0.54978092515E+01 -0.53894985790E+02  0.57855913916E+02  0.00000000000E+00 0.  1.
<mgrwt>
<rscale>  0 0.18458430E+04</rscale>
<asrwt>0</asrwt>
<pdfrwt beam="1">  1        1 0.26796274E+00 0.18458430E+04</pdfrwt>
<pdfrwt beam="2">  1       -1 0.75236467E-01 0.18458430E+04</pdfrwt>
<totfact> 0.74508576E+00</totfact>
</mgrwt>
</event>
<event>
12    1  0.1960998E-007  0.1275159E+04  0.7818608E-02  0.9049499E-01
          2   -1    0    0  501    0  0.00000000000E+00  0.00000000000E+00  0.14076022705E+04  0.14076022705E+04  0.00000000000E+00 0. -1.
         -2   -1    0    0    0  501 -0.00000000000E+00 -0.00000000000E+00 -0.28879443102E+03  0.28879443102E+03  0.00000000000E+00 0.  1.
         23    2    1    2    0    0  0.26525884924E+03 -0.11413778720E+03  0.13268515759E+03  0.33066416991E+03  0.91344133065E+02 0.  0.
        254    2    1    2    0    0 -0.26525884924E+03  0.11413778720E+03  0.98612268188E+03  0.13657325316E+04  0.89966533366E+03 0.  0.
        -24    2    4    4    0    0 -0.28434703743E+03 -0.25328313723E+03  0.97917602430E+02  0.40118802324E+03  0.79739499812E+02 0.  0.
         24    2    4    4    0    0  0.19088188183E+02  0.36742092443E+03  0.88820507945E+03  0.96454450836E+03  0.77944536734E+02 0.  0.
         11    1    3    3    0    0  0.21237017548E+03 -0.89012240931E+02  0.14321278853E+03  0.27117185191E+03  0.00000000000E+00 0. -1.
        -11    1    3    3    0    0  0.52888673767E+02 -0.25125546268E+02 -0.10527630935E+02  0.59492318001E+02  0.00000000000E+00 0.  1.
          2    1    6    6  502    0 -0.27259296430E+02  0.14453570508E+03  0.38911222954E+03  0.41598313242E+03  0.00000000000E+00 0. -1.
          1    1    5    5  503    0 -0.24063316523E+02 -0.44987545712E+02 -0.74590196431E+01  0.51561220362E+02  0.00000000000E+00 0. -1.
         -2    1    5    5    0  503 -0.26028372091E+03 -0.20829559152E+03  0.10537662207E+03  0.34962680288E+03  0.00000000000E+00 0.  1.
         -1    1    6    6    0  502  0.46347484613E+02  0.22288521935E+03  0.49909284992E+03  0.54856137594E+03  0.00000000000E+00 0.  1.
<mgrwt>
<rscale>  0 0.12751591E+04</rscale>
<asrwt>0</asrwt>
<pdfrwt beam="1">  1        2 0.21655419E+00 0.12751591E+04</pdfrwt>
<pdfrwt beam="2">  1       -2 0.44429913E-01 0.12751591E+04</pdfrwt>
<totfact> 0.67547384E+01</totfact>
</mgrwt>
</event>
<event>
12    1  0.3276882E-007  0.2641997E+04  0.7818608E-02  0.8354074E-01
          2   -1    0    0  501    0  0.00000000000E+00  0.00000000000E+00  0.12243432283E+04  0.12243432283E+04  0.00000000000E+00 0. -1.
         -2   -1    0    0    0  501 -0.00000000000E+00 -0.00000000000E+00 -0.14252837623E+04  0.14252837623E+04  0.00000000000E+00 0.  1.
         23    2    1    2    0    0  0.63957521493E+03 -0.54629972049E+03 -0.89910684856E+03  0.12350255399E+04  0.96928421294E+02 0.  0.
        254    2    1    2    0    0 -0.63957521493E+03  0.54629972049E+03  0.69816631465E+03  0.14146014507E+04  0.89786481239E+03 0.  0.
        -24    2    4    4    0    0 -0.27070197291E+03  0.38811037020E+03  0.85191338517E+03  0.97776265590E+03  0.79713097107E+02 0.  0.
         24    2    4    4    0    0 -0.36887324202E+03  0.15818935029E+03 -0.15374707053E+03  0.43683879482E+03  0.78093736885E+02 0.  0.
         11    1    3    3    0    0  0.23930236126E+03 -0.25541288633E+03 -0.33223288799E+03  0.48257647526E+03  0.00000000000E+00 0.  1.
        -11    1    3    3    0    0  0.40027285367E+03 -0.29088683416E+03 -0.56687396057E+03  0.75244906462E+03  0.00000000000E+00 0. -1.
          2    1    6    6  502    0 -0.29088555491E+03  0.12924652485E+03 -0.15411446354E+03  0.35365284972E+03  0.00000000000E+00 0. -1.
          3    1    5    5  503    0 -0.27140109499E+03  0.37362777229E+03  0.84159017945E+03  0.95996369553E+03  0.00000000000E+00 0. -1.
         -4    1    5    5    0  503  0.69912208424E+00  0.14482597913E+02  0.10323205720E+02  0.17798960372E+02  0.00000000000E+00 0.  1.
         -1    1    6    6    0  502 -0.77987687106E+02  0.28942825445E+02  0.36739301127E+00  0.83185945102E+02  0.00000000000E+00 0.  1.
<mgrwt>
<rscale>  0 0.26419966E+04</rscale>
<asrwt>0</asrwt>
<pdfrwt beam="1">  1        2 0.18836050E+00 0.26419966E+04</pdfrwt>
<pdfrwt beam="2">  1       -2 0.21927442E+00 0.26419966E+04</pdfrwt>
<totfact> 0.16128956E+00</totfact>
</mgrwt>
</event>
<event>
12    1  0.1960998E-007  0.2181250E+04  0.7818608E-02  0.8526273E-01
          2   -1    0    0  501    0  0.00000000000E+00  0.00000000000E+00  0.17071311616E+04  0.17071311616E+04  0.00000000000E+00 0. -1.
         -2   -1    0    0    0  501 -0.00000000000E+00 -0.00000000000E+00 -0.69676112780E+03  0.69676112780E+03  0.00000000000E+00 0.  1.
         23    2    1    2    0    0  0.11094831446E+03  0.79256826253E+03  0.88130760990E+03  0.11940288182E+04  0.92345742615E+02 0.  0.
        254    2    1    2    0    0 -0.11094831446E+03 -0.79256826253E+03  0.12906242395E+03  0.12098634712E+04  0.89813057542E+03 0.  0.
        -24    2    4    4    0    0 -0.26684244739E+03 -0.91871804353E+03  0.20342834142E+03  0.98150171094E+03  0.81943781047E+02 0.  0.
         24    2    4    4    0    0  0.15589413293E+03  0.12614978099E+03 -0.74365917473E+02  0.22836176030E+03  0.80012848713E+02 0.  0.
         13    1    3    3    0    0  0.82102942458E+01  0.34948013027E+03  0.41527634493E+03  0.54282429298E+03  0.00000000000E+00 0.  1.
        -13    1    3    3    0    0  0.10273802021E+03  0.44308813227E+03  0.46603126497E+03  0.65120452523E+03  0.00000000000E+00 0. -1.
          4    1    6    6  502    0  0.77356881849E+02  0.64721709564E+02  0.49086208930E+01  0.10098059921E+03  0.00000000000E+00 0. -1.
          3    1    5    5  503    0 -0.67299617352E+02 -0.13590623696E+03  0.18690061327E+02  0.15280399908E+03  0.00000000000E+00 0. -1.
         -4    1    5    5    0  503 -0.19954283004E+03 -0.78281180656E+03  0.18473828009E+03  0.82869771186E+03  0.00000000000E+00 0.  1.
         -3    1    6    6    0  502  0.78537251081E+02  0.61428071429E+02 -0.79274538366E+02  0.12738116109E+03  0.00000000000E+00 0.  1.
<mgrwt>
<rscale>  0 0.21812498E+04</rscale>
<asrwt>0</asrwt>
<pdfrwt beam="1">  1        2 0.26263556E+00 0.21812498E+04</pdfrwt>
<pdfrwt beam="2">  1       -2 0.10719402E+00 0.21812498E+04</pdfrwt>
<totfact> 0.62221360E+00</totfact>
</mgrwt>
</event>
<event>
12    1  0.1960998E-007  0.1514265E+04  0.7818608E-02  0.8875022E-01
         -2   -1    0    0    0  501 -0.00000000000E+00  0.00000000000E+00  0.82617059770E+03  0.82617059770E+03  0.00000000000E+00 0. -1.
          2   -1    0    0  501    0  0.00000000000E+00 -0.00000000000E+00 -0.69386327562E+03  0.69386327562E+03  0.00000000000E+00 0.  1.
         23    2    1    2    0    0 -0.45669916910E+03 -0.90780315790E+02  0.17624324860E+03  0.50583715778E+03  0.89411133082E+02 0.  0.
        254    2    1    2    0    0  0.45669916910E+03  0.90780315790E+02 -0.43935926525E+02  0.10141967155E+04  0.89991633799E+03 0.  0.
        -24    2    4    4    0    0  0.15889271319E+03 -0.26382674268E+03 -0.33465473657E+03  0.46175100947E+03  0.79804495994E+02 0.  0.
         24    2    4    4    0    0  0.29780645591E+03  0.35460705847E+03  0.29071881004E+03  0.55244570607E+03  0.79018861957E+02 0.  0.
         11    1    3    3    0    0 -0.39698001112E+03 -0.89651210743E+02  0.18202314942E+03  0.44582832542E+03  0.00000000000E+00 0. -1.
        -11    1    3    3    0    0 -0.59719157973E+02 -0.11291050472E+01 -0.57799008215E+01  0.60008832356E+02  0.00000000000E+00 0.  1.
          2    1    6    6  502    0  0.14413299645E+03  0.14812485359E+03  0.87222241691E+02  0.22432791258E+03  0.00000000000E+00 0. -1.
          3    1    5    5  503    0 -0.83210492736E+01 -0.25182858156E+02 -0.23221599223E+02  0.35251367015E+02  0.00000000000E+00 0. -1.
         -4    1    5    5    0  503  0.16721376246E+03 -0.23864388453E+03 -0.31143313734E+03  0.42649964246E+03  0.00000000000E+00 0.  1.
         -1    1    6    6    0  502  0.15367345946E+03  0.20648220488E+03  0.20349656835E+03  0.32811779349E+03  0.00000000000E+00 0.  1.
<mgrwt>
<rscale>  0 0.15142648E+04</rscale>
<asrwt>0</asrwt>
<pdfrwt beam="1">  1        2 0.10674820E+00 0.15142648E+04</pdfrwt>
<pdfrwt beam="2">  1       -2 0.12710317E+00 0.15142648E+04</pdfrwt>
<totfact> 0.18380915E+01</totfact>
</mgrwt>
</event>
<event>
12    1  0.1960998E-007  0.1836140E+04  0.7818608E-02  0.8687313E-01
          1   -1    0    0  501    0  0.00000000000E+00  0.00000000000E+00  0.79383916293E+03  0.79383916293E+03  0.00000000000E+00 0. -1.
         -1   -1    0    0    0  501 -0.00000000000E+00 -0.00000000000E+00 -0.10617422127E+04  0.10617422127E+04  0.00000000000E+00 0.  1.
         23    2    1    2    0    0 -0.75466357179E+02 -0.58408832278E+03 -0.48578123567E+03  0.76883824466E+03  0.90964265742E+02 0.  0.
        254    2    1    2    0    0  0.75466357179E+02  0.58408832278E+03  0.21787818591E+03  0.10867431310E+04  0.88695286737E+03 0.  0.
        -24    2    4    4    0    0  0.15998937056E+03 -0.19400474763E+03  0.13376316433E+03  0.29501853982E+03  0.76869460216E+02 0.  0.
         24    2    4    4    0    0 -0.84523013386E+02  0.77809307041E+03  0.84115021587E+02  0.79172459115E+03  0.84732079870E+02 0.  0.
         13    1    3    3    0    0 -0.59545994262E+02 -0.20268786817E+03 -0.13720045661E+03  0.25189692858E+03  0.00000000000E+00 0. -1.
        -13    1    3    3    0    0 -0.15920362917E+02 -0.38140045462E+03 -0.34858077906E+03  0.51694131608E+03  0.00000000000E+00 0.  1.
          2    1    6    6  502    0 -0.21264602671E+01  0.22741964075E+03 -0.68843372585E+01  0.22753375339E+03  0.00000000000E+00 0. -1.
          1    1    5    5  503    0  0.60445680598E+01  0.56262531341E+01  0.13218695730E+02  0.15586065705E+02  0.00000000000E+00 0. -1.
         -2    1    5    5    0  503  0.15394480250E+03 -0.19963100076E+03  0.12054446860E+03  0.27943247412E+03  0.00000000000E+00 0.  1.
         -1    1    6    6    0  502 -0.82396553118E+02  0.55067342966E+03  0.90999358846E+02  0.56419083775E+03  0.00000000000E+00 0.  1.
<mgrwt>
<rscale>  0 0.18361400E+04</rscale>
<asrwt>0</asrwt>
<pdfrwt beam="1">  1        1 0.12212910E+00 0.18361400E+04</pdfrwt>
<pdfrwt beam="2">  1       -1 0.16334496E+00 0.18361400E+04</pdfrwt>
<totfact> 0.58067160E+00</totfact>
</mgrwt>
</event>
<event>
12    1  0.1960998E-007  0.1535768E+04  0.7818608E-02  0.8861010E-01
         -2   -1    0    0    0  501 -0.00000000000E+00  0.00000000000E+00  0.43264522807E+03  0.43264522807E+03  0.00000000000E+00 0. -1.
          2   -1    0    0  501    0  0.00000000000E+00 -0.00000000000E+00 -0.13628852323E+04  0.13628852323E+04  0.00000000000E+00 0.  1.
         23    2    1    2    0    0  0.34708739976E+03  0.35051769534E+03 -0.38920339136E+03  0.63498151069E+03  0.91596513331E+02 0.  0.
        254    2    1    2    0    0 -0.34708739976E+03 -0.35051769534E+03 -0.54103661283E+03  0.11605489496E+04  0.90045595687E+03 0.  0.
        -24    2    4    4    0    0 -0.10756606164E+03 -0.40470145918E+03  0.12683654219E+03  0.44461351255E+03  0.78993280936E+02 0.  0.
         24    2    4    4    0    0 -0.23952133812E+03  0.54183763834E+02 -0.66787315502E+03  0.71593543708E+03  0.78756886648E+02 0.  0.
         13    1    3    3    0    0  0.13175818087E+03  0.12023178583E+03 -0.87777979215E+02  0.19879857692E+03  0.00000000000E+00 0. -1.
        -13    1    3    3    0    0  0.21532921888E+03  0.23028590952E+03 -0.30142541215E+03  0.43618293377E+03  0.00000000000E+00 0.  1.
          4    1    6    6  502    0 -0.76005350379E+02  0.45354097994E+02 -0.16747649634E+03  0.18942593359E+03  0.00000000000E+00 0. -1.
          1    1    5    5  503    0 -0.44139583093E+01 -0.18123788276E+02  0.25999646303E+02  0.31999005255E+02  0.00000000000E+00 0. -1.
         -2    1    5    5    0  503 -0.10315210333E+03 -0.38657767090E+03  0.10083689589E+03  0.41261450730E+03  0.00000000000E+00 0.  1.
         -3    1    6    6    0  502 -0.16351598774E+03  0.88296658394E+01 -0.50039665868E+03  0.52650950349E+03  0.00000000000E+00 0.  1.
<mgrwt>
<rscale>  0 0.15357679E+04</rscale>
<asrwt>0</asrwt>
<pdfrwt beam="1">  1        2 0.20967465E+00 0.15357679E+04</pdfrwt>
<pdfrwt beam="2">  1       -2 0.66560804E-01 0.15357679E+04</pdfrwt>
<totfact> 0.30377495E+01</totfact>
</mgrwt>
</event>
<event>
12    1  0.1960998E-007  0.2005678E+04  0.7818608E-02  0.8603970E-01
          3   -1    0    0  501    0  0.00000000000E+00  0.00000000000E+00  0.69983939126E+03  0.69983939126E+03  0.00000000000E+00 0. -1.
         -3   -1    0    0    0  501 -0.00000000000E+00 -0.00000000000E+00 -0.14370245967E+04  0.14370245967E+04  0.00000000000E+00 0.  1.
         23    2    1    2    0    0  0.71975871762E+03 -0.15262406670E+03  0.34036638997E+02  0.74220319236E+03  0.91435051430E+02 0.  0.
        254    2    1    2    0    0 -0.71975871762E+03  0.15262406670E+03 -0.77122184442E+03  0.13946607956E+04  0.89941585715E+03 0.  0.
        -24    2    4    4    0    0  0.87865510203E+02  0.19380107725E+03 -0.47961928672E+03  0.53113361164E+03  0.82395678242E+02 0.  0.
         24    2    4    4    0    0 -0.80762422783E+03 -0.41177010556E+02 -0.29160255770E+03  0.86352718394E+03  0.81821184184E+02 0.  0.
         11    1    3    3    0    0  0.39400707194E+03 -0.81547834053E+02 -0.26936505298E+02  0.40325822657E+03  0.00000000000E+00 0.  1.
        -11    1    3    3    0    0  0.32575164568E+03 -0.71076232645E+02  0.60973144296E+02  0.33894496579E+03  0.00000000000E+00 0. -1.
          2    1    6    6  502    0 -0.46780722302E+03  0.15162811960E+02 -0.15649950841E+03  0.49352366196E+03  0.00000000000E+00 0. -1.
          3    1    5    5  503    0  0.76805156673E+02  0.19056212388E+03 -0.39030940792E+03  0.44108319971E+03  0.00000000000E+00 0. -1.
         -4    1    5    5    0  503  0.11060353530E+02  0.32389533758E+01 -0.89309878796E+02  0.90050411936E+02  0.00000000000E+00 0.  1.
         -1    1    6    6    0  502 -0.33981700480E+03 -0.56339822516E+02 -0.13510304929E+03  0.37000352199E+03  0.00000000000E+00 0.  1.
<mgrwt>
<rscale>  0 0.20056784E+04</rscale>
<asrwt>0</asrwt>
<pdfrwt beam="1">  1        3 0.10766760E+00 0.20056784E+04</pdfrwt>
<pdfrwt beam="2">  1       -3 0.22108070E+00 0.20056784E+04</pdfrwt>
<totfact> 0.19335961E-01</totfact>
</mgrwt>
</event>
<event>
12    1  0.1960998E-007  0.2185694E+04  0.7818608E-02  0.8524406E-01
          2   -1    0    0  501    0  0.00000000000E+00  0.00000000000E+00  0.38247256031E+04  0.38247256031E+04  0.00000000000E+00 0. -1.
         -2   -1    0    0    0  501 -0.00000000000E+00 -0.00000000000E+00 -0.31226157665E+03  0.31226157665E+03  0.00000000000E+00 0.  1.
         23    2    1    2    0    0  0.27957770553E+03 -0.60994245200E+03  0.31255285656E+03  0.74584954538E+03  0.91699334921E+02 0.  0.
        254    2    1    2    0    0 -0.27957770553E+03  0.60994245200E+03  0.31999111699E+04  0.33911376344E+04  0.90010525599E+03 0.  0.
        -24    2    4    4    0    0 -0.40461146576E+03  0.46455826618E+03  0.30977020398E+04  0.31593954092E+04  0.80601512520E+02 0.  0.
         24    2    4    4    0    0  0.12503376023E+03  0.14538418582E+03  0.10220913017E+03  0.23174222518E+03  0.80546570110E+02 0.  0.
         13    1    3    3    0    0  0.22215395043E+03 -0.50502751984E+03  0.29285854918E+03  0.62463693720E+03  0.00000000000E+00 0. -1.
        -13    1    3    3    0    0  0.57423755101E+02 -0.10491493216E+03  0.19694307386E+02  0.12121260818E+03  0.00000000000E+00 0.  1.
          4    1    6    6  502    0  0.13507996167E+03  0.14401252093E+03  0.10014905600E+03  0.22139565408E+03  0.00000000000E+00 0. -1.
          3    1    5    5  503    0 -0.23929608259E+03  0.32498077693E+03  0.19145768700E+04  0.19566501250E+04  0.00000000000E+00 0. -1.
         -2    1    5    5    0  503 -0.16531538317E+03  0.13957748924E+03  0.11831251698E+04  0.12027452842E+04  0.00000000000E+00 0.  1.
         -3    1    6    6    0  502 -0.10046201439E+02  0.13716648967E+01  0.20600741707E+01  0.10346571100E+02  0.00000000000E+00 0.  1.
<mgrwt>
<rscale>  0 0.21856943E+04</rscale>
<asrwt>0</asrwt>
<pdfrwt beam="1">  1        2 0.58841929E+00 0.21856943E+04</pdfrwt>
<pdfrwt beam="2">  1       -2 0.48040245E-01 0.21856943E+04</pdfrwt>
<totfact> 0.17769525E+00</totfact>
</mgrwt>
</event>
<event>
12    1  0.2762225E-007  0.2534857E+04  0.7818608E-02  0.8390672E-01
         -1   -1    0    0    0  501 -0.00000000000E+00  0.00000000000E+00  0.94169912331E+03  0.94169912331E+03  0.00000000000E+00 0.  1.
          1   -1    0    0  501    0  0.00000000000E+00 -0.00000000000E+00 -0.17058264109E+04  0.17058264109E+04  0.00000000000E+00 0. -1.
         23    2    1    2    0    0  0.92240473728E+03 -0.37122575454E+03 -0.83998873233E+03  0.13048303773E+04  0.91444972580E+02 0.  0.
        254    2    1    2    0    0 -0.92240473728E+03  0.37122575454E+03  0.75861444774E+02  0.13426951568E+04  0.89913083873E+03 0.  0.
        -24    2    4    4    0    0 -0.16866336575E+03  0.37524887085E+03 -0.28158330162E+03  0.50505600595E+03  0.80829248275E+02 0.  0.
         24    2    4    4    0    0 -0.75374137153E+03 -0.40231163063E+01  0.35744474640E+03  0.83763915087E+03  0.75699139457E+02 0.  0.
         13    1    3    3    0    0  0.71763207078E+03 -0.25092113164E+03 -0.66148642541E+03  0.10077308640E+04  0.00000000000E+00 0.  1.
        -13    1    3    3    0    0  0.20477266650E+03 -0.12030462290E+03 -0.17850230692E+03  0.29709951332E+03  0.00000000000E+00 0. -1.
          4    1    6    6  502    0 -0.62578039903E+03 -0.23774191150E+02  0.27363555725E+03  0.68340525178E+03  0.00000000000E+00 0. -1.
          1    1    5    5  503    0 -0.87950684989E+02  0.22195534756E+03 -0.11610552150E+03  0.26548067994E+03  0.00000000000E+00 0. -1.
         -2    1    5    5    0  503 -0.80712680759E+02  0.15329352329E+03 -0.16547778013E+03  0.23957532601E+03  0.00000000000E+00 0.  1.
         -3    1    6    6    0  502 -0.12796097251E+03  0.19751074843E+02  0.83809189142E+02  0.15423389909E+03  0.00000000000E+00 0.  1.
<mgrwt>
<rscale>  0 0.25348572E+04</rscale>
<asrwt>0</asrwt>
<pdfrwt beam="1">  1        1 0.26243483E+00 0.25348572E+04</pdfrwt>
<pdfrwt beam="2">  1       -1 0.14487679E+00 0.25348572E+04</pdfrwt>
<totfact> 0.16017840E+00</totfact>
</mgrwt>
</event>
<event>
12    1  0.2098548E-007  0.3766384E+04  0.7818608E-02  0.8053407E-01
         -1   -1    0    0    0  501 -0.00000000000E+00  0.00000000000E+00  0.21605011310E+04  0.21605011310E+04  0.00000000000E+00 0.  1.
          1   -1    0    0  501    0  0.00000000000E+00 -0.00000000000E+00 -0.16414767021E+04  0.16414767021E+04  0.00000000000E+00 0. -1.
         23    2    1    2    0    0  0.16522389515E+04  0.59099183430E+03 -0.21736606102E+02  0.17572801518E+04  0.91630511276E+02 0.  0.
        254    2    1    2    0    0 -0.16522389515E+04 -0.59099183430E+03  0.54076103500E+03  0.20446976814E+04  0.89955611839E+03 0.  0.
        -24    2    4    4    0    0 -0.16252830461E+03 -0.15515250201E+03 -0.21054160596E+03  0.31837629850E+03  0.80919410085E+02 0.  0.
         24    2    4    4    0    0 -0.14897106469E+04 -0.43583933229E+03  0.75130264096E+03  0.17263213829E+04  0.80846296002E+02 0.  0.
         11    1    3    3    0    0  0.13133268089E+04  0.49724654097E+03  0.86108074762E+01  0.14043345668E+04  0.00000000000E+00 0.  1.
        -11    1    3    3    0    0  0.33891214267E+03  0.93745293331E+02 -0.30347413579E+02  0.35294558501E+03  0.00000000000E+00 0. -1.
          2    1    6    6  502    0 -0.13062213887E+04 -0.36142489202E+03  0.67539009479E+03  0.15142635336E+04  0.00000000000E+00 0. -1.
          3    1    5    5  503    0 -0.16379999001E+03 -0.16252117660E+03 -0.19944220603E+03  0.30499305421E+03  0.00000000000E+00 0. -1.
         -4    1    5    5    0  503  0.12716854071E+01  0.73686745859E+01 -0.11099399928E+02  0.13383244289E+02  0.00000000000E+00 0.  1.
         -1    1    6    6    0  502 -0.18348925817E+03 -0.74414440272E+02  0.75912546165E+02  0.21205784930E+03  0.00000000000E+00 0.  1.
<mgrwt>
<rscale>  0 0.37663841E+04</rscale>
<asrwt>0</asrwt>
<pdfrwt beam="1">  1        1 0.25253488E+00 0.37663841E+04</pdfrwt>
<pdfrwt beam="2">  1       -1 0.33238479E+00 0.37663841E+04</pdfrwt>
<totfact> 0.84651360E-02</totfact>
</mgrwt>
</event>
<event>
12    1  0.1960998E-007  0.2013014E+04  0.7818608E-02  0.8600560E-01
         -1   -1    0    0    0  501 -0.00000000000E+00  0.00000000000E+00  0.74066372554E+03  0.74066372554E+03  0.00000000000E+00 0.  1.
          1   -1    0    0  501    0  0.00000000000E+00 -0.00000000000E+00 -0.13677685917E+04  0.13677685917E+04  0.00000000000E+00 0. -1.
         23    2    1    2    0    0 -0.73317437492E+03  0.21761199569E+03  0.19948691109E+01  0.77022818556E+03  0.91366479778E+02 0.  0.
        254    2    1    2    0    0  0.73317437492E+03 -0.21761199569E+03 -0.62909973525E+03  0.13382041317E+04  0.90006898425E+03 0.  0.
        -24    2    4    4    0    0  0.87463144732E+03 -0.23439582263E+03 -0.71225039438E+03  0.11548534898E+04  0.80401420120E+02 0.  0.
         24    2    4    4    0    0 -0.14145707241E+03  0.16783826943E+02  0.83150659127E+02  0.18335064184E+03  0.80072626836E+02 0.  0.
         11    1    3    3    0    0 -0.49237228470E+03  0.18413472689E+03  0.23189857586E+02  0.52618802142E+03  0.00000000000E+00 0.  1.
        -11    1    3    3    0    0 -0.24080209022E+03  0.33477268800E+02 -0.21194988475E+02  0.24404016414E+03  0.00000000000E+00 0. -1.
          2    1    6    6  502    0 -0.12342980156E+03 -0.96611610917E+01  0.40986195003E+02  0.13041519132E+03  0.00000000000E+00 0. -1.
          3    1    5    5  503    0  0.61933007153E+03 -0.16065783197E+03 -0.45602832156E+03  0.78571146520E+03  0.00000000000E+00 0. -1.
         -4    1    5    5    0  503  0.25530137579E+03 -0.73737990666E+02 -0.25622207282E+03  0.36914202463E+03  0.00000000000E+00 0.  1.
         -1    1    6    6    0  502 -0.18027270844E+02  0.26444988035E+02  0.42164464124E+02  0.52935450514E+02  0.00000000000E+00 0.  1.
<mgrwt>
<rscale>  0 0.20130142E+04</rscale>
<asrwt>0</asrwt>
<pdfrwt beam="1">  1        1 0.21042593E+00 0.20130142E+04</pdfrwt>
<pdfrwt beam="2">  1       -1 0.11394827E+00 0.20130142E+04</pdfrwt>
<totfact> 0.52639232E+00</totfact>
</mgrwt>
</event>
<event>
12    1  0.1960998E-007  0.2930901E+04  0.7818608E-02  0.8263742E-01
         -2   -1    0    0    0  501 -0.00000000000E+00  0.00000000000E+00  0.86117609245E+03  0.86117609245E+03  0.00000000000E+00 0.  1.
          2   -1    0    0  501    0  0.00000000000E+00 -0.00000000000E+00 -0.24937355387E+04  0.24937355387E+04  0.00000000000E+00 0. -1.
         23    2    1    2    0    0  0.10388823736E+04  0.33351740639E+03  0.12189104561E+03  0.11017434594E+04  0.92036822996E+02 0.  0.
        254    2    1    2    0    0 -0.10388823736E+04 -0.33351740639E+03 -0.17544504918E+04  0.22531681717E+04  0.89897710494E+03 0.  0.
        -24    2    4    4    0    0 -0.90938277096E+03  0.12715227504E+03 -0.12518391174E+04  0.15546393249E+04  0.81593686347E+02 0.  0.
         24    2    4    4    0    0 -0.12949960264E+03 -0.46066968143E+03 -0.50261137443E+03  0.69852884677E+03  0.79609381259E+02 0.  0.
         13    1    3    3    0    0  0.65244206875E+03  0.16736063512E+03  0.54950581265E+02  0.67580307904E+03  0.00000000000E+00 0.  1.
        -13    1    3    3    0    0  0.38644030485E+03  0.16615677127E+03  0.66940464347E+02  0.42594038036E+03  0.00000000000E+00 0. -1.
          4    1    6    6  502    0 -0.13841155193E+03 -0.44371850286E+03 -0.49110764019E+03  0.67618827389E+03  0.00000000000E+00 0. -1.
          3    1    5    5  503    0 -0.49700593986E+03  0.28984407565E+02 -0.66492132823E+03  0.83064756238E+03  0.00000000000E+00 0. -1.
         -4    1    5    5    0  503 -0.41237683109E+03  0.98167867480E+02 -0.58691778916E+03  0.72399176256E+03  0.00000000000E+00 0.  1.
         -1    1    6    6    0  502  0.89119492893E+01 -0.16951178574E+02 -0.11503734234E+02  0.22340572878E+02  0.00000000000E+00 0.  1.
<mgrwt>
<rscale>  0 0.29309012E+04</rscale>
<asrwt>0</asrwt>
<pdfrwt beam="1">  1        2 0.38365162E+00 0.29309012E+04</pdfrwt>
<pdfrwt beam="2">  1       -2 0.13248863E+00 0.29309012E+04</pdfrwt>
<totfact> 0.12504705E+00</totfact>
</mgrwt>
</event>
<event>
12    1  0.1960998E-007  0.1974945E+04  0.7818608E-02  0.8618425E-01
          1   -1    0    0  501    0  0.00000000000E+00  0.00000000000E+00  0.11781690390E+04  0.11781690390E+04  0.00000000000E+00 0. -1.
         -1   -1    0    0    0  501 -0.00000000000E+00 -0.00000000000E+00 -0.82764197905E+03  0.82764197905E+03  0.00000000000E+00 0.  1.
         23    2    1    2    0    0  0.34708545820E+02  0.77819314304E+03  0.17555293772E+03  0.80328820089E+03  0.87543410520E+02 0.  0.
        254    2    1    2    0    0 -0.34708545820E+02 -0.77819314304E+03  0.17497412224E+03  0.12025228172E+04  0.89925298515E+03 0.  0.
        -24    2    4    4    0    0 -0.14394547961E+03 -0.48406355615E+03 -0.32561165781E+03  0.60637655052E+03  0.81435507132E+02 0.  0.
         24    2    4    4    0    0  0.10923693379E+03 -0.29412958689E+03  0.50058578005E+03  0.59614626664E+03  0.79745385184E+02 0.  0.
         11    1    3    3    0    0  0.81603975106E+01  0.17310009216E+03  0.77073899581E+02  0.18965922069E+03  0.00000000000E+00 0. -1.
        -11    1    3    3    0    0  0.26548148310E+02  0.60509305088E+03  0.98479038135E+02  0.61362898021E+03  0.00000000000E+00 0.  1.
          4    1    6    6  502    0  0.89615671884E+02 -0.25877579688E+03  0.47502508889E+03  0.54831078484E+03  0.00000000000E+00 0. -1.
          1    1    5    5  503    0 -0.64275507669E+02 -0.34767554716E+03 -0.22734356992E+03  0.42035071757E+03  0.00000000000E+00 0. -1.
         -2    1    5    5    0  503 -0.79669971941E+02 -0.13638800899E+03 -0.98268087891E+02  0.18602583295E+03  0.00000000000E+00 0.  1.
         -3    1    6    6    0  502  0.19621261905E+02 -0.35353790007E+02  0.25560691158E+02  0.47835481800E+02  0.00000000000E+00 0.  1.
<mgrwt>
<rscale>  0 0.19749452E+04</rscale>
<asrwt>0</asrwt>
<pdfrwt beam="1">  1        1 0.18125678E+00 0.19749452E+04</pdfrwt>
<pdfrwt beam="2">  1       -1 0.12732953E+00 0.19749452E+04</pdfrwt>
<totfact> 0.55085853E+00</totfact>
</mgrwt>
</event>
<event>
12    1  0.1960998E-007  0.1671535E+04  0.7818608E-02  0.8777768E-01
         -2   -1    0    0    0  501 -0.00000000000E+00  0.00000000000E+00  0.39306205945E+03  0.39306205945E+03  0.00000000000E+00 0.  1.
          2   -1    0    0  501    0  0.00000000000E+00 -0.00000000000E+00 -0.17770911391E+04  0.17770911391E+04  0.00000000000E+00 0. -1.
         23    2    1    2    0    0  0.45836369039E+03 -0.35429427417E+03 -0.37838451373E+03  0.69943626487E+03  0.10205166830E+03 0.  0.
        254    2    1    2    0    0 -0.45836369039E+03  0.35429427417E+03 -0.10056445660E+04  0.14707169337E+04  0.90336349311E+03 0.  0.
        -24    2    4    4    0    0 -0.31023731162E+03  0.92543818112E+02 -0.10960277555E+04  0.11461250647E+04  0.86684919085E+02 0.  0.
         24    2    4    4    0    0 -0.14812637877E+03  0.26175045606E+03  0.90383189580E+02  0.32459186903E+03  0.82073352229E+02 0.  0.
         13    1    3    3    0    0  0.24932031740E+03 -0.14986254516E+03 -0.23405699413E+03  0.37336587901E+03  0.00000000000E+00 0.  1.
        -13    1    3    3    0    0  0.20904337299E+03 -0.20443172901E+03 -0.14432751960E+03  0.32607038586E+03  0.00000000000E+00 0. -1.
          4    1    6    6  502    0 -0.62887212739E+02  0.19043068264E+03  0.61393452881E+02  0.20973269290E+03  0.00000000000E+00 0. -1.
          3    1    5    5  503    0 -0.19476229031E+03  0.71623789292E+02 -0.82657352943E+03  0.85222421726E+03  0.00000000000E+00 0. -1.
         -2    1    5    5    0  503 -0.11547502132E+03  0.20920028819E+02 -0.26945422610E+03  0.29390084742E+03  0.00000000000E+00 0.  1.
         -3    1    6    6    0  502 -0.85239166028E+02  0.71319773424E+02  0.28989736699E+02  0.11485917613E+03  0.00000000000E+00 0.  1.
<mgrwt>
<rscale>  0 0.16715347E+04</rscale>
<asrwt>0</asrwt>
<pdfrwt beam="1">  1        2 0.27339864E+00 0.16715347E+04</pdfrwt>
<pdfrwt beam="2">  1       -2 0.60471085E-01 0.16715347E+04</pdfrwt>
<totfact> 0.21583433E+01</totfact>
</mgrwt>
</event>
<event>
12    1  0.1960998E-007  0.1902906E+04  0.7818608E-02  0.8653411E-01
          1   -1    0    0  501    0  0.00000000000E+00  0.00000000000E+00  0.14285041078E+04  0.14285041078E+04  0.00000000000E+00 0. -1.
         -1   -1    0    0    0  501 -0.00000000000E+00 -0.00000000000E+00 -0.63371393663E+03  0.63371393663E+03  0.00000000000E+00 0.  1.
         23    2    1    2    0    0  0.45884838060E+03  0.43858491078E+03 -0.92949909457E+02  0.64737624665E+03  0.86935370888E+02 0.  0.
        254    2    1    2    0    0 -0.45884838060E+03 -0.43858491078E+03  0.88774008063E+03  0.14148417978E+04  0.90044228114E+03 0.  0.
        -24    2    4    4    0    0 -0.27795013813E+03  0.23985840036E+03  0.43548106340E+03  0.57591742314E+03  0.85139827310E+02 0.  0.
         24    2    4    4    0    0 -0.18089824247E+03 -0.67844331114E+03  0.45225901723E+03  0.83892437464E+03  0.79034088478E+02 0.  0.
         13    1    3    3    0    0  0.35641932883E+03  0.38105843752E+03 -0.92472647888E+02  0.52989759518E+03  0.00000000000E+00 0.  1.
        -13    1    3    3    0    0  0.10242905177E+03  0.57526473262E+02 -0.47726156909E+00  0.11747865147E+03  0.00000000000E+00 0. -1.
          4    1    6    6  502    0 -0.68411784290E+00 -0.97912239581E+02  0.49251238154E+02  0.10960364564E+03  0.00000000000E+00 0. -1.
          3    1    5    5  503    0 -0.51938628992E+02  0.32464719921E+02  0.12640113030E+03  0.14045933562E+03  0.00000000000E+00 0. -1.
         -4    1    5    5    0  503 -0.22601150913E+03  0.20739368044E+03  0.30907993309E+03  0.43545808752E+03  0.00000000000E+00 0.  1.
         -3    1    6    6    0  502 -0.18021412463E+03 -0.58053107156E+03  0.40300777908E+03  0.72932072900E+03  0.00000000000E+00 0.  1.
<mgrwt>
<rscale>  0 0.19029062E+04</rscale>
<asrwt>0</asrwt>
<pdfrwt beam="1">  1        1 0.21976986E+00 0.19029062E+04</pdfrwt>
<pdfrwt beam="2">  1       -1 0.97494452E-01 0.19029062E+04</pdfrwt>
<totfact> 0.69306045E+00</totfact>
</mgrwt>
</event>
<event>
12    1  0.1960998E-007  0.4416545E+04  0.7818608E-02  0.7925412E-01
         -2   -1    0    0    0  501 -0.00000000000E+00  0.00000000000E+00  0.22996485576E+04  0.22996485576E+04  0.00000000000E+00 0. -1.
          2   -1    0    0  501    0  0.00000000000E+00 -0.00000000000E+00 -0.21205269431E+04  0.21205269431E+04  0.00000000000E+00 0.  1.
         23    2    1    2    0    0 -0.13214838625E+04 -0.16466908501E+04 -0.45793680754E+02  0.21137146445E+04  0.88216678697E+02 0.  0.
        254    2    1    2    0    0  0.13214838625E+04  0.16466908501E+04  0.22491529529E+03  0.23064608561E+04  0.90070219049E+03 0.  0.
        -24    2    4    4    0    0  0.12747063344E+04  0.17435100772E+04  0.21409020006E+03  0.21718661709E+04  0.80401630348E+02 0.  0.
         24    2    4    4    0    0  0.46777528140E+02 -0.96819227076E+02  0.10825095227E+02  0.13459468525E+03  0.80227468745E+02 0.  0.
         11    1    3    3    0    0 -0.11778122657E+04 -0.14720415403E+04 -0.13670372424E+02  0.18852943825E+04  0.00000000000E+00 0. -1.
        -11    1    3    3    0    0 -0.14367159688E+03 -0.17464930982E+03 -0.32123308330E+02  0.22842026203E+03  0.00000000000E+00 0.  1.
          4    1    6    6  502    0  0.21103022100E+02  0.42661179413E+01  0.20657428976E+02  0.29837336945E+02  0.00000000000E+00 0. -1.
          1    1    5    5  503    0  0.13519616319E+03  0.16870519108E+03 -0.75454148138E+00  0.21619438793E+03  0.00000000000E+00 0. -1.
         -2    1    5    5    0  503  0.11395101712E+04  0.15748048861E+04  0.21484474154E+03  0.19556717829E+04  0.00000000000E+00 0.  1.
         -3    1    6    6    0  502  0.25674506040E+02 -0.10108534502E+03 -0.98323337493E+01  0.10475734831E+03  0.00000000000E+00 0.  1.
<mgrwt>
<rscale>  0 0.44165447E+04</rscale>
<asrwt>0</asrwt>
<pdfrwt beam="1">  1        2 0.32623492E+00 0.44165447E+04</pdfrwt>
<pdfrwt beam="2">  1       -2 0.35379208E+00 0.44165447E+04</pdfrwt>
<totfact> 0.64267794E-02</totfact>
</mgrwt>
</event>
<event>
12    1  0.2228762E-007  0.3465294E+04  0.7818608E-02  0.8122064E-01
         -2   -1    0    0    0  501 -0.00000000000E+00  0.00000000000E+00  0.13138704331E+04  0.13138704331E+04  0.00000000000E+00 0.  1.
          2   -1    0    0  501    0  0.00000000000E+00 -0.00000000000E+00 -0.22849018665E+04  0.22849018665E+04  0.00000000000E+00 0. -1.
         23    2    1    2    0    0  0.14389307405E+04 -0.39606031269E+03 -0.10927596833E+04  0.18519572092E+04  0.90754240765E+02 0.  0.
        254    2    1    2    0    0 -0.14389307405E+04  0.39606031269E+03  0.12172824999E+03  0.17468150903E+04  0.89953307100E+03 0.  0.
        -24    2    4    4    0    0 -0.38416020605E+03  0.52591767504E+03  0.17716021499E+03  0.67968465809E+03  0.80106353292E+02 0.  0.
         24    2    4    4    0    0 -0.10547705344E+04 -0.12985736235E+03 -0.55431964995E+02  0.10671304322E+04  0.79314827422E+02 0.  0.
         11    1    3    3    0    0  0.75540775295E+03 -0.17049471988E+03 -0.53231592517E+03  0.93971781239E+03  0.00000000000E+00 0.  1.
        -11    1    3    3    0    0  0.68352298751E+03 -0.22556559281E+03 -0.56044375816E+03  0.91223939685E+03  0.00000000000E+00 0. -1.
          4    1    6    6  502    0 -0.46683019245E+03 -0.21559355870E+02 -0.76141704130E+01  0.46738978380E+03  0.00000000000E+00 0. -1.
          3    1    5    5  503    0 -0.15602559868E+03  0.26942370936E+03  0.60747117697E+02  0.31721181396E+03  0.00000000000E+00 0. -1.
         -4    1    5    5    0  503 -0.22813460737E+03  0.25649396568E+03  0.11641309729E+03  0.36247284413E+03  0.00000000000E+00 0.  1.
         -3    1    6    6    0  502 -0.58794034196E+03 -0.10829800648E+03 -0.47817794582E+02  0.59974064844E+03  0.00000000000E+00 0.  1.
<mgrwt>
<rscale>  0 0.34652936E+04</rscale>
<asrwt>0</asrwt>
<pdfrwt beam="1">  1        2 0.35152336E+00 0.34652936E+04</pdfrwt>
<pdfrwt beam="2">  1       -2 0.20213392E+00 0.34652936E+04</pdfrwt>
<totfact> 0.49070216E-01</totfact>
</mgrwt>
</event>
<event>
12    1  0.1960998E-007  0.1763315E+04  0.7818608E-02  0.8726055E-01
          2   -1    0    0  501    0  0.00000000000E+00  0.00000000000E+00  0.17749722773E+04  0.17749722773E+04  0.00000000000E+00 0. -1.
         -2   -1    0    0    0  501 -0.00000000000E+00 -0.00000000000E+00 -0.43793353621E+03  0.43793353621E+03  0.00000000000E+00 0.  1.
         23    2    1    2    0    0 -0.90943497334E+02  0.62103766097E+03  0.30529377852E+03  0.70623711944E+03  0.10774080760E+03 0.  0.
        254    2    1    2    0    0  0.90943497334E+02 -0.62103766097E+03  0.10317449626E+04  0.15066686941E+04  0.90088533669E+03 0.  0.
        -24    2    4    4    0    0 -0.37393657419E+03 -0.15854674626E+03  0.55732904893E+03  0.69419257887E+03  0.79511228787E+02 0.  0.
         24    2    4    4    0    0  0.46488007153E+03 -0.46249091471E+03  0.47441591367E+03  0.81247611523E+03  0.70962325078E+02 0.  0.
         13    1    3    3    0    0 -0.11025972708E+03  0.41276580593E+03  0.21716779763E+03  0.47926471839E+03  0.00000000000E+00 0. -1.
        -13    1    3    3    0    0  0.19316229747E+02  0.20827185504E+03  0.88125980889E+02  0.22697240106E+03  0.00000000000E+00 0.  1.
          4    1    6    6  502    0  0.30959005439E+03 -0.28603860362E+03  0.26667849346E+03  0.49878001505E+03  0.00000000000E+00 0. -1.
          1    1    5    5  503    0 -0.28315865487E+03 -0.81432750912E+02  0.40449332782E+03  0.50042478856E+03  0.00000000000E+00 0. -1.
         -2    1    5    5    0  503 -0.90777919320E+02 -0.77113995347E+02  0.15283572111E+03  0.19376779031E+03  0.00000000000E+00 0.  1.
         -3    1    6    6    0  502  0.15529001713E+03 -0.17645231109E+03  0.20773742022E+03  0.31369610018E+03  0.00000000000E+00 0.  1.
<mgrwt>
<rscale>  0 0.17633149E+04</rscale>
<asrwt>0</asrwt>
<pdfrwt beam="1">  1        2 0.27307265E+00 0.17633149E+04</pdfrwt>
<pdfrwt beam="2">  1       -2 0.67374391E-01 0.17633149E+04</pdfrwt>
<totfact> 0.17040762E+01</totfact>
</mgrwt>
</event>
<event>
12    1  0.1960998E-007  0.1809725E+04  0.7818608E-02  0.8701145E-01
         -2   -1    0    0    0  501 -0.00000000000E+00  0.00000000000E+00  0.34725717554E+03  0.34725717554E+03  0.00000000000E+00 0.  1.
          2   -1    0    0  501    0  0.00000000000E+00 -0.00000000000E+00 -0.23578390833E+04  0.23578390833E+04  0.00000000000E+00 0. -1.
         23    2    1    2    0    0 -0.52106383155E+03  0.14686942527E+02 -0.14045971815E+04  0.15009939432E+04  0.91467768426E+02 0.  0.
        254    2    1    2    0    0  0.52106383155E+03 -0.14686942527E+02 -0.60598472630E+03  0.12041023156E+04  0.90051189614E+03 0.  0.
        -24    2    4    4    0    0  0.52458605510E+03 -0.18312305659E+02 -0.81938596626E+03  0.97636083768E+03  0.79757469298E+02 0.  0.
         24    2    4    4    0    0 -0.35222235543E+01  0.36253631320E+01  0.21340123996E+03  0.22774147791E+03  0.79375954963E+02 0.  0.
         13    1    3    3    0    0 -0.45745958577E+03  0.41892938746E+02 -0.12451656825E+04  0.13272007640E+04  0.00000000000E+00 0. -1.
        -13    1    3    3    0    0 -0.63604245775E+02 -0.27205996219E+02 -0.15943149892E+03  0.17379317926E+03  0.00000000000E+00 0.  1.
          4    1    6    6  502    0  0.21223037412E+02  0.16389071668E+02  0.23035820906E+02  0.35350644010E+02  0.00000000000E+00 0. -1.
          3    1    5    5  503    0  0.18334562377E+03  0.31553062895E+02 -0.29165803282E+03  0.34594164485E+03  0.00000000000E+00 0. -1.
         -4    1    5    5    0  503  0.34124043133E+03 -0.49865368554E+02 -0.52772793345E+03  0.63041919284E+03  0.00000000000E+00 0.  1.
         -3    1    6    6    0  502 -0.24745260966E+02 -0.12763708536E+02  0.19036541906E+03  0.19239083390E+03  0.00000000000E+00 0.  1.
<mgrwt>
<rscale>  0 0.18097254E+04</rscale>
<asrwt>0</asrwt>
<pdfrwt beam="1">  1        2 0.36274449E+00 0.18097254E+04</pdfrwt>
<pdfrwt beam="2">  1       -2 0.53424179E-01 0.18097254E+04</pdfrwt>
<totfact> 0.13100641E+01</totfact>
</mgrwt>
</event>
<event>
12    1  0.2246407E-007  0.2360270E+04  0.7818608E-02  0.8454529E-01
         -1   -1    0    0    0  501 -0.00000000000E+00  0.00000000000E+00  0.15651964639E+04  0.15651964639E+04  0.00000000000E+00 0.  1.
          1   -1    0    0  501    0  0.00000000000E+00 -0.00000000000E+00 -0.88980435578E+03  0.88980435578E+03  0.00000000000E+00 0. -1.
         23    2    1    2    0    0 -0.42552991507E+03 -0.88164172122E+03  0.45920464719E+02  0.98415705330E+03  0.89936551334E+02 0.  0.
        254    2    1    2    0    0  0.42552991507E+03  0.88164172122E+03  0.62947164346E+03  0.14708437664E+04  0.89932141202E+03 0.  0.
        -24    2    4    4    0    0  0.31407945189E+02  0.66127629751E+02  0.54748797990E+03  0.55784612683E+03  0.78037751430E+02 0.  0.
         24    2    4    4    0    0  0.39412196988E+03  0.81551409146E+03  0.81983663559E+02  0.91299763960E+03  0.80299491323E+02 0.  0.
         13    1    3    3    0    0 -0.29944938935E+03 -0.51989555246E+03  0.24328849345E+02  0.60046083565E+03  0.00000000000E+00 0. -1.
        -13    1    3    3    0    0 -0.12608052572E+03 -0.36174616876E+03  0.21591615375E+02  0.38369621764E+03  0.00000000000E+00 0.  1.
          4    1    6    6  502    0  0.37476941079E+03  0.73179428987E+03  0.60351307992E+02  0.82438903093E+03  0.00000000000E+00 0. -1.
          1    1    5    5  503    0  0.46425886022E+02  0.75660149398E+02  0.47359187924E+03  0.48183927733E+03  0.00000000000E+00 0. -1.
         -4    1    5    5    0  503 -0.15017940834E+02 -0.95325196472E+01  0.73896100660E+02  0.76006849497E+02  0.00000000000E+00 0.  1.
         -3    1    6    6    0  502  0.19352559093E+02  0.83719801596E+02  0.21632355567E+02  0.88608608669E+02  0.00000000000E+00 0.  1.
<mgrwt>
<rscale>  0 0.23602700E+04</rscale>
<asrwt>0</asrwt>
<pdfrwt beam="1">  1        1 0.13689298E+00 0.23602700E+04</pdfrwt>
<pdfrwt beam="2">  1       -1 0.24079946E+00 0.23602700E+04</pdfrwt>
<totfact> 0.13361211E+00</totfact>
</mgrwt>
</event>
<event>
12    1  0.1960998E-007  0.1248321E+04  0.7818608E-02  0.9071582E-01
         -2   -1    0    0    0  501 -0.00000000000E+00  0.00000000000E+00  0.62690199841E+03  0.62690199841E+03  0.00000000000E+00 0.  1.
          2   -1    0    0  501    0  0.00000000000E+00 -0.00000000000E+00 -0.62143113937E+03  0.62143113937E+03  0.00000000000E+00 0. -1.
         23    2    1    2    0    0  0.16543281682E+03 -0.10736453747E+03  0.20837853784E+03  0.30063778854E+03  0.89812605327E+02 0.  0.
        254    2    1    2    0    0 -0.16543281682E+03  0.10736453747E+03 -0.20290767881E+03  0.94769534924E+03  0.90446657654E+03 0.  0.
        -24    2    4    4    0    0 -0.12120672339E+03  0.20925523664E+03 -0.53289894186E+03  0.59060858047E+03  0.79739508613E+02 0.  0.
         24    2    4    4    0    0 -0.44226093434E+02 -0.10189069917E+03  0.32999126305E+03  0.35708676878E+03  0.79240550395E+02 0.  0.
         13    1    3    3    0    0  0.15027915568E+03 -0.99757759948E+02  0.21653638856E+03  0.28182165082E+03  0.00000000000E+00 0.  1.
        -13    1    3    3    0    0  0.15153661141E+02 -0.76067775198E+01 -0.81578507158E+01  0.18816137715E+02  0.00000000000E+00 0. -1.
          2    1    6    6  502    0  0.21886731731E+02 -0.24477287082E+02  0.57722782823E+02  0.66408480374E+02  0.00000000000E+00 0. -1.
          3    1    5    5  503    0 -0.36702112313E+01  0.36651550043E+01 -0.74235615037E+02  0.74416599974E+02  0.00000000000E+00 0. -1.
         -4    1    5    5    0  503 -0.11753651216E+03  0.20559008163E+03 -0.45866332682E+03  0.51619198049E+03  0.00000000000E+00 0.  1.
         -1    1    6    6    0  502 -0.66112825165E+02 -0.77413412086E+02  0.27226848023E+03  0.29067828840E+03  0.00000000000E+00 0.  1.
<mgrwt>
<rscale>  0 0.12483211E+04</rscale>
<asrwt>0</asrwt>
<pdfrwt beam="1">  1        2 0.95604791E-01 0.12483211E+04</pdfrwt>
<pdfrwt beam="2">  1       -2 0.96446461E-01 0.12483211E+04</pdfrwt>
<totfact> 0.42061806E+01</totfact>
</mgrwt>
</event>
<event>
12    1  0.1960998E-007  0.2557251E+04  0.7818608E-02  0.8382869E-01
          1   -1    0    0  501    0  0.00000000000E+00  0.00000000000E+00  0.15498701683E+04  0.15498701683E+04  0.00000000000E+00 0. -1.
         -1   -1    0    0    0  501 -0.00000000000E+00 -0.00000000000E+00 -0.10548517987E+04  0.10548517987E+04  0.00000000000E+00 0.  1.
         23    2    1    2    0    0 -0.89645544062E+03 -0.36087086642E+03  0.79060621583E+03  0.12514550908E+04  0.84979507070E+02 0.  0.
        254    2    1    2    0    0  0.89645544062E+03  0.36087086642E+03 -0.29558784631E+03  0.13532668762E+04  0.90005495611E+03 0.  0.
        -24    2    4    4    0    0  0.44401465890E+03  0.25698463312E+03 -0.59909843226E+03  0.79292224831E+03  0.81342739932E+02 0.  0.
         24    2    4    4    0    0  0.45244078172E+03  0.10388623330E+03  0.30351058595E+03  0.56034462787E+03  0.79827412349E+02 0.  0.
         11    1    3    3    0    0 -0.37826154653E+03 -0.13658213743E+03  0.27864349924E+03  0.48926340301E+03  0.00000000000E+00 0.  1.
        -11    1    3    3    0    0 -0.51819389408E+03 -0.22428872899E+03  0.51196271659E+03  0.76219168783E+03  0.00000000000E+00 0. -1.
          2    1    6    6  502    0  0.29698619575E+03  0.10663182584E+03  0.20360414327E+03  0.37553401165E+03  0.00000000000E+00 0. -1.
          1    1    5    5  503    0  0.34739561403E+03  0.16568576942E+03 -0.47170789401E+03  0.60880524317E+03  0.00000000000E+00 0. -1.
         -2    1    5    5    0  503  0.96619044872E+02  0.91298863704E+02 -0.12739053825E+03  0.18411700514E+03  0.00000000000E+00 0.  1.
         -1    1    6    6    0  502  0.15545458597E+03 -0.27455925440E+01  0.99906442685E+02  0.18481061622E+03  0.00000000000E+00 0.  1.
<mgrwt>
<rscale>  0 0.25572511E+04</rscale>
<asrwt>0</asrwt>
<pdfrwt beam="1">  1        1 0.23844157E+00 0.25572511E+04</pdfrwt>
<pdfrwt beam="2">  1       -1 0.16228489E+00 0.25572511E+04</pdfrwt>
<totfact> 0.15001029E+00</totfact>
</mgrwt>
</event>
<event>
12    1  0.1960998E-007  0.1419182E+04  0.7818608E-02  0.8940049E-01
         -2   -1    0    0    0  501 -0.00000000000E+00  0.00000000000E+00  0.86665874602E+03  0.86665874602E+03  0.00000000000E+00 0. -1.
          2   -1    0    0  501    0  0.00000000000E+00 -0.00000000000E+00 -0.58098944670E+03  0.58098944670E+03  0.00000000000E+00 0.  1.
         23    2    1    2    0    0  0.13023856606E+03  0.14229545250E+03  0.46516734601E+03  0.51110016732E+03  0.87364989275E+02 0.  0.
        254    2    1    2    0    0 -0.13023856606E+03 -0.14229545250E+03 -0.17949804669E+03  0.93654802541E+03  0.89871718312E+03 0.  0.
        -24    2    4    4    0    0  0.26288357528E+03  0.71781494248E+02  0.19829711815E+03  0.34541439211E+03  0.75690145620E+02 0.  0.
         24    2    4    4    0    0 -0.39312214134E+03 -0.21407694675E+03 -0.37779516484E+03  0.59113363330E+03  0.79597918933E+02 0.  0.
         13    1    3    3    0    0 -0.11411985230E+02  0.24349435874E+02  0.72351842356E+02  0.77187547743E+02  0.00000000000E+00 0.  1.
        -13    1    3    3    0    0  0.14165055129E+03  0.11794601663E+03  0.39281550366E+03  0.43391261958E+03  0.00000000000E+00 0. -1.
          4    1    6    6  502    0 -0.16965799631E+03 -0.54893912021E+02 -0.17604467339E+03  0.25057714245E+03  0.00000000000E+00 0. -1.
          3    1    5    5  503    0  0.11275773783E+02  0.19256459884E+02  0.28136678788E+01  0.22491577282E+02  0.00000000000E+00 0. -1.
         -4    1    5    5    0  503  0.25160780149E+03  0.52525034363E+02  0.19548345027E+03  0.32292281483E+03  0.00000000000E+00 0.  1.
         -3    1    6    6    0  502 -0.22346414503E+03 -0.15918303473E+03 -0.20175049145E+03  0.34055649085E+03  0.00000000000E+00 0.  1.
<mgrwt>
<rscale>  0 0.14191823E+04</rscale>
<asrwt>0</asrwt>
<pdfrwt beam="1">  1        2 0.89382992E-01 0.14191823E+04</pdfrwt>
<pdfrwt beam="2">  1       -2 0.13333211E+00 0.14191823E+04</pdfrwt>
<totfact> 0.20399152E+01</totfact>
</mgrwt>
</event>
<event>
12    1  0.1960998E-007  0.1651251E+04  0.7818608E-02  0.8789667E-01
         -2   -1    0    0    0  501 -0.00000000000E+00  0.00000000000E+00  0.95077425946E+03  0.95077425946E+03  0.00000000000E+00 0.  1.
          2   -1    0    0  501    0  0.00000000000E+00 -0.00000000000E+00 -0.71694953223E+03  0.71694953223E+03  0.00000000000E+00 0. -1.
         23    2    1    2    0    0 -0.35011790544E+03 -0.44447042690E+03  0.19152739051E+03  0.60408423959E+03  0.89991772432E+02 0.  0.
        254    2    1    2    0    0  0.35011790544E+03  0.44447042690E+03  0.42297336725E+02  0.10636395521E+04  0.89966856342E+03 0.  0.
        -24    2    4    4    0    0  0.45608302913E+03 -0.12273214868E+03  0.51245236211E+02  0.48112046377E+03  0.75999451624E+02 0.  0.
         24    2    4    4    0    0 -0.10596512368E+03  0.56720257557E+03 -0.89478994859E+01  0.58251908833E+03  0.79379179842E+02 0.  0.
         13    1    3    3    0    0 -0.15717776940E+03 -0.16522158512E+03  0.36530698270E+02  0.23094916172E+03  0.00000000000E+00 0.  1.
        -13    1    3    3    0    0 -0.19294013604E+03 -0.27924884178E+03  0.15499669224E+03  0.37313507787E+03  0.00000000000E+00 0. -1.
          4    1    6    6  502    0 -0.11341246370E+03  0.55928289442E+03 -0.13269612951E+02  0.57082030933E+03  0.00000000000E+00 0. -1.
          1    1    5    5  503    0  0.34439542263E+03 -0.70724181923E+02  0.11885460584E+02  0.35178314514E+03  0.00000000000E+00 0. -1.
         -2    1    5    5    0  503  0.11168760650E+03 -0.52007966753E+02  0.39359775627E+02  0.12933731862E+03  0.00000000000E+00 0.  1.
         -3    1    6    6    0  502  0.74473400166E+01  0.79196811487E+01  0.43217134652E+01  0.11698779000E+02  0.00000000000E+00 0.  1.
<mgrwt>
<rscale>  0 0.16512506E+04</rscale>
<asrwt>0</asrwt>
<pdfrwt beam="1">  1        2 0.11029993E+00 0.16512506E+04</pdfrwt>
<pdfrwt beam="2">  1       -2 0.14627296E+00 0.16512506E+04</pdfrwt>
<totfact> 0.12150287E+01</totfact>
</mgrwt>
</event>
<event>
12    1  0.1960998E-007  0.1779502E+04  0.7818608E-02  0.8717276E-01
         -1   -1    0    0    0  501 -0.00000000000E+00  0.00000000000E+00  0.50529715913E+03  0.50529715913E+03  0.00000000000E+00 0.  1.
          1   -1    0    0  501    0  0.00000000000E+00 -0.00000000000E+00 -0.15667161258E+04  0.15667161258E+04  0.00000000000E+00 0. -1.
         23    2    1    2    0    0 -0.28109408353E+02 -0.24164292980E+03  0.31608985636E+03  0.40872296536E+03  0.89220069255E+02 0.  0.
        254    2    1    2    0    0  0.28109408353E+02  0.24164292980E+03 -0.13775088231E+04  0.16632903196E+04  0.89990148646E+03 0.  0.
        -24    2    4    4    0    0  0.18465288330E+03  0.44088091868E+03 -0.34017148271E+03  0.59220639495E+03  0.80740973518E+02 0.  0.
         24    2    4    4    0    0 -0.15654347495E+03 -0.19923798887E+03 -0.10373373404E+04  0.10710839247E+04  0.83368940407E+02 0.  0.
         13    1    3    3    0    0 -0.70742484173E+01 -0.12055752321E+03  0.87304514321E+02  0.14901758156E+03  0.00000000000E+00 0. -1.
        -13    1    3    3    0    0 -0.21035159935E+02 -0.12108540659E+03  0.22878534204E+03  0.25970538380E+03  0.00000000000E+00 0.  1.
          4    1    6    6  502    0 -0.10931100417E+03 -0.14034002075E+03 -0.86231994955E+03  0.88047709365E+03  0.00000000000E+00 0. -1.
          1    1    5    5  503    0  0.76426946773E+02  0.11273948663E+03 -0.67293070345E+02  0.15191980567E+03  0.00000000000E+00 0. -1.
         -2    1    5    5    0  503  0.10822593653E+03  0.32814143205E+03 -0.27287841237E+03  0.44028658928E+03  0.00000000000E+00 0.  1.
         -3    1    6    6    0  502 -0.47232470775E+02 -0.58897968119E+02 -0.17501739080E+03  0.19060683101E+03  0.00000000000E+00 0.  1.
<mgrwt>
<rscale>  0 0.17795024E+04</rscale>
<asrwt>0</asrwt>
<pdfrwt beam="1">  1        1 0.24103325E+00 0.17795024E+04</pdfrwt>
<pdfrwt beam="2">  1       -1 0.77738025E-01 0.17795024E+04</pdfrwt>
<totfact> 0.92179397E+00</totfact>
</mgrwt>
</event>
<event>
12    1  0.1960998E-007  0.1423801E+04  0.7818608E-02  0.8936768E-01
          1   -1    0    0  501    0  0.00000000000E+00  0.00000000000E+00  0.12221983089E+04  0.12221983089E+04  0.00000000000E+00 0. -1.
         -1   -1    0    0    0  501 -0.00000000000E+00 -0.00000000000E+00 -0.41466428477E+03  0.41466428477E+03  0.00000000000E+00 0.  1.
         23    2    1    2    0    0 -0.53287614498E+02 -0.26649793859E+03 -0.12742154121E+03  0.31044040789E+03  0.79222954713E+02 0.  0.
        254    2    1    2    0    0  0.53287614498E+02  0.26649793859E+03  0.93495556537E+03  0.13264221858E+04  0.90077365896E+03 0.  0.
        -24    2    4    4    0    0 -0.11556936735E+03  0.29820712695E+03  0.10520451185E+04  0.11029051182E+04  0.85539460485E+02 0.  0.
         24    2    4    4    0    0  0.16885698185E+03 -0.31709188366E+02 -0.11708955309E+03  0.22351706759E+03  0.82047322414E+02 0.  0.
         11    1    3    3    0    0 -0.26176472767E+02 -0.11216189061E+03 -0.97515186795E+02  0.15091291888E+03  0.00000000000E+00 0.  1.
        -11    1    3    3    0    0 -0.27111141731E+02 -0.15433604798E+03 -0.29906354418E+02  0.15952748900E+03  0.00000000000E+00 0. -1.
          4    1    6    6  502    0  0.89691134305E+02  0.24417216586E+02 -0.64487790824E+02  0.11313432372E+03  0.00000000000E+00 0. -1.
          3    1    5    5  503    0 -0.71389938976E+02  0.23763245993E+03  0.89698365079E+03  0.93066931785E+03  0.00000000000E+00 0. -1.
         -4    1    5    5    0  503 -0.44179428372E+02  0.60574667019E+02  0.15506146767E+03  0.17223580038E+03  0.00000000000E+00 0.  1.
         -3    1    6    6    0  502  0.79165847541E+02 -0.56126404953E+02 -0.52601762264E+02  0.11038274386E+03  0.00000000000E+00 0.  1.
<mgrwt>
<rscale>  0 0.14238005E+04</rscale>
<asrwt>0</asrwt>
<pdfrwt beam="1">  1        1 0.18803051E+00 0.14238005E+04</pdfrwt>
<pdfrwt beam="2">  1       -1 0.63794506E-01 0.14238005E+04</pdfrwt>
<totfact> 0.24966163E+01</totfact>
</mgrwt>
</event>
<event>
12    1  0.1960998E-007  0.2214822E+04  0.7818608E-02  0.8512284E-01
          2   -1    0    0  501    0  0.00000000000E+00  0.00000000000E+00  0.28120333026E+04  0.28120333026E+04  0.00000000000E+00 0.  1.
         -2   -1    0    0    0  501 -0.00000000000E+00 -0.00000000000E+00 -0.43611105630E+03  0.43611105630E+03  0.00000000000E+00 0. -1.
         23    2    1    2    0    0  0.28786397449E+03 -0.84806991676E+03  0.67773593727E+03  0.11270599361E+04  0.94073626988E+02 0.  0.
        254    2    1    2    0    0 -0.28786397449E+03  0.84806991676E+03  0.16981863090E+04  0.21210844228E+04  0.90170623657E+03 0.  0.
        -24    2    4    4    0    0  0.19614681756E+03  0.73834219045E+03  0.10399337452E+04  0.12928400245E+04  0.79689209990E+02 0.  0.
         24    2    4    4    0    0 -0.48401079205E+03  0.10972772630E+03  0.65825256376E+03  0.82824439831E+03  0.79910730853E+02 0.  0.
         13    1    3    3    0    0  0.28591573901E+03 -0.77935458312E+03  0.64297684669E+03  0.10500288574E+04  0.00000000000E+00 0.  1.
        -13    1    3    3    0    0  0.19482354774E+01 -0.68715333637E+02  0.34759090581E+02  0.77031078640E+02  0.00000000000E+00 0. -1.
          2    1    6    6  502    0 -0.24094068659E+03  0.43870860679E+02  0.26112346555E+03  0.35799794850E+03  0.00000000000E+00 0. -1.
          3    1    5    5  503    0  0.95702511922E+02  0.23646273693E+03  0.38004334715E+03  0.45771884652E+03  0.00000000000E+00 0. -1.
         -4    1    5    5    0  503  0.10044430564E+03  0.50187945352E+03  0.65989039808E+03  0.83512117796E+03  0.00000000000E+00 0.  1.
         -1    1    6    6    0  502 -0.24307010546E+03  0.65856865625E+02  0.39712909821E+03  0.47024644981E+03  0.00000000000E+00 0.  1.
<mgrwt>
<rscale>  0 0.22148217E+04</rscale>
<asrwt>0</asrwt>
<pdfrwt beam="1">  1        2 0.43262050E+00 0.22148217E+04</pdfrwt>
<pdfrwt beam="2">  1       -2 0.67094010E-01 0.22148217E+04</pdfrwt>
<totfact> 0.42347145E+00</totfact>
</mgrwt>
</event>
<event>
12    1  0.1960998E-007  0.2831721E+04  0.7818608E-02  0.8293487E-01
          1   -1    0    0  501    0  0.00000000000E+00  0.00000000000E+00  0.23532287701E+04  0.23532287701E+04  0.00000000000E+00 0. -1.
         -1   -1    0    0    0  501 -0.00000000000E+00 -0.00000000000E+00 -0.85187703829E+03  0.85187703829E+03  0.00000000000E+00 0.  1.
         23    2    1    2    0    0 -0.90753948757E+03  0.68306427129E+03  0.13248052681E+04  0.17478561164E+04  0.98424007511E+02 0.  0.
        254    2    1    2    0    0  0.90753948757E+03 -0.68306427129E+03  0.17654646373E+03  0.14572496919E+04  0.89565802101E+03 0.  0.
        -24    2    4    4    0    0  0.39160696000E+03  0.52836950369E+02 -0.23342848963E+03  0.46624213923E+03  0.82128668420E+02 0.  0.
         24    2    4    4    0    0  0.51593252757E+03 -0.73590122165E+03  0.40997495336E+03  0.99100755271E+03  0.79243460997E+02 0.  0.
         11    1    3    3    0    0 -0.65486690023E+03  0.47851392953E+03  0.10096973083E+04  0.12951119227E+04  0.00000000000E+00 0. -1.
        -11    1    3    3    0    0 -0.25267258733E+03  0.20455034175E+03  0.31510795972E+03  0.45274419376E+03  0.00000000000E+00 0.  1.
          2    1    6    6  502    0  0.44039091076E+03 -0.61155758505E+03  0.37306501393E+03  0.84090685497E+03  0.00000000000E+00 0. -1.
          3    1    5    5  503    0  0.20944277977E+03  0.50661948148E+02 -0.16591560494E+03  0.27195753152E+03  0.00000000000E+00 0. -1.
         -4    1    5    5    0  503  0.18216418023E+03  0.21750022211E+01 -0.67512884697E+02  0.19428460771E+03  0.00000000000E+00 0.  1.
         -1    1    6    6    0  502  0.75541616810E+02 -0.12434363661E+03  0.36909939427E+02  0.15010069775E+03  0.00000000000E+00 0.  1.
<mgrwt>
<rscale>  0 0.28317214E+04</rscale>
<asrwt>0</asrwt>
<pdfrwt beam="1">  1        1 0.36203519E+00 0.28317214E+04</pdfrwt>
<pdfrwt beam="2">  1       -1 0.13105801E+00 0.28317214E+04</pdfrwt>
<totfact> 0.73369266E-01</totfact>
</mgrwt>
</event>
<event>
12    1  0.1960998E-007  0.1028156E+04  0.7818608E-02  0.9278191E-01
         -2   -1    0    0    0  501 -0.00000000000E+00  0.00000000000E+00  0.20632552077E+03  0.20632552077E+03  0.00000000000E+00 0.  1.
          2   -1    0    0  501    0  0.00000000000E+00 -0.00000000000E+00 -0.12808707850E+04  0.12808707850E+04  0.00000000000E+00 0. -1.
         23    2    1    2    0    0  0.29042363047E+02  0.55312421550E+02 -0.20295559117E+03  0.23226283824E+03  0.94085765168E+02 0.  0.
        254    2    1    2    0    0 -0.29042363047E+02 -0.55312421550E+02 -0.87158967308E+03  0.12549334676E+04  0.90071445362E+03 0.  0.
        -24    2    4    4    0    0 -0.39029020013E+03 -0.25048039759E+03 -0.34700659744E+03  0.58391279330E+03  0.73984468780E+02 0.  0.
         24    2    4    4    0    0  0.36124783708E+03  0.19516797604E+03 -0.52458307564E+03  0.67102067426E+03  0.80565522212E+02 0.  0.
         13    1    3    3    0    0  0.62918323238E+02  0.38804781339E+02 -0.15049698135E+03  0.16767190537E+03  0.00000000000E+00 0. -1.
        -13    1    3    3    0    0 -0.33875960191E+02  0.16507640211E+02 -0.52458609823E+02  0.64590932868E+02  0.00000000000E+00 0.  1.
          4    1    6    6  502    0  0.36303183695E+03  0.19076732585E+03 -0.50336125493E+03  0.64927408713E+03  0.00000000000E+00 0. -1.
          3    1    5    5  503    0 -0.32554108904E+03 -0.17603126666E+03 -0.25914846450E+03  0.45179855483E+03  0.00000000000E+00 0. -1.
         -4    1    5    5    0  503 -0.64749111090E+02 -0.74449130925E+02 -0.87858132937E+02  0.13211423847E+03  0.00000000000E+00 0.  1.
         -3    1    6    6    0  502 -0.17839998681E+01  0.44006501899E+01 -0.21221820714E+02  0.21746587136E+02  0.00000000000E+00 0.  1.
<mgrwt>
<rscale>  0 0.10281563E+04</rscale>
<asrwt>0</asrwt>
<pdfrwt beam="1">  1        2 0.19705705E+00 0.10281563E+04</pdfrwt>
<pdfrwt beam="2">  1       -2 0.31742388E-01 0.10281563E+04</pdfrwt>
<totfact> 0.15577633E+02</totfact>
</mgrwt>
</event>
<event>
12    1  0.1960998E-007  0.1784580E+04  0.7818608E-02  0.8714543E-01
         -1   -1    0    0    0  501 -0.00000000000E+00  0.00000000000E+00  0.92005107741E+03  0.92005107741E+03  0.00000000000E+00 0.  1.
          1   -1    0    0  501    0  0.00000000000E+00 -0.00000000000E+00 -0.86536651457E+03  0.86536651457E+03  0.00000000000E+00 0. -1.
         23    2    1    2    0    0  0.45427779040E+03  0.46320220476E+03 -0.10366961540E+03  0.66290170111E+03  0.88128785466E+02 0.  0.
        254    2    1    2    0    0 -0.45427779040E+03 -0.46320220476E+03  0.15835417823E+03  0.11225158909E+04  0.90224236553E+03 0.  0.
        -24    2    4    4    0    0 -0.33699719562E+03 -0.62565089569E+03 -0.16508328430E+03  0.73367541998E+03  0.77594961137E+02 0.  0.
         24    2    4    4    0    0 -0.11728059477E+03  0.16244869093E+03  0.32343746253E+03  0.38884047089E+03  0.80254623177E+02 0.  0.
         11    1    3    3    0    0  0.44030774470E+03  0.44757414748E+03 -0.11615603979E+03  0.63850274324E+03  0.00000000000E+00 0. -1.
        -11    1    3    3    0    0  0.13970045691E+02  0.15628057284E+02  0.12486424392E+02  0.24398957871E+02  0.00000000000E+00 0.  1.
          2    1    6    6  502    0  0.11118220141E+02  0.38254356258E+01  0.17814125185E+02  0.21344597277E+02  0.00000000000E+00 0. -1.
          3    1    5    5  503    0 -0.49735459774E+02 -0.12403775964E+03 -0.58528559075E+02  0.14589233703E+03  0.00000000000E+00 0. -1.
         -4    1    5    5    0  503 -0.28726173585E+03 -0.50161313605E+03 -0.10655472523E+03  0.58778308296E+03  0.00000000000E+00 0.  1.
         -1    1    6    6    0  502 -0.12839881491E+03  0.15862325530E+03  0.30562333735E+03  0.36749587362E+03  0.00000000000E+00 0.  1.
<mgrwt>
<rscale>  0 0.17845799E+04</rscale>
<asrwt>0</asrwt>
<pdfrwt beam="1">  1        1 0.13313331E+00 0.17845799E+04</pdfrwt>
<pdfrwt beam="2">  1       -1 0.14154632E+00 0.17845799E+04</pdfrwt>
<totfact> 0.74813012E+00</totfact>
</mgrwt>
</event>
<event>
12    1  0.1960998E-007  0.1927937E+04  0.7818608E-02  0.8641074E-01
          1   -1    0    0  501    0  0.00000000000E+00  0.00000000000E+00  0.23954164063E+04  0.23954164063E+04  0.00000000000E+00 0. -1.
         -1   -1    0    0    0  501 -0.00000000000E+00 -0.00000000000E+00 -0.38792240043E+03  0.38792240043E+03  0.00000000000E+00 0.  1.
         23    2    1    2    0    0 -0.62689292657E+03 -0.52650117530E+02  0.20122407590E+03  0.66721538978E+03  0.94437658659E+02 0.  0.
        254    2    1    2    0    0  0.62689292657E+03  0.52650117530E+02  0.18062699300E+04  0.21161234169E+04  0.90531788870E+03 0.  0.
        -24    2    4    4    0    0  0.12593051063E+03  0.12204212470E+03  0.15131031888E+04  0.15253031916E+04  0.79471960729E+02 0.  0.
         24    2    4    4    0    0  0.50096241594E+03 -0.69392007167E+02  0.29316674118E+03  0.59082022539E+03  0.85692518660E+02 0.  0.
         13    1    3    3    0    0 -0.33012802385E+03 -0.73238831708E+02  0.12044752198E+03  0.35896524087E+03  0.00000000000E+00 0. -1.
        -13    1    3    3    0    0 -0.29676490272E+03  0.20588714178E+02  0.80776553917E+02  0.30825014891E+03  0.00000000000E+00 0.  1.
          2    1    6    6  502    0  0.33462302051E+03 -0.16575163222E+02  0.15990904257E+03  0.37123874231E+03  0.00000000000E+00 0. -1.
          1    1    5    5  503    0  0.13726698670E+03  0.11380628008E+03  0.13828506006E+04  0.13942990635E+04  0.00000000000E+00 0. -1.
         -2    1    5    5    0  503 -0.11336476069E+02  0.82358446203E+01  0.13025258819E+03  0.13100412802E+03  0.00000000000E+00 0.  1.
         -1    1    6    6    0  502  0.16633939543E+03 -0.52816843945E+02  0.13325769861E+03  0.21958148309E+03  0.00000000000E+00 0.  1.
<mgrwt>
<rscale>  0 0.19279374E+04</rscale>
<asrwt>0</asrwt>
<pdfrwt beam="1">  1        1 0.36852559E+00 0.19279374E+04</pdfrwt>
<pdfrwt beam="2">  1       -1 0.59680371E-01 0.19279374E+04</pdfrwt>
<totfact> 0.42537946E+00</totfact>
</mgrwt>
</event>
<event>
12    1  0.1960998E-007  0.2098280E+04  0.7818608E-02  0.8562001E-01
         -2   -1    0    0    0  501 -0.00000000000E+00  0.00000000000E+00  0.10375688558E+04  0.10375688558E+04  0.00000000000E+00 0.  1.
          2   -1    0    0  501    0  0.00000000000E+00 -0.00000000000E+00 -0.10608405540E+04  0.10608405540E+04  0.00000000000E+00 0. -1.
         23    2    1    2    0    0 -0.49727178752E+03 -0.68314384159E+03 -0.12924767413E+03  0.85963704056E+03  0.91138034104E+02 0.  0.
        254    2    1    2    0    0  0.49727178752E+03  0.68314384159E+03  0.10597597597E+03  0.12387723692E+04  0.89964511682E+03 0.  0.
        -24    2    4    4    0    0  0.39071551151E+03  0.28475137459E+03  0.47284540538E+03  0.68087242512E+03  0.79136120926E+02 0.  0.
         24    2    4    4    0    0  0.10655627601E+03  0.39839246700E+03 -0.36686942942E+03  0.55789994407E+03  0.81168784788E+02 0.  0.
         11    1    3    3    0    0 -0.38363180776E+03 -0.47191746058E+03 -0.67146184008E+02  0.61187258768E+03  0.00000000000E+00 0. -1.
        -11    1    3    3    0    0 -0.11363997977E+03 -0.21122638101E+03 -0.62101490121E+02  0.24776445288E+03  0.00000000000E+00 0.  1.
          4    1    6    6  502    0  0.58997003905E+02  0.22207412305E+03 -0.25715556134E+03  0.34485728254E+03  0.00000000000E+00 0. -1.
          1    1    5    5  503    0  0.38273195957E+02  0.25159706523E+02  0.16900460625E+02  0.48820835003E+02  0.00000000000E+00 0. -1.
         -2    1    5    5    0  503  0.35244231555E+03  0.25959166807E+03  0.45594494476E+03  0.63205159012E+03  0.00000000000E+00 0.  1.
         -3    1    6    6    0  502  0.47559272110E+02  0.17631834396E+03 -0.10971386808E+03  0.21304266152E+03  0.00000000000E+00 0.  1.
<mgrwt>
<rscale>  0 0.20982804E+04</rscale>
<asrwt>0</asrwt>
<pdfrwt beam="1">  1        2 0.16320624E+00 0.20982804E+04</pdfrwt>
<pdfrwt beam="2">  1       -2 0.15962598E+00 0.20982804E+04</pdfrwt>
<totfact> 0.53837806E+00</totfact>
</mgrwt>
</event>
<event>
12    1  0.1960998E-007  0.1551064E+04  0.7818608E-02  0.8851188E-01
          2   -1    0    0  501    0  0.00000000000E+00  0.00000000000E+00  0.20500655083E+04  0.20500655083E+04  0.00000000000E+00 0. -1.
         -2   -1    0    0    0  501 -0.00000000000E+00 -0.00000000000E+00 -0.29338091187E+03  0.29338091187E+03  0.00000000000E+00 0.  1.
         23    2    1    2    0    0  0.17622371925E+03 -0.41427645121E+03  0.21941219213E+03  0.50920428625E+03  0.92019116659E+02 0.  0.
        254    2    1    2    0    0 -0.17622371925E+03  0.41427645121E+03  0.15372724043E+04  0.18342421339E+04  0.89362071573E+03 0.  0.
        -24    2    4    4    0    0 -0.29258083669E+03 -0.21093458413E+02  0.91186766446E+02  0.31741751455E+03  0.79939803514E+02 0.  0.
         24    2    4    4    0    0  0.11635711744E+03  0.43536990962E+03  0.14460856378E+04  0.15168246193E+04  0.80667942492E+02 0.  0.
         13    1    3    3    0    0  0.11234170302E+03 -0.15386314041E+03  0.10657350524E+03  0.21829437976E+03  0.00000000000E+00 0. -1.
        -13    1    3    3    0    0  0.63882016226E+02 -0.26041331080E+03  0.11283868690E+03  0.29090990650E+03  0.00000000000E+00 0.  1.
          4    1    6    6  502    0  0.40937939176E+02  0.23570523743E+03  0.87654173592E+03  0.90860238203E+03  0.00000000000E+00 0. -1.
          1    1    5    5  503    0 -0.10437844714E+03  0.23755688405E+02  0.97041674291E+01  0.10748657509E+03  0.00000000000E+00 0. -1.
         -2    1    5    5    0  503 -0.18820238955E+03 -0.44849146818E+02  0.81482599017E+02  0.20993093946E+03  0.00000000000E+00 0.  1.
         -3    1    6    6    0  502  0.75419178266E+02  0.19966467219E+03  0.56954390190E+03  0.60822223731E+03  0.00000000000E+00 0.  1.
<mgrwt>
<rscale>  0 0.15510643E+04</rscale>
<asrwt>0</asrwt>
<pdfrwt beam="1">  1        2 0.31539468E+00 0.15510643E+04</pdfrwt>
<pdfrwt beam="2">  1       -2 0.45135526E-01 0.15510643E+04</pdfrwt>
<totfact> 0.28084374E+01</totfact>
</mgrwt>
</event>
<event>
12    1  0.1960998E-007  0.1192409E+04  0.7818608E-02  0.9119527E-01
          2   -1    0    0  501    0  0.00000000000E+00  0.00000000000E+00  0.12257043517E+04  0.12257043517E+04  0.00000000000E+00 0. -1.
         -2   -1    0    0    0  501 -0.00000000000E+00 -0.00000000000E+00 -0.29000444526E+03  0.29000444526E+03  0.00000000000E+00 0.  1.
         23    2    1    2    0    0  0.15514091408E+03 -0.10027766872E+03  0.42054981744E+03  0.46779627845E+03  0.88582702141E+02 0.  0.
        254    2    1    2    0    0 -0.15514091408E+03  0.10027766872E+03  0.51515008898E+03  0.10479125185E+04  0.89365357838E+03 0.  0.
        -24    2    4    4    0    0 -0.50818128309E+03  0.13300643938E+03  0.20171742720E+03  0.56837329762E+03  0.80120881270E+02 0.  0.
         24    2    4    4    0    0  0.35304036901E+03 -0.32728770654E+02  0.31343266178E+03  0.47953922086E+03  0.77518748032E+02 0.  0.
         11    1    3    3    0    0  0.19880466037E+01 -0.20768306289E+02  0.11507529556E+03  0.11695126559E+03  0.00000000000E+00 0. -1.
        -11    1    3    3    0    0  0.15315286747E+03 -0.79509362434E+02  0.30547452188E+03  0.35084501286E+03  0.00000000000E+00 0.  1.
          2    1    6    6  502    0  0.30462988238E+03 -0.10217560709E+01  0.25460694104E+03  0.39702028116E+03  0.00000000000E+00 0. -1.
          3    1    5    5  503    0 -0.50112570987E+03  0.14088521336E+03  0.20003337640E+03  0.55766385226E+03  0.00000000000E+00 0. -1.
         -4    1    5    5    0  503 -0.70555732149E+01 -0.78787739853E+01  0.16840507988E+01  0.10709445364E+02  0.00000000000E+00 0.  1.
         -1    1    6    6    0  502  0.48410486626E+02 -0.31707014584E+02  0.58825720739E+02  0.82518939702E+02  0.00000000000E+00 0.  1.
<mgrwt>
<rscale>  0 0.11924088E+04</rscale>
<asrwt>0</asrwt>
<pdfrwt beam="1">  1        2 0.18856990E+00 0.11924088E+04</pdfrwt>
<pdfrwt beam="2">  1       -2 0.44616069E-01 0.11924088E+04</pdfrwt>
<totfact> 0.85952766E+01</totfact>
</mgrwt>
</event>
<event>
12    1  0.1960998E-007  0.3433197E+04  0.7818608E-02  0.8129806E-01
          1   -1    0    0  501    0  0.00000000000E+00  0.00000000000E+00  0.14973091982E+04  0.14973091982E+04  0.00000000000E+00 0. -1.
         -1   -1    0    0    0  501 -0.00000000000E+00 -0.00000000000E+00 -0.19680040046E+04  0.19680040046E+04  0.00000000000E+00 0.  1.
         23    2    1    2    0    0  0.13352414111E+04 -0.52786916647E+03  0.49035683054E+03  0.15200026462E+04  0.91884386116E+02 0.  0.
        254    2    1    2    0    0 -0.13352414111E+04  0.52786916647E+03 -0.96105163701E+03  0.19453105566E+04  0.89392249647E+03 0.  0.
        -24    2    4    4    0    0 -0.34037518063E+03 -0.20731167594E+03 -0.57096889359E+02  0.41110857175E+03  0.83167351934E+02 0.  0.
         24    2    4    4    0    0 -0.99486623046E+03  0.73518084240E+03 -0.90395474766E+03  0.15342019848E+04  0.79949089185E+02 0.  0.
         11    1    3    3    0    0  0.83419364372E+03 -0.30657709035E+03  0.26192697405E+03  0.92653887522E+03  0.00000000000E+00 0.  1.
        -11    1    3    3    0    0  0.50104776737E+03 -0.22129207611E+03  0.22842985650E+03  0.59346377099E+03  0.00000000000E+00 0. -1.
          4    1    6    6  502    0 -0.89702829578E+03  0.65219960904E+03 -0.83724067122E+03  0.13896028336E+04  0.00000000000E+00 0. -1.
          3    1    5    5  503    0 -0.16127607219E+02 -0.17891772050E+02  0.15486818820E+02  0.28636633511E+02  0.00000000000E+00 0. -1.
         -4    1    5    5    0  503 -0.32424757341E+03 -0.18941990389E+03 -0.72583708178E+02  0.38247193824E+03  0.00000000000E+00 0.  1.
         -3    1    6    6    0  502 -0.97837934680E+02  0.82981233359E+02 -0.66714076433E+02  0.14459915126E+03  0.00000000000E+00 0.  1.
<mgrwt>
<rscale>  0 0.34331971E+04</rscale>
<asrwt>0</asrwt>
<pdfrwt beam="1">  1        1 0.23035526E+00 0.34331971E+04</pdfrwt>
<pdfrwt beam="2">  1       -1 0.30276985E+00 0.34331971E+04</pdfrwt>
<totfact> 0.17076387E-01</totfact>
</mgrwt>
</event>
<event>
12    1  0.1960998E-007  0.1655046E+04  0.7818608E-02  0.8787427E-01
         -1   -1    0    0    0  501 -0.00000000000E+00  0.00000000000E+00  0.26173768311E+03  0.26173768311E+03  0.00000000000E+00 0.  1.
          1   -1    0    0  501    0  0.00000000000E+00 -0.00000000000E+00 -0.26163395633E+04  0.26163395633E+04  0.00000000000E+00 0. -1.
         23    2    1    2    0    0  0.36780423880E+03 -0.27433945157E+03 -0.21909041932E+03  0.51556544725E+03  0.85235120676E+02 0.  0.
        254    2    1    2    0    0 -0.36780423880E+03  0.27433945157E+03 -0.21355114609E+04  0.23625117992E+04  0.90028368243E+03 0.  0.
        -24    2    4    4    0    0  0.10068531094E+03 -0.20908472828E+03 -0.10819172031E+04  0.11094920810E+04  0.81079516059E+02 0.  0.
         24    2    4    4    0    0 -0.46848954974E+03  0.48342417985E+03 -0.10535942578E+04  0.12530197182E+04  0.82560028330E+02 0.  0.
         13    1    3    3    0    0  0.14423735459E+03 -0.57766711818E+02 -0.76790636781E+02  0.17331534655E+03  0.00000000000E+00 0.  1.
        -13    1    3    3    0    0  0.22356688421E+03 -0.21657273975E+03 -0.14229978254E+03  0.34225010070E+03  0.00000000000E+00 0. -1.
          2    1    6    6  502    0 -0.19136565398E+03  0.23466155670E+03 -0.53186535838E+03  0.61201929639E+03  0.00000000000E+00 0. -1.
          3    1    5    5  503    0  0.39835760224E+02 -0.14262629430E+03 -0.53132969766E+03  0.55157990830E+03  0.00000000000E+00 0. -1.
         -4    1    5    5    0  503  0.60849550715E+02 -0.66458433980E+02 -0.55058750544E+03  0.55791217267E+03  0.00000000000E+00 0.  1.
         -3    1    6    6    0  502 -0.27712389576E+03  0.24876262315E+03 -0.52172889942E+03  0.64100042182E+03  0.00000000000E+00 0.  1.
<mgrwt>
<rscale>  0 0.16550464E+04</rscale>
<asrwt>0</asrwt>
<pdfrwt beam="1">  1        1 0.40251379E+00 0.16550464E+04</pdfrwt>
<pdfrwt beam="2">  1       -1 0.40267334E-01 0.16550464E+04</pdfrwt>
<totfact> 0.64735453E+00</totfact>
</mgrwt>
</event>
<event>
12    1  0.1960998E-007  0.1374394E+04  0.7818608E-02  0.8972565E-01
          1   -1    0    0  501    0  0.00000000000E+00  0.00000000000E+00  0.62057409822E+03  0.62057409822E+03  0.00000000000E+00 0. -1.
         -1   -1    0    0    0  501 -0.00000000000E+00 -0.00000000000E+00 -0.76097186994E+03  0.76097186994E+03  0.00000000000E+00 0.  1.
         23    2    1    2    0    0  0.32144084464E+03 -0.16643974983E+03 -0.16926686349E+03  0.40979503084E+03  0.90853119381E+02 0.  0.
        254    2    1    2    0    0 -0.32144084464E+03  0.16643974983E+03  0.28869091774E+02  0.97175093732E+03  0.90135456553E+03 0.  0.
        -24    2    4    4    0    0 -0.30138429520E+03  0.93772047933E+02  0.43945445177E+03  0.54699960065E+03  0.80390655954E+02 0.  0.
         24    2    4    4    0    0 -0.20056549437E+02  0.72667701895E+02 -0.41058535999E+03  0.42475133667E+03  0.78425124075E+02 0.  0.
         13    1    3    3    0    0  0.19962212812E+03 -0.92660962341E+02 -0.54083582601E+02  0.22662762825E+03  0.00000000000E+00 0. -1.
        -13    1    3    3    0    0  0.12181871652E+03 -0.73778787487E+02 -0.11518328089E+03  0.18316740259E+03  0.00000000000E+00 0.  1.
          2    1    6    6  502    0  0.13758621909E+02 -0.50853324012E+01 -0.15007871194E+03  0.15079383297E+03  0.00000000000E+00 0. -1.
          1    1    5    5  503    0 -0.14621841164E+03  0.84667075508E+02  0.20427099885E+03  0.26509428238E+03  0.00000000000E+00 0. -1.
         -2    1    5    5    0  503 -0.15516588356E+03  0.91049724254E+01  0.23518345292E+03  0.28190531827E+03  0.00000000000E+00 0.  1.
         -1    1    6    6    0  502 -0.33815171346E+02  0.77753034296E+02 -0.26050664805E+03  0.27395750370E+03  0.00000000000E+00 0.  1.
<mgrwt>
<rscale>  0 0.13743936E+04</rscale>
<asrwt>0</asrwt>
<pdfrwt beam="1">  1        1 0.95472939E-01 0.13743936E+04</pdfrwt>
<pdfrwt beam="2">  1       -1 0.11707259E+00 0.13743936E+04</pdfrwt>
<totfact> 0.20954238E+01</totfact>
</mgrwt>
</event>
<event>
12    1  0.1960998E-007  0.2170426E+04  0.7818608E-02  0.8530839E-01
          2   -1    0    0  501    0  0.00000000000E+00  0.00000000000E+00  0.78494781489E+03  0.78494781489E+03  0.00000000000E+00 0. -1.
         -2   -1    0    0    0  501 -0.00000000000E+00 -0.00000000000E+00 -0.15003383235E+04  0.15003383235E+04  0.00000000000E+00 0.  1.
         23    2    1    2    0    0 -0.24621282064E+03  0.36523970204E+03  0.52509712536E+03  0.69135779834E+03  0.90707338600E+02 0.  0.
        254    2    1    2    0    0  0.24621282064E+03 -0.36523970204E+03 -0.12404876340E+04  0.15939283401E+04  0.89876425731E+03 0.  0.
        -24    2    4    4    0    0 -0.24258545689E+02 -0.41148718227E+03 -0.12394259298E+04  0.13082243301E+04  0.73239907939E+02 0.  0.
         24    2    4    4    0    0  0.27047136633E+03  0.46247480231E+02 -0.10617042024E+01  0.28570401002E+03  0.79574271554E+02 0.  0.
         11    1    3    3    0    0  0.48964528610E+00  0.42790087491E+02  0.64032188522E+02  0.77015274504E+02  0.00000000000E+00 0.  1.
        -11    1    3    3    0    0 -0.24670246593E+03  0.32244961455E+03  0.46106493684E+03  0.61434252384E+03  0.00000000000E+00 0. -1.
          4    1    6    6  502    0  0.16974709706E+03  0.60136950993E+02  0.22059599487E+02  0.18143085671E+03  0.00000000000E+00 0. -1.
          1    1    5    5  503    0  0.26235795507E+02 -0.13586028340E+03 -0.42131494553E+03  0.44345531556E+03  0.00000000000E+00 0. -1.
         -2    1    5    5    0  503 -0.50494341196E+02 -0.27562689887E+03 -0.81811098426E+03  0.86476901450E+03  0.00000000000E+00 0.  1.
         -3    1    6    6    0  502  0.10072426926E+03 -0.13889470762E+02 -0.23121303689E+02  0.10427315331E+03  0.00000000000E+00 0.  1.
<mgrwt>
<rscale>  0 0.21704260E+04</rscale>
<asrwt>0</asrwt>
<pdfrwt beam="1">  1        2 0.12076120E+00 0.21704260E+04</pdfrwt>
<pdfrwt beam="2">  1       -2 0.23082128E+00 0.21704260E+04</pdfrwt>
<totfact> 0.27338883E+00</totfact>
</mgrwt>
</event>
<event>
12    1  0.1960998E-007  0.3853902E+04  0.7818608E-02  0.8034686E-01
         -2   -1    0    0    0  501 -0.00000000000E+00  0.00000000000E+00  0.12853663363E+04  0.12853663363E+04  0.00000000000E+00 0.  1.
          2   -1    0    0  501    0  0.00000000000E+00 -0.00000000000E+00 -0.28887794158E+04  0.28887794158E+04  0.00000000000E+00 0. -1.
         23    2    1    2    0    0 -0.42372929849E+03 -0.16817743541E+04 -0.13583124545E+04  0.22049106492E+04  0.93309968644E+02 0.  0.
        254    2    1    2    0    0  0.42372929849E+03  0.16817743541E+04 -0.24510062504E+03  0.19692351029E+04  0.89994504147E+03 0.  0.
        -24    2    4    4    0    0 -0.14914494812E+02  0.10780869445E+04 -0.48032052580E+03  0.11831999397E+04  0.82221577654E+02 0.  0.
         24    2    4    4    0    0  0.43864379330E+03  0.60368740959E+03  0.23521990076E+03  0.78603516318E+03  0.75339300070E+02 0.  0.
         11    1    3    3    0    0 -0.32154393527E+03 -0.11689147026E+04 -0.90550455802E+03  0.15131723592E+04  0.00000000000E+00 0.  1.
        -11    1    3    3    0    0 -0.10218536322E+03 -0.51285965152E+03 -0.45280789651E+03  0.69173828993E+03  0.00000000000E+00 0. -1.
          4    1    6    6  502    0  0.18014917490E+03  0.18862356973E+03  0.90677506768E+02  0.27614305443E+03  0.00000000000E+00 0. -1.
          3    1    5    5  503    0 -0.23348242544E+01  0.62893599597E+03 -0.23613065479E+03  0.67180624035E+03  0.00000000000E+00 0. -1.
         -4    1    5    5    0  503 -0.12579670558E+02  0.44915094853E+03 -0.24418987101E+03  0.51139369940E+03  0.00000000000E+00 0.  1.
         -1    1    6    6    0  502  0.25849461840E+03  0.41506383986E+03  0.14454239399E+03  0.50989210875E+03  0.00000000000E+00 0.  1.
<mgrwt>
<rscale>  0 0.38539018E+04</rscale>
<asrwt>0</asrwt>
<pdfrwt beam="1">  1        2 0.44442760E+00 0.38539018E+04</pdfrwt>
<pdfrwt beam="2">  1       -2 0.19774867E+00 0.38539018E+04</pdfrwt>
<totfact> 0.22415481E-01</totfact>
</mgrwt>
</event>
<event>
12    1  0.1960998E-007  0.4138355E+04  0.7818608E-02  0.7977203E-01
          1   -1    0    0  501    0  0.00000000000E+00  0.00000000000E+00  0.21595192192E+04  0.21595192192E+04  0.00000000000E+00 0. -1.
         -1   -1    0    0    0  501 -0.00000000000E+00 -0.00000000000E+00 -0.19826153575E+04  0.19826153575E+04  0.00000000000E+00 0.  1.
         23    2    1    2    0    0 -0.72803397155E+03 -0.14220520300E+04  0.12382869988E+04  0.20234750341E+04  0.93973839668E+02 0.  0.
        254    2    1    2    0    0  0.72803397155E+03  0.14220520300E+04 -0.10613831371E+04  0.21186595427E+04  0.89995480684E+03 0.  0.
        -24    2    4    4    0    0  0.58214511827E+03  0.84366845096E+03 -0.16848515390E+03  0.10417488779E+04  0.78638944247E+02 0.  0.
         24    2    4    4    0    0  0.14588885328E+03  0.57838357900E+03 -0.89289798323E+03  0.10769106648E+04  0.81600548945E+02 0.  0.
         11    1    3    3    0    0 -0.51620747738E+03 -0.92241023085E+03  0.79131485303E+03  0.13204128106E+04  0.00000000000E+00 0.  1.
        -11    1    3    3    0    0 -0.21182649416E+03 -0.49964179911E+03  0.44697214581E+03  0.70306222355E+03  0.00000000000E+00 0. -1.
          4    1    6    6  502    0  0.11920597440E+03  0.30722607939E+03 -0.49535516668E+03  0.59495770383E+03  0.00000000000E+00 0. -1.
          1    1    5    5  503    0  0.18811351590E+03  0.33972530646E+03 -0.62833835498E+02  0.39338031165E+03  0.00000000000E+00 0. -1.
         -2    1    5    5    0  503  0.39403160237E+03  0.50394314450E+03 -0.10565131840E+03  0.64836856620E+03  0.00000000000E+00 0.  1.
         -3    1    6    6    0  502  0.26682878874E+02  0.27115749961E+03 -0.39754281655E+03  0.48195296100E+03  0.00000000000E+00 0.  1.
<mgrwt>
<rscale>  0 0.41383552E+04</rscale>
<asrwt>0</asrwt>
<pdfrwt beam="1">  1        1 0.33223373E+00 0.41383552E+04</pdfrwt>
<pdfrwt beam="2">  1       -1 0.30501775E+00 0.41383552E+04</pdfrwt>
<totfact> 0.55042655E-02</totfact>
</mgrwt>
</event>
<event>
12    1  0.1960998E-007  0.1923867E+04  0.7818608E-02  0.8643067E-01
          2   -1    0    0  501    0  0.00000000000E+00  0.00000000000E+00  0.26626427938E+04  0.26626427938E+04  0.00000000000E+00 0. -1.
         -2   -1    0    0    0  501 -0.00000000000E+00 -0.00000000000E+00 -0.34751793262E+03  0.34751793262E+03  0.00000000000E+00 0.  1.
         23    2    1    2    0    0  0.49712156142E+03  0.50688181857E+03  0.54094833256E+03  0.89754043291E+03  0.94311745693E+02 0.  0.
        254    2    1    2    0    0 -0.49712156142E+03 -0.50688181857E+03  0.17741765286E+04  0.21126202935E+04  0.90077917663E+03 0.  0.
        -24    2    4    4    0    0  0.34629362933E+02 -0.57093248542E+03  0.68264847816E+03  0.89412085685E+03  0.79246868929E+02 0.  0.
         24    2    4    4    0    0 -0.53175092435E+03  0.64050666844E+02  0.10915280504E+04  0.12184994367E+04  0.80286105637E+02 0.  0.
         11    1    3    3    0    0  0.18534116932E+03  0.18145485687E+03  0.25541473878E+03  0.36402459109E+03  0.00000000000E+00 0. -1.
        -11    1    3    3    0    0  0.31178039210E+03  0.32542696170E+03  0.28553359377E+03  0.53351584182E+03  0.00000000000E+00 0.  1.
          2    1    6    6  502    0 -0.11433621467E+03 -0.19214680121E+02  0.23295656174E+03  0.26021286205E+03  0.00000000000E+00 0. -1.
          3    1    5    5  503    0 -0.44793849366E+01 -0.13575810854E+02  0.40384277223E+02  0.42839904022E+02  0.00000000000E+00 0. -1.
         -4    1    5    5    0  503  0.39108747870E+02 -0.55735667456E+03  0.64226420094E+03  0.85128095283E+03  0.00000000000E+00 0.  1.
         -1    1    6    6    0  502 -0.41741470968E+03  0.83265346965E+02  0.85857148870E+03  0.95828657461E+03  0.00000000000E+00 0.  1.
<mgrwt>
<rscale>  0 0.19238671E+04</rscale>
<asrwt>0</asrwt>
<pdfrwt beam="1">  1        2 0.40963734E+00 0.19238671E+04</pdfrwt>
<pdfrwt beam="2">  1       -2 0.53464299E-01 0.19238671E+04</pdfrwt>
<totfact> 0.86254305E+00</totfact>
</mgrwt>
</event>
<event>
12    1  0.1960998E-007  0.3038985E+04  0.7818608E-02  0.8232685E-01
          2   -1    0    0  501    0  0.00000000000E+00  0.00000000000E+00  0.37075546352E+04  0.37075546352E+04  0.00000000000E+00 0. -1.
         -2   -1    0    0    0  501 -0.00000000000E+00 -0.00000000000E+00 -0.62274389523E+03  0.62274389523E+03  0.00000000000E+00 0.  1.
         23    2    1    2    0    0  0.84123800744E+03 -0.87938980381E+03  0.46727078396E+03  0.13070043768E+04  0.94396202898E+02 0.  0.
        254    2    1    2    0    0 -0.84123800744E+03  0.87938980381E+03  0.26175399561E+04  0.30232941537E+04  0.89876821603E+03 0.  0.
        -24    2    4    4    0    0 -0.83412250010E+03  0.62449064044E+03  0.25379155655E+04  0.27447216244E+04  0.82051647108E+02 0.  0.
         24    2    4    4    0    0 -0.71155073379E+01  0.25489916337E+03  0.79624390526E+02  0.27857252927E+03  0.78983520854E+02 0.  0.
         13    1    3    3    0    0  0.47151192861E+03 -0.55925431729E+03  0.28638357220E+03  0.78555995357E+03  0.00000000000E+00 0.  1.
        -13    1    3    3    0    0  0.36972607883E+03 -0.32013548652E+03  0.18088721177E+03  0.52144442319E+03  0.00000000000E+00 0. -1.
          2    1    6    6  502    0 -0.15029528476E+01  0.63255452942E+02 -0.14612513066E+02  0.64938715203E+02  0.00000000000E+00 0. -1.
          3    1    5    5  503    0 -0.60084283524E+03  0.43350182932E+03  0.18924983543E+04  0.20323597048E+04  0.00000000000E+00 0. -1.
         -4    1    5    5    0  503 -0.23327966486E+03  0.19098881112E+03  0.64541721124E+03  0.71236191966E+03  0.00000000000E+00 0.  1.
         -1    1    6    6    0  502 -0.56125544903E+01  0.19164371042E+03  0.94236903592E+02  0.21363381406E+03  0.00000000000E+00 0.  1.
<mgrwt>
<rscale>  0 0.30389847E+04</rscale>
<asrwt>0</asrwt>
<pdfrwt beam="1">  1        2 0.57039301E+00 0.30389847E+04</pdfrwt>
<pdfrwt beam="2">  1       -2 0.95806755E-01 0.30389847E+04</pdfrwt>
<totfact> 0.44886654E-01</totfact>
</mgrwt>
</event>
<event>
12    1  0.1960998E-007  0.1595120E+04  0.7818608E-02  0.8823551E-01
          2   -1    0    0  501    0  0.00000000000E+00  0.00000000000E+00  0.11778666865E+04  0.11778666865E+04  0.00000000000E+00 0. -1.
         -2   -1    0    0    0  501 -0.00000000000E+00 -0.00000000000E+00 -0.54004604870E+03  0.54004604870E+03  0.00000000000E+00 0.  1.
         23    2    1    2    0    0  0.46378451698E+03  0.25933307494E+03  0.16186380641E+03  0.56320833308E+03  0.93026946016E+02 0.  0.
        254    2    1    2    0    0 -0.46378451698E+03 -0.25933307494E+03  0.47595683141E+03  0.11547044021E+04  0.90799649175E+03 0.  0.
        -24    2    4    4    0    0  0.26566525843E+03 -0.18109089653E+02  0.15024750901E+03  0.31636900250E+03  0.81296144533E+02 0.  0.
         24    2    4    4    0    0 -0.72944977541E+03 -0.24122398528E+03  0.32570932240E+03  0.83833539964E+03  0.80210308996E+02 0.  0.
         13    1    3    3    0    0  0.28833432709E+03  0.17782161022E+03  0.58189399003E+02  0.34371967560E+03  0.00000000000E+00 0.  1.
        -13    1    3    3    0    0  0.17545018989E+03  0.81511464718E+02  0.10367440741E+03  0.21948865748E+03  0.00000000000E+00 0. -1.
          2    1    6    6  502    0 -0.29285527860E+01  0.37530189640E+01 -0.10873318013E+01  0.48830178384E+01  0.00000000000E+00 0. -1.
          3    1    5    5  503    0  0.65534076077E+01 -0.92858375360E+01  0.27017543560E+02  0.29310776006E+02  0.00000000000E+00 0. -1.
         -4    1    5    5    0  503  0.25911185083E+03 -0.88232521173E+01  0.12322996545E+03  0.28705822650E+03  0.00000000000E+00 0.  1.
         -1    1    6    6    0  502 -0.72652122262E+03 -0.24497700425E+03  0.32679665420E+03  0.83345238180E+03  0.00000000000E+00 0.  1.
<mgrwt>
<rscale>  0 0.15951204E+04</rscale>
<asrwt>0</asrwt>
<pdfrwt beam="1">  1        2 0.18121026E+00 0.15951204E+04</pdfrwt>
<pdfrwt beam="2">  1       -2 0.83084008E-01 0.15951204E+04</pdfrwt>
<totfact> 0.23777830E+01</totfact>
</mgrwt>
</event>
<event>
12    1  0.1960998E-007  0.2025679E+04  0.7818608E-02  0.8594708E-01
          1   -1    0    0  501    0  0.00000000000E+00  0.00000000000E+00  0.11044517627E+04  0.11044517627E+04  0.00000000000E+00 0. -1.
         -1   -1    0    0    0  501 -0.00000000000E+00 -0.00000000000E+00 -0.92882591896E+03  0.92882591896E+03  0.00000000000E+00 0.  1.
         23    2    1    2    0    0 -0.40222164239E+02 -0.79635312839E+03 -0.39449274936E+02  0.80337592828E+03  0.89780338949E+02 0.  0.
        254    2    1    2    0    0  0.40222164239E+02  0.79635312839E+03  0.21507511870E+03  0.12299017534E+04  0.91137527328E+03 0.  0.
        -24    2    4    4    0    0  0.17120445169E+03  0.81452525935E+03  0.44909223601E+03  0.94904364487E+03  0.78978737878E+02 0.  0.
         24    2    4    4    0    0 -0.13098228745E+03 -0.18172130965E+02 -0.23401711731E+03  0.28085810853E+03  0.81428987243E+02 0.  0.
         11    1    3    3    0    0  0.92725993180E+01 -0.56857810885E+03 -0.13142089168E+02  0.56880555682E+03  0.00000000000E+00 0. -1.
        -11    1    3    3    0    0 -0.49494763557E+02 -0.22777501953E+03 -0.26307185768E+02  0.23457037146E+03  0.00000000000E+00 0.  1.
          4    1    6    6  502    0 -0.11798238082E+03  0.91039868596E+01 -0.14679786697E+03  0.18855327763E+03  0.00000000000E+00 0. -1.
          1    1    5    5  503    0  0.16860982298E+03  0.79472570473E+03  0.42226816648E+03  0.91560287385E+03  0.00000000000E+00 0. -1.
         -2    1    5    5    0  503  0.25946287054E+01  0.19799554616E+02  0.26824069523E+02  0.33440771027E+02  0.00000000000E+00 0.  1.
         -3    1    6    6    0  502 -0.12999906627E+02 -0.27276117824E+02 -0.87219250343E+02  0.92304830894E+02  0.00000000000E+00 0.  1.
<mgrwt>
<rscale>  0 0.20256786E+04</rscale>
<asrwt>0</asrwt>
<pdfrwt beam="1">  1        1 0.16991566E+00 0.20256786E+04</pdfrwt>
<pdfrwt beam="2">  1       -1 0.14289629E+00 0.20256786E+04</pdfrwt>
<totfact> 0.46256049E+00</totfact>
</mgrwt>
</event>
<event>
12    1  0.1960998E-007  0.1482860E+04  0.7818608E-02  0.8895932E-01
         -2   -1    0    0    0  501 -0.00000000000E+00  0.00000000000E+00  0.66300332682E+03  0.66300332682E+03  0.00000000000E+00 0.  1.
          2   -1    0    0  501    0  0.00000000000E+00 -0.00000000000E+00 -0.82913332531E+03  0.82913332531E+03  0.00000000000E+00 0. -1.
         23    2    1    2    0    0  0.24384992853E+02 -0.45001626056E+03  0.44853292932E+02  0.46199118392E+03  0.91185379760E+02 0.  0.
        254    2    1    2    0    0 -0.24384992853E+02  0.45001626056E+03 -0.21098329143E+03  0.10301454682E+04  0.90198474143E+03 0.  0.
        -24    2    4    4    0    0 -0.22838934998E+03 -0.11004113445E+03  0.17241780327E+03  0.31689615566E+03  0.80153154187E+02 0.  0.
         24    2    4    4    0    0  0.20400435713E+03  0.56005739501E+03 -0.38340109470E+03  0.71324931256E+03  0.80287726363E+02 0.  0.
         13    1    3    3    0    0  0.36404423755E+02 -0.37447183097E+03  0.67435528338E+02  0.38223289333E+03  0.00000000000E+00 0. -1.
        -13    1    3    3    0    0 -0.12019430902E+02 -0.75544429591E+02 -0.22582235407E+02  0.79758290587E+02  0.00000000000E+00 0.  1.
          4    1    6    6  502    0  0.16931512949E+03  0.40670238170E+03 -0.31615066205E+03  0.54224134983E+03  0.00000000000E+00 0. -1.
          3    1    5    5  503    0 -0.19790177308E+03 -0.59206429851E+02  0.13163412992E+03  0.24494500869E+03  0.00000000000E+00 0. -1.
         -4    1    5    5    0  503 -0.30487576909E+02 -0.50834704600E+02  0.40783673358E+02  0.71951146969E+02  0.00000000000E+00 0.  1.
         -3    1    6    6    0  502  0.34689227644E+02  0.15335501331E+03 -0.67250432656E+02  0.17100796273E+03  0.00000000000E+00 0.  1.
<mgrwt>
<rscale>  0 0.14828596E+04</rscale>
<asrwt>0</asrwt>
<pdfrwt beam="1">  1        2 0.12755897E+00 0.14828596E+04</pdfrwt>
<pdfrwt beam="2">  1       -2 0.10200051E+00 0.14828596E+04</pdfrwt>
<totfact> 0.25030492E+01</totfact>
</mgrwt>
</event>
<event>
12    1  0.2050438E-007  0.2366635E+04  0.7818608E-02  0.8452102E-01
         -1   -1    0    0    0  501 -0.00000000000E+00  0.00000000000E+00  0.12252126597E+04  0.12252126597E+04  0.00000000000E+00 0.  1.
          1   -1    0    0  501    0  0.00000000000E+00 -0.00000000000E+00 -0.11428545186E+04  0.11428545186E+04  0.00000000000E+00 0. -1.
         23    2    1    2    0    0 -0.81511545391E+03  0.34872234024E+03 -0.45012019256E+03  0.99850579309E+03  0.91570504562E+02 0.  0.
        254    2    1    2    0    0  0.81511545391E+03 -0.34872234024E+03  0.53247833367E+03  0.13695613851E+04  0.89785563316E+03 0.  0.
        -24    2    4    4    0    0  0.29896670099E+03  0.17657181239E+03 -0.12689107146E+03  0.37784857558E+03  0.78163347013E+02 0.  0.
         24    2    4    4    0    0  0.51614875292E+03 -0.52529415263E+03  0.65936940513E+03  0.99171280954E+03  0.79892441843E+02 0.  0.
         13    1    3    3    0    0 -0.28113940063E+03  0.11058002877E+03 -0.20167980126E+03  0.36323827935E+03  0.00000000000E+00 0. -1.
        -13    1    3    3    0    0 -0.53397605328E+03  0.23814231147E+03 -0.24844039131E+03  0.63526751375E+03  0.00000000000E+00 0.  1.
          4    1    6    6  502    0  0.11674231012E+03 -0.16311043978E+03  0.15619160733E+03  0.25422352515E+03  0.00000000000E+00 0. -1.
          3    1    5    5  503    0  0.10338660452E+03  0.61857552796E+02 -0.53730621449E+01  0.12059857640E+03  0.00000000000E+00 0. -1.
         -4    1    5    5    0  503  0.19558009647E+03  0.11471425960E+03 -0.12151800931E+03  0.25724999918E+03  0.00000000000E+00 0.  1.
         -3    1    6    6    0  502  0.39940644280E+03 -0.36218371285E+03  0.50317779779E+03  0.73748928439E+03  0.00000000000E+00 0.  1.
<mgrwt>
<rscale>  0 0.23666346E+04</rscale>
<asrwt>0</asrwt>
<pdfrwt beam="1">  1        1 0.17582377E+00 0.23666346E+04</pdfrwt>
<pdfrwt beam="2">  1       -1 0.18849426E+00 0.23666346E+04</pdfrwt>
<totfact> 0.19161923E+00</totfact>
</mgrwt>
</event>
<event>
12    1  0.1960998E-007  0.1721053E+04  0.7818608E-02  0.8749447E-01
         -2   -1    0    0    0  501 -0.00000000000E+00  0.00000000000E+00  0.16154926394E+04  0.16154926394E+04  0.00000000000E+00 0. -1.
          2   -1    0    0  501    0  0.00000000000E+00 -0.00000000000E+00 -0.45837797639E+03  0.45837797639E+03  0.00000000000E+00 0.  1.
         23    2    1    2    0    0  0.28605928453E+02 -0.57754578598E+03  0.15286553185E+03  0.60515183349E+03  0.91996938503E+02 0.  0.
        254    2    1    2    0    0 -0.28605928453E+02  0.57754578598E+03  0.10042491312E+04  0.14687187823E+04  0.90235309610E+03 0.  0.
        -24    2    4    4    0    0 -0.19001330549E+03  0.49201788176E+03  0.11186073830E+04  0.12393176182E+04  0.80243563376E+02 0.  0.
         24    2    4    4    0    0  0.16140737703E+03  0.85527904227E+02 -0.11435825175E+03  0.22940116410E+03  0.78611198847E+02 0.  0.
         13    1    3    3    0    0  0.30140672317E+02 -0.35428109600E+03  0.49057607704E+02  0.35892924649E+03  0.00000000000E+00 0.  1.
        -13    1    3    3    0    0 -0.15347438641E+01 -0.22326468998E+03  0.10380792415E+03  0.24622258699E+03  0.00000000000E+00 0. -1.
          4    1    6    6  502    0  0.16273573344E+03  0.88273871789E+02 -0.91814761492E+02  0.20665223398E+03  0.00000000000E+00 0. -1.
          1    1    5    5  503    0 -0.19039527922E+03  0.42071626355E+03  0.95185911979E+03  0.10579642341E+04  0.00000000000E+00 0. -1.
         -2    1    5    5    0  503  0.38197373378E+00  0.71301618206E+02  0.16674826316E+03  0.18135338412E+03  0.00000000000E+00 0.  1.
         -3    1    6    6    0  502 -0.13283564115E+01 -0.27459675617E+01 -0.22543490258E+02  0.22748930120E+02  0.00000000000E+00 0.  1.
<mgrwt>
<rscale>  0 0.17210535E+04</rscale>
<asrwt>0</asrwt>
<pdfrwt beam="1">  1        2 0.70519689E-01 0.17210535E+04</pdfrwt>
<pdfrwt beam="2">  1       -2 0.24853733E+00 0.17210535E+04</pdfrwt>
<totfact> 0.42439105E+00</totfact>
</mgrwt>
</event>
<event>
12    1  0.1960998E-007  0.3391711E+04  0.7818608E-02  0.8139944E-01
          1   -1    0    0  501    0  0.00000000000E+00  0.00000000000E+00  0.20591033141E+04  0.20591033141E+04  0.00000000000E+00 0. -1.
         -1   -1    0    0    0  501 -0.00000000000E+00 -0.00000000000E+00 -0.13966881208E+04  0.13966881208E+04  0.00000000000E+00 0.  1.
         23    2    1    2    0    0  0.44306617976E+03 -0.13748295229E+04 -0.32832894963E+03  0.14841257254E+04  0.91462631100E+02 0.  0.
        254    2    1    2    0    0 -0.44306617976E+03  0.13748295229E+04  0.99074414290E+03  0.19716657096E+04  0.90522254556E+03 0.  0.
        -24    2    4    4    0    0 -0.29021623911E+03 -0.13697739248E+02  0.12505011769E+03  0.32637644430E+03  0.80442264731E+02 0.  0.
         24    2    4    4    0    0 -0.15284994065E+03  0.13885272621E+04  0.86569402521E+03  0.16452892653E+04  0.78610171784E+02 0.  0.
         11    1    3    3    0    0  0.24829913409E+03 -0.90259617168E+03 -0.19561540050E+03  0.95634601167E+03  0.00000000000E+00 0.  1.
        -11    1    3    3    0    0  0.19476704567E+03 -0.47223335120E+03 -0.13271354913E+03  0.52777971369E+03  0.00000000000E+00 0. -1.
          4    1    6    6  502    0 -0.12354245464E+03  0.79004791711E+03  0.51112105484E+03  0.94904329835E+03  0.00000000000E+00 0. -1.
          1    1    5    5  503    0 -0.23322341485E+03 -0.37811709629E+02  0.78602661301E+02  0.24900053210E+03  0.00000000000E+00 0. -1.
         -2    1    5    5    0  503 -0.56992824260E+02  0.24113970380E+02  0.46447456386E+02  0.77375912204E+02  0.00000000000E+00 0.  1.
         -3    1    6    6    0  502 -0.29307486010E+02  0.59847934501E+03  0.35457297037E+03  0.69624596692E+03  0.00000000000E+00 0.  1.
<mgrwt>
<rscale>  0 0.33917106E+04</rscale>
<asrwt>0</asrwt>
<pdfrwt beam="1">  1        1 0.31678513E+00 0.33917106E+04</pdfrwt>
<pdfrwt beam="2">  1       -1 0.21487509E+00 0.33917106E+04</pdfrwt>
<totfact> 0.26651328E-01</totfact>
</mgrwt>
</event>
<event>
12    1  0.2641376E-007  0.2667312E+04  0.7818608E-02  0.8345690E-01
         -2   -1    0    0    0  501 -0.00000000000E+00  0.00000000000E+00  0.82180763743E+03  0.82180763743E+03  0.00000000000E+00 0. -1.
          2   -1    0    0  501    0  0.00000000000E+00 -0.00000000000E+00 -0.21642993775E+04  0.21642993775E+04  0.00000000000E+00 0.  1.
         23    2    1    2    0    0  0.68919345208E+03 -0.95349663338E+03 -0.73987385907E+03  0.13928198559E+04  0.91599013977E+02 0.  0.
        254    2    1    2    0    0 -0.68919345208E+03  0.95349663338E+03 -0.60261788102E+03  0.15932871591E+04  0.88953483150E+03 0.  0.
        -24    2    4    4    0    0  0.81125035426E+02  0.25813048105E+01  0.12349972332E+03  0.16816786551E+03  0.80251572092E+02 0.  0.
         24    2    4    4    0    0 -0.77031848750E+03  0.95091532857E+03 -0.72611760434E+03  0.14251192935E+04  0.78023657987E+02 0.  0.
         11    1    3    3    0    0  0.27410082864E+03 -0.30479843057E+03 -0.25622260601E+03  0.48340807954E+03  0.00000000000E+00 0. -1.
        -11    1    3    3    0    0  0.41509262344E+03 -0.64869820281E+03 -0.48365125306E+03  0.90941177634E+03  0.00000000000E+00 0.  1.
          4    1    6    6  502    0 -0.62387226869E+03  0.78439287066E+03 -0.56033699482E+03  0.11482448915E+04  0.00000000000E+00 0. -1.
          3    1    5    5  503    0  0.55929043873E+02 -0.13779913806E+02  0.12547088683E+03  0.13806117273E+03  0.00000000000E+00 0. -1.
         -4    1    5    5    0  503  0.25195991552E+02  0.16361218616E+02 -0.19711635071E+01  0.30106692786E+02  0.00000000000E+00 0.  1.
         -3    1    6    6    0  502 -0.14644621882E+03  0.16652245791E+03 -0.16578060953E+03  0.27687440201E+03  0.00000000000E+00 0.  1.
<mgrwt>
<rscale>  0 0.26673116E+04</rscale>
<asrwt>0</asrwt>
<pdfrwt beam="1">  1        2 0.33296913E+00 0.26673116E+04</pdfrwt>
<pdfrwt beam="2">  1       -2 0.12643195E+00 0.26673116E+04</pdfrwt>
<totfact> 0.22164529E+00</totfact>
</mgrwt>
</event>
<event>
12    1  0.1960998E-007  0.2083563E+04  0.7818608E-02  0.8568519E-01
          2   -1    0    0  501    0  0.00000000000E+00  0.00000000000E+00  0.16143607166E+04  0.16143607166E+04  0.00000000000E+00 0. -1.
         -2   -1    0    0    0  501 -0.00000000000E+00 -0.00000000000E+00 -0.67228364227E+03  0.67228364227E+03  0.00000000000E+00 0.  1.
         23    2    1    2    0    0  0.53256666031E+03 -0.60252863763E+03  0.65530199565E+03  0.10409413261E+04  0.86429926245E+02 0.  0.
        254    2    1    2    0    0 -0.53256666031E+03  0.60252863763E+03  0.28677507871E+03  0.12457030327E+04  0.90712077099E+03 0.  0.
        -24    2    4    4    0    0 -0.34849416718E+03  0.68423025398E+03 -0.12353350335E+03  0.78181734466E+03  0.79740886254E+02 0.  0.
         24    2    4    4    0    0 -0.18407249313E+03 -0.81701616349E+02  0.41030858206E+03  0.46388568808E+03  0.79239903164E+02 0.  0.
         13    1    3    3    0    0  0.39266210854E+03 -0.38496155420E+03  0.43399276620E+03  0.70052027151E+03  0.00000000000E+00 0.  1.
        -13    1    3    3    0    0  0.13990455177E+03 -0.21756708343E+03  0.22130922945E+03  0.34042105463E+03  0.00000000000E+00 0. -1.
          2    1    6    6  502    0 -0.98966592460E+02 -0.48369473382E+02  0.13755589869E+03  0.17622604133E+03  0.00000000000E+00 0. -1.
          1    1    5    5  503    0 -0.30473328460E+03  0.64286184275E+03 -0.10756158991E+03  0.71951596176E+03  0.00000000000E+00 0. -1.
         -2    1    5    5    0  503 -0.43760882582E+02  0.41368411231E+02 -0.15971913444E+02  0.62301382899E+02  0.00000000000E+00 0.  1.
         -1    1    6    6    0  502 -0.85105900671E+02 -0.33332142966E+02  0.27275268337E+03  0.28765964675E+03  0.00000000000E+00 0.  1.
<mgrwt>
<rscale>  0 0.20835626E+04</rscale>
<asrwt>0</asrwt>
<pdfrwt beam="1">  1        2 0.24836319E+00 0.20835626E+04</pdfrwt>
<pdfrwt beam="2">  1       -2 0.10342825E+00 0.20835626E+04</pdfrwt>
<totfact> 0.77001677E+00</totfact>
</mgrwt>
</event>
<event>
12    1  0.1960998E-007  0.1187742E+04  0.7818608E-02  0.9123654E-01
         -1   -1    0    0    0  501 -0.00000000000E+00  0.00000000000E+00  0.14542411696E+04  0.14542411696E+04  0.00000000000E+00 0.  1.
          1   -1    0    0  501    0  0.00000000000E+00 -0.00000000000E+00 -0.24252000703E+03  0.24252000703E+03  0.00000000000E+00 0. -1.
         23    2    1    2    0    0 -0.21749186885E+03 -0.85292650600E+02  0.12218014235E+03  0.27858623918E+03  0.90026419518E+02 0.  0.
        254    2    1    2    0    0  0.21749186885E+03  0.85292650600E+02  0.10895410202E+04  0.14181749374E+04  0.87723598262E+03 0.  0.
        -24    2    4    4    0    0  0.34702364256E+03  0.16118560536E+02  0.43860444084E+02  0.35927453025E+03  0.80431542581E+02 0.  0.
         24    2    4    4    0    0 -0.12953177371E+03  0.69174090065E+02  0.10456805761E+04  0.10589004072E+04  0.79111756027E+02 0.  0.
         11    1    3    3    0    0 -0.37573947367E+02 -0.11702716196E+02  0.64964102085E+02  0.75954523544E+02  0.00000000000E+00 0.  1.
        -11    1    3    3    0    0 -0.17991792148E+03 -0.73589934404E+02  0.57216040267E+02  0.20263171563E+03  0.00000000000E+00 0. -1.
          4    1    6    6  502    0 -0.12810368576E+03  0.72476636163E+02  0.10449042058E+04  0.10552195110E+04  0.00000000000E+00 0. -1.
          3    1    5    5  503    0  0.30376335904E+03 -0.86440694247E+01  0.53348017686E+02  0.30853348152E+03  0.00000000000E+00 0. -1.
         -4    1    5    5    0  503  0.43260283520E+02  0.24762629960E+02 -0.94875736027E+01  0.50741048725E+02  0.00000000000E+00 0.  1.
         -3    1    6    6    0  502 -0.14280879435E+01 -0.33025460986E+01  0.77637031984E+00  0.36808961927E+01  0.00000000000E+00 0.  1.
<mgrwt>
<rscale>  0 0.11877417E+04</rscale>
<asrwt>0</asrwt>
<pdfrwt beam="1">  1        1 0.37310771E-01 0.11877417E+04</pdfrwt>
<pdfrwt beam="2">  1       -1 0.22372941E+00 0.11877417E+04</pdfrwt>
<totfact> 0.11922892E+01</totfact>
</mgrwt>
</event>
<event>
12    1  0.1960998E-007  0.1545196E+04  0.7818608E-02  0.8854942E-01
          1   -1    0    0  501    0  0.00000000000E+00  0.00000000000E+00  0.17982128031E+04  0.17982128031E+04  0.00000000000E+00 0. -1.
         -1   -1    0    0    0  501 -0.00000000000E+00 -0.00000000000E+00 -0.33194508103E+03  0.33194508103E+03  0.00000000000E+00 0.  1.
         23    2    1    2    0    0  0.48662420189E+03 -0.12515946444E+03  0.59232432114E+03  0.78184958200E+03  0.89289764557E+02 0.  0.
        254    2    1    2    0    0 -0.48662420189E+03  0.12515946444E+03  0.87394340094E+03  0.13483083021E+04  0.89537154533E+03 0.  0.
        -24    2    4    4    0    0 -0.55036094476E+02 -0.34304030353E+03  0.46668266765E+03  0.58788805311E+03  0.84344704412E+02 0.  0.
         24    2    4    4    0    0 -0.43158810741E+03  0.46819976797E+03  0.40726073329E+03  0.76042024904E+03  0.83056204338E+02 0.  0.
         11    1    3    3    0    0  0.30680740975E+03 -0.85381440939E+02  0.43820804389E+03  0.54170754736E+03  0.00000000000E+00 0. -1.
        -11    1    3    3    0    0  0.17981679213E+03 -0.39778023501E+02  0.15411627725E+03  0.24014203464E+03  0.00000000000E+00 0.  1.
          4    1    6    6  502    0 -0.42405380608E+03  0.47126711614E+03  0.40326877633E+03  0.75135878991E+03  0.00000000000E+00 0. -1.
          3    1    5    5  503    0 -0.59065492044E+02 -0.34654106798E+03  0.46328632122E+03  0.58156139795E+03  0.00000000000E+00 0. -1.
         -4    1    5    5    0  503  0.40293975684E+01  0.35007644513E+01  0.33963464272E+01  0.63266551637E+01  0.00000000000E+00 0.  1.
         -3    1    6    6    0  502 -0.75343013265E+01 -0.30673481631E+01  0.39919569554E+01  0.90614591300E+01  0.00000000000E+00 0.  1.
<mgrwt>
<rscale>  0 0.15451963E+04</rscale>
<asrwt>0</asrwt>
<pdfrwt beam="1">  1        1 0.27664812E+00 0.15451963E+04</pdfrwt>
<pdfrwt beam="2">  1       -1 0.51068475E-01 0.15451963E+04</pdfrwt>
<totfact> 0.15181669E+01</totfact>
</mgrwt>
</event>
<event>
12    1  0.1960998E-007  0.1628060E+04  0.7818608E-02  0.8803493E-01
         -2   -1    0    0    0  501 -0.00000000000E+00  0.00000000000E+00  0.33711895389E+03  0.33711895389E+03  0.00000000000E+00 0.  1.
          2   -1    0    0  501    0  0.00000000000E+00 -0.00000000000E+00 -0.19656106179E+04  0.19656106179E+04  0.00000000000E+00 0. -1.
         23    2    1    2    0    0 -0.41908290274E+03 -0.17240794865E+03 -0.10282412990E+03  0.47343859422E+03  0.90643922485E+02 0.  0.
        254    2    1    2    0    0  0.41908290274E+03  0.17240794865E+03 -0.15256675341E+04  0.18292909776E+04  0.90182541322E+03 0.  0.
        -24    2    4    4    0    0  0.11344212555E+03 -0.32001407623E+03 -0.26347559450E+03  0.43815092027E+03  0.85315386617E+02 0.  0.
         24    2    4    4    0    0  0.30564077719E+03  0.49242202488E+03 -0.12621919396E+04  0.13911400573E+04  0.79034368505E+02 0.  0.
         13    1    3    3    0    0 -0.20754244429E+03 -0.13332144068E+03 -0.64000418790E+02  0.25484215964E+03  0.00000000000E+00 0. -1.
        -13    1    3    3    0    0 -0.21154045844E+03 -0.39086507969E+02 -0.38823711114E+02  0.21859643457E+03  0.00000000000E+00 0.  1.
          4    1    6    6  502    0  0.29841103349E+02  0.95205225180E+02 -0.25667016995E+03  0.27537992391E+03  0.00000000000E+00 0. -1.
          3    1    5    5  503    0  0.99432011309E+02 -0.15828536408E+03 -0.12600541881E+03  0.22542925037E+03  0.00000000000E+00 0. -1.
         -4    1    5    5    0  503  0.14010114240E+02 -0.16172871216E+03 -0.13747017569E+03  0.21272166989E+03  0.00000000000E+00 0.  1.
         -3    1    6    6    0  502  0.27579967384E+03  0.39721679970E+03 -0.10055217697E+04  0.11157601334E+04  0.00000000000E+00 0.  1.
<mgrwt>
<rscale>  0 0.16280597E+04</rscale>
<asrwt>0</asrwt>
<pdfrwt beam="1">  1        2 0.30240163E+00 0.16280597E+04</pdfrwt>
<pdfrwt beam="2">  1       -2 0.51864455E-01 0.16280597E+04</pdfrwt>
<totfact> 0.23457139E+01</totfact>
</mgrwt>
</event>
<event>
12    1  0.1960998E-007  0.1337625E+04  0.7818608E-02  0.9000249E-01
          2   -1    0    0  501    0  0.00000000000E+00  0.00000000000E+00  0.16010362810E+04  0.16010362810E+04  0.00000000000E+00 0.  1.
         -2   -1    0    0    0  501 -0.00000000000E+00 -0.00000000000E+00 -0.27938786653E+03  0.27938786653E+03  0.00000000000E+00 0. -1.
         23    2    1    2    0    0  0.33173617436E+03 -0.22814168184E+02  0.54607605182E+03  0.64566154683E+03  0.90057776136E+02 0.  0.
        254    2    1    2    0    0 -0.33173617436E+03  0.22814168184E+02  0.77557236266E+03  0.12347626007E+04  0.90141933345E+03 0.  0.
        -24    2    4    4    0    0 -0.14333186627E+03  0.70567388878E+02  0.94718493701E+03  0.96413118145E+03  0.82860424090E+02 0.  0.
         24    2    4    4    0    0 -0.18840430809E+03 -0.47753220694E+02 -0.17161257435E+03  0.27063141925E+03  0.77549571327E+02 0.  0.
         13    1    3    3    0    0  0.28098422691E+03 -0.46720454230E+02  0.48705724119E+03  0.56423372180E+03  0.00000000000E+00 0.  1.
        -13    1    3    3    0    0  0.50751947453E+02  0.23906286046E+02  0.59018810625E+02  0.81427825038E+02  0.00000000000E+00 0. -1.
          4    1    6    6  502    0 -0.10557716611E+03 -0.59493616007E+02 -0.12808877873E+03  0.17633140272E+03  0.00000000000E+00 0. -1.
          3    1    5    5  503    0 -0.10033346745E+03  0.48905844365E+02  0.41419176893E+03  0.42896784000E+03  0.00000000000E+00 0. -1.
         -4    1    5    5    0  503 -0.42998398819E+02  0.21661544513E+02  0.53299316808E+03  0.53516334145E+03  0.00000000000E+00 0.  1.
         -3    1    6    6    0  502 -0.82827141985E+02  0.11740395313E+02 -0.43523795625E+02  0.94300016527E+02  0.00000000000E+00 0.  1.
<mgrwt>
<rscale>  0 0.13376249E+04</rscale>
<asrwt>0</asrwt>
<pdfrwt beam="1">  1        2 0.24631327E+00 0.13376249E+04</pdfrwt>
<pdfrwt beam="2">  1       -2 0.42982750E-01 0.13376249E+04</pdfrwt>
<totfact> 0.55858924E+01</totfact>
</mgrwt>
</event>
<event>
12    1  0.1960998E-007  0.1364185E+04  0.7818608E-02  0.8980159E-01
          1   -1    0    0  501    0  0.00000000000E+00  0.00000000000E+00  0.84058902450E+03  0.84058902450E+03  0.00000000000E+00 0. -1.
         -1   -1    0    0    0  501 -0.00000000000E+00 -0.00000000000E+00 -0.55348096199E+03  0.55348096199E+03  0.00000000000E+00 0.  1.
         23    2    1    2    0    0  0.22666033503E+03  0.14993993898E+03  0.35161715166E+03  0.45397791912E+03  0.92760104200E+02 0.  0.
        254    2    1    2    0    0 -0.22666033503E+03 -0.14993993898E+03 -0.64509089149E+02  0.94009206738E+03  0.89763844603E+03 0.  0.
        -24    2    4    4    0    0 -0.42331027113E+03  0.22845987681E+03  0.54525745318E+02  0.49022664427E+03  0.77224380179E+02 0.  0.
         24    2    4    4    0    0  0.19664993610E+03 -0.37839981579E+03 -0.11903483447E+03  0.44986542311E+03  0.79699367223E+02 0.  0.
         11    1    3    3    0    0  0.16906489971E+03  0.13517130796E+03  0.32082768109E+03  0.38702018522E+03  0.00000000000E+00 0. -1.
        -11    1    3    3    0    0  0.57595435317E+02  0.14768631019E+02  0.30789470564E+02  0.66957733901E+02  0.00000000000E+00 0.  1.
          2    1    6    6  502    0  0.10078239522E+03 -0.11232863957E+03 -0.46090895315E+02  0.15779475620E+03  0.00000000000E+00 0. -1.
          1    1    5    5  503    0 -0.37380834289E+03  0.22116489552E+03  0.64812088905E+02  0.43914370665E+03  0.00000000000E+00 0. -1.
         -2    1    5    5    0  503 -0.49501928241E+02  0.72949812969E+01 -0.10286343587E+02  0.51082937622E+02  0.00000000000E+00 0.  1.
         -1    1    6    6    0  502  0.95867540882E+02 -0.26607117622E+03 -0.72943939152E+02  0.29207066691E+03  0.00000000000E+00 0.  1.
<mgrwt>
<rscale>  0 0.13641848E+04</rscale>
<asrwt>0</asrwt>
<pdfrwt beam="1">  1        1 0.12932139E+00 0.13641848E+04</pdfrwt>
<pdfrwt beam="2">  1       -1 0.85150917E-01 0.13641848E+04</pdfrwt>
<totfact> 0.27212629E+01</totfact>
</mgrwt>
</event>
<event>
12    1  0.1960998E-007  0.1175983E+04  0.7818608E-02  0.9134142E-01
         -2   -1    0    0    0  501 -0.00000000000E+00  0.00000000000E+00  0.84795289879E+02  0.84795289879E+02  0.00000000000E+00 0. -1.
          2   -1    0    0  501    0  0.00000000000E+00 -0.00000000000E+00 -0.40772772133E+04  0.40772772133E+04  0.00000000000E+00 0.  1.
         23    2    1    2    0    0  0.10732298225E+03  0.17348925643E+03 -0.47543218345E+03  0.52589139569E+03  0.94388846736E+02 0.  0.
        254    2    1    2    0    0 -0.10732298225E+03 -0.17348925643E+03 -0.35170497400E+04  0.36361811075E+04  0.90030962918E+03 0.  0.
        -24    2    4    4    0    0  0.96320482647E+02 -0.44954934111E+03 -0.27859992748E+04  0.28247825100E+04  0.78943169171E+02 0.  0.
         24    2    4    4    0    0 -0.20364346489E+03  0.27606008468E+03 -0.73105046515E+03  0.81139859750E+03  0.79076357287E+02 0.  0.
         13    1    3    3    0    0  0.42151050658E+01  0.31950606705E+02 -0.17672501046E+03  0.17963946588E+03  0.00000000000E+00 0.  1.
        -13    1    3    3    0    0  0.10310787718E+03  0.14153864972E+03 -0.29870717299E+03  0.34625192981E+03  0.00000000000E+00 0. -1.
          2    1    6    6  502    0  0.27401744412E+01  0.68495770979E+01 -0.25712523200E+01  0.78125924558E+01  0.00000000000E+00 0. -1.
          1    1    5    5  503    0  0.20819552178E+02 -0.21330325510E+02 -0.25068618164E+03  0.25245197208E+03  0.00000000000E+00 0. -1.
         -2    1    5    5    0  503  0.75500930469E+02 -0.42821901560E+03 -0.25353130932E+04  0.25723305379E+04  0.00000000000E+00 0.  1.
         -1    1    6    6    0  502 -0.20638363934E+03  0.26921050758E+03 -0.72847921283E+03  0.80358600504E+03  0.00000000000E+00 0.  1.
<mgrwt>
<rscale>  0 0.11759828E+04</rscale>
<asrwt>0</asrwt>
<pdfrwt beam="1">  1        2 0.62727338E+00 0.11759828E+04</pdfrwt>
<pdfrwt beam="2">  1       -2 0.13045430E-01 0.11759828E+04</pdfrwt>
<totfact> 0.13565130E+01</totfact>
</mgrwt>
</event>
<event>
12    1  0.1960998E-007  0.2088675E+04  0.7818608E-02  0.8566248E-01
         -2   -1    0    0    0  501 -0.00000000000E+00  0.00000000000E+00  0.15363180783E+04  0.15363180783E+04  0.00000000000E+00 0.  1.
          2   -1    0    0  501    0  0.00000000000E+00 -0.00000000000E+00 -0.70990577527E+03  0.70990577527E+03  0.00000000000E+00 0. -1.
         23    2    1    2    0    0  0.24859189118E+03  0.25296785744E+03  0.11636750030E+04  0.12199361731E+04  0.91181624561E+02 0.  0.
        254    2    1    2    0    0 -0.24859189118E+03 -0.25296785744E+03 -0.33726269993E+03  0.10262876805E+04  0.90206962540E+03 0.  0.
        -24    2    4    4    0    0  0.20349520074E+02 -0.52157650947E+03 -0.35733660635E+03  0.63746476150E+03  0.78839797839E+02 0.  0.
         24    2    4    4    0    0 -0.26894141125E+03  0.26860865203E+03  0.20073906411E+02  0.38882291897E+03  0.79373862001E+02 0.  0.
         11    1    3    3    0    0  0.13719496497E+03  0.17971109544E+03  0.83954569104E+03  0.86945701652E+03  0.00000000000E+00 0.  1.
        -11    1    3    3    0    0  0.11139692621E+03  0.73256762007E+02  0.32412931197E+03  0.35047915662E+03  0.00000000000E+00 0. -1.
          2    1    6    6  502    0 -0.16208727777E+02 -0.31436268692E-01 -0.95235547376E+01  0.18799519654E+02  0.00000000000E+00 0. -1.
          3    1    5    5  503    0  0.90379412680E+01 -0.88235130413E+01 -0.19788121945E+02  0.23475700945E+02  0.00000000000E+00 0. -1.
         -4    1    5    5    0  503  0.11311578806E+02 -0.51275299643E+03 -0.33754848440E+03  0.61398906056E+03  0.00000000000E+00 0.  1.
         -1    1    6    6    0  502 -0.25273268348E+03  0.26864008830E+03  0.29597461148E+02  0.37002339932E+03  0.00000000000E+00 0.  1.
<mgrwt>
<rscale>  0 0.20886753E+04</rscale>
<asrwt>0</asrwt>
<pdfrwt beam="1">  1        2 0.10921627E+00 0.20886753E+04</pdfrwt>
<pdfrwt beam="2">  1       -2 0.23635663E+00 0.20886753E+04</pdfrwt>
<totfact> 0.28959475E+00</totfact>
</mgrwt>
</event>
<event>
12    1  0.1960998E-007  0.2256879E+04  0.7818608E-02  0.8495120E-01
          3   -1    0    0  501    0  0.00000000000E+00  0.00000000000E+00  0.77369184413E+03  0.77369184413E+03  0.00000000000E+00 0. -1.
         -3   -1    0    0    0  501 -0.00000000000E+00 -0.00000000000E+00 -0.16458439932E+04  0.16458439932E+04  0.00000000000E+00 0.  1.
         23    2    1    2    0    0  0.53067724494E+03 -0.76487222407E+03 -0.55646641922E+03  0.10883497108E+04  0.90566880848E+02 0.  0.
        254    2    1    2    0    0 -0.53067724494E+03  0.76487222407E+03 -0.31568572985E+03  0.13311861265E+04  0.89763643300E+03 0.  0.
        -24    2    4    4    0    0 -0.55637593403E+02  0.65127664878E+03  0.12315072796E+03  0.66980253893E+03  0.78819568098E+02 0.  0.
         24    2    4    4    0    0 -0.47503965154E+03  0.11359557530E+03 -0.43883645781E+03  0.66138358755E+03  0.79272870019E+02 0.  0.
         13    1    3    3    0    0  0.20214371106E+03 -0.25974451493E+03 -0.15139405795E+03  0.36228366474E+03  0.00000000000E+00 0. -1.
        -13    1    3    3    0    0  0.32853353389E+03 -0.50512770914E+03 -0.40507236127E+03  0.72606604610E+03  0.00000000000E+00 0.  1.
          2    1    6    6  502    0 -0.47522339355E+03  0.11811605429E+03 -0.43103307760E+03  0.65236354132E+03  0.00000000000E+00 0. -1.
          3    1    5    5  503    0 -0.24604333593E+02  0.36356246242E+03  0.10783284357E+03  0.38001442007E+03  0.00000000000E+00 0. -1.
         -4    1    5    5    0  503 -0.31033259810E+02  0.28771418636E+03  0.15317884386E+02  0.28978811885E+03  0.00000000000E+00 0.  1.
         -1    1    6    6    0  502  0.18374200549E+00 -0.45204789920E+01 -0.78033802082E+01  0.90200462368E+01  0.00000000000E+00 0.  1.
<mgrwt>
<rscale>  0 0.22568793E+04</rscale>
<asrwt>0</asrwt>
<pdfrwt beam="1">  1        3 0.11902952E+00 0.22568793E+04</pdfrwt>
<pdfrwt beam="2">  1       -3 0.25320676E+00 0.22568793E+04</pdfrwt>
<totfact> 0.96090870E-02</totfact>
</mgrwt>
</event>
<event>
12    1  0.1960998E-007  0.2900701E+04  0.7818608E-02  0.8272669E-01
          2   -1    0    0  501    0  0.00000000000E+00  0.00000000000E+00  0.16343461207E+04  0.16343461207E+04  0.00000000000E+00 0.  1.
         -2   -1    0    0    0  501 -0.00000000000E+00 -0.00000000000E+00 -0.12870688884E+04  0.12870688884E+04  0.00000000000E+00 0. -1.
         23    2    1    2    0    0 -0.87087101827E+03 -0.97175289673E+03  0.61422434174E+02  0.13104270325E+04  0.10356770367E+03 0.  0.
        254    2    1    2    0    0  0.87087101827E+03  0.97175289673E+03  0.28585479810E+03  0.16109879766E+04  0.90047169440E+03 0.  0.
        -24    2    4    4    0    0  0.98157862050E+03  0.73564130968E+03  0.17940230625E+02  0.12290234581E+04  0.74243409665E+02 0.  0.
         24    2    4    4    0    0 -0.11070760224E+03  0.23611158705E+03  0.26791456748E+03  0.38196451854E+03  0.78190940793E+02 0.  0.
         11    1    3    3    0    0 -0.63138579985E+03 -0.67413479282E+03  0.85983504952E+02  0.92763080494E+03  0.00000000000E+00 0.  1.
        -11    1    3    3    0    0 -0.23948521841E+03 -0.29761810391E+03 -0.24561070779E+02  0.38279622753E+03  0.00000000000E+00 0. -1.
          4    1    6    6  502    0 -0.65107059931E+02  0.72637580762E+02  0.13418240037E+03  0.16589172360E+03  0.00000000000E+00 0. -1.
          3    1    5    5  503    0  0.59260254921E+03  0.47152132530E+03  0.39738082149E+02  0.75834639625E+03  0.00000000000E+00 0. -1.
         -4    1    5    5    0  503  0.38897607129E+03  0.26411998438E+03 -0.21797851523E+02  0.47067706182E+03  0.00000000000E+00 0.  1.
         -3    1    6    6    0  502 -0.45600542304E+02  0.16347400629E+03  0.13373216711E+03  0.21607279493E+03  0.00000000000E+00 0.  1.
<mgrwt>
<rscale>  0 0.29007006E+04</rscale>
<asrwt>0</asrwt>
<pdfrwt beam="1">  1        2 0.25143787E+00 0.29007006E+04</pdfrwt>
<pdfrwt beam="2">  1       -2 0.19801060E+00 0.29007006E+04</pdfrwt>
<totfact> 0.12623128E+00</totfact>
</mgrwt>
</event>
<event>
12    1  0.1960998E-007  0.1371700E+04  0.7818608E-02  0.8974562E-01
         -2   -1    0    0    0  501 -0.00000000000E+00  0.00000000000E+00  0.13057142006E+04  0.13057142006E+04  0.00000000000E+00 0.  1.
          2   -1    0    0  501    0  0.00000000000E+00 -0.00000000000E+00 -0.36025530682E+03  0.36025530682E+03  0.00000000000E+00 0. -1.
         23    2    1    2    0    0  0.47092628770E+02  0.37306215216E+03  0.36894211354E+03  0.53296690160E+03  0.80884794618E+02 0.  0.
        254    2    1    2    0    0 -0.47092628770E+02 -0.37306215216E+03  0.57651678028E+03  0.11330026059E+04  0.89996123355E+03 0.  0.
        -24    2    4    4    0    0 -0.12418085465E+03 -0.64106311845E+03  0.26913747926E+03  0.71072832203E+03  0.79479295996E+02 0.  0.
         24    2    4    4    0    0  0.77088225879E+02  0.26800096629E+03  0.30737930102E+03  0.42227428383E+03  0.77887249236E+02 0.  0.
         13    1    3    3    0    0  0.16889812343E+01  0.11454168507E+03  0.16355986319E+03  0.19968595124E+03  0.00000000000E+00 0.  1.
        -13    1    3    3    0    0  0.45403647536E+02  0.25852046709E+03  0.20538225034E+03  0.33328095035E+03  0.00000000000E+00 0. -1.
          4    1    6    6  502    0  0.22966637177E+02  0.20581636455E+03  0.21842778993E+03  0.30099591651E+03  0.00000000000E+00 0. -1.
          1    1    5    5  503    0 -0.77950856372E+02 -0.55125262517E+03  0.23100921118E+03  0.60276118689E+03  0.00000000000E+00 0. -1.
         -2    1    5    5    0  503 -0.46229998277E+02 -0.89810493271E+02  0.38128268083E+02  0.10796713514E+03  0.00000000000E+00 0.  1.
         -1    1    6    6    0  502  0.54121588702E+02  0.62184601736E+02  0.88951511082E+02  0.12127836732E+03  0.00000000000E+00 0.  1.
<mgrwt>
<rscale>  0 0.13717004E+04</rscale>
<asrwt>0</asrwt>
<pdfrwt beam="1">  1        2 0.55423894E-01 0.13717004E+04</pdfrwt>
<pdfrwt beam="2">  1       -2 0.20087911E+00 0.13717004E+04</pdfrwt>
<totfact> 0.11440741E+01</totfact>
</mgrwt>
</event>
<event>
12    1  0.1960998E-007  0.1361061E+04  0.7818608E-02  0.8982497E-01
         -2   -1    0    0    0  501 -0.00000000000E+00  0.00000000000E+00  0.40803399282E+03  0.40803399282E+03  0.00000000000E+00 0.  1.
          2   -1    0    0  501    0  0.00000000000E+00 -0.00000000000E+00 -0.11350078327E+04  0.11350078327E+04  0.00000000000E+00 0. -1.
         23    2    1    2    0    0 -0.35458749361E+03 -0.30562681861E+02 -0.73140857518E+02  0.37490856273E+03  0.92414702396E+02 0.  0.
        254    2    1    2    0    0  0.35458749361E+03  0.30562681861E+02 -0.65383298237E+03  0.11681332628E+04  0.90020630007E+03 0.  0.
        -24    2    4    4    0    0  0.41167238385E+03  0.40372749115E+03 -0.39989626068E+03  0.70606041441E+03  0.78321457901E+02 0.  0.
         24    2    4    4    0    0 -0.57084890231E+02 -0.37316480928E+03 -0.25393672169E+03  0.46207284839E+03  0.80726693349E+02 0.  0.
         13    1    3    3    0    0 -0.36030033250E+03 -0.30622250639E+02 -0.74105028790E+02  0.36911462600E+03  0.00000000000E+00 0.  1.
        -13    1    3    3    0    0  0.57128388870E+01  0.59568777963E-01  0.96417127153E+00  0.57939367298E+01  0.00000000000E+00 0. -1.
          2    1    6    6  502    0 -0.26905679588E+02 -0.33196380671E+03 -0.20354633825E+03  0.39032678153E+03  0.00000000000E+00 0. -1.
          3    1    5    5  503    0  0.28199960014E+03  0.31721586034E+03 -0.31500152663E+03  0.52855996662E+03  0.00000000000E+00 0. -1.
         -2    1    5    5    0  503  0.12967278371E+03  0.86511630807E+02 -0.84894734048E+02  0.17750044780E+03  0.00000000000E+00 0.  1.
         -1    1    6    6    0  502 -0.30179210643E+02 -0.41201002573E+02 -0.50390383436E+02  0.71746066867E+02  0.00000000000E+00 0.  1.
<mgrwt>
<rscale>  0 0.13610610E+04</rscale>
<asrwt>0</asrwt>
<pdfrwt beam="1">  1        2 0.17461659E+00 0.13610610E+04</pdfrwt>
<pdfrwt beam="2">  1       -2 0.62774460E-01 0.13610610E+04</pdfrwt>
<totfact> 0.47609802E+01</totfact>
</mgrwt>
</event>
<event>
12    1  0.1960998E-007  0.2811544E+04  0.7818608E-02  0.8299693E-01
         -2   -1    0    0    0  501 -0.00000000000E+00  0.00000000000E+00  0.66581995489E+03  0.66581995489E+03  0.00000000000E+00 0.  1.
          2   -1    0    0  501    0  0.00000000000E+00 -0.00000000000E+00 -0.29680630578E+04  0.29680630578E+04  0.00000000000E+00 0. -1.
         23    2    1    2    0    0 -0.39298012881E+01  0.50083317191E+03 -0.25274588854E+04  0.25782027092E+04  0.90727519731E+02 0.  0.
        254    2    1    2    0    0  0.39298012881E+01 -0.50083317191E+03  0.22521578252E+03  0.10556803035E+04  0.90160381821E+03 0.  0.
        -24    2    4    4    0    0 -0.25296004601E+02 -0.41096090990E+03  0.55965650468E+03  0.69909147661E+03  0.77361050406E+02 0.  0.
         24    2    4    4    0    0  0.29225805889E+02 -0.89872262016E+02 -0.33444072216E+03  0.35658882687E+03  0.79836229859E+02 0.  0.
         11    1    3    3    0    0 -0.28503674000E+01  0.28396159115E+03 -0.11999091759E+04  0.12330548813E+04  0.00000000000E+00 0.  1.
        -11    1    3    3    0    0 -0.10794338882E+01  0.21687158076E+03 -0.13275497095E+04  0.13451478279E+04  0.00000000000E+00 0. -1.
          4    1    6    6  502    0  0.30306389106E+01 -0.65306160141E+02 -0.10040193752E+03  0.11981080245E+03  0.00000000000E+00 0. -1.
          3    1    5    5  503    0  0.19621405095E+02 -0.87535715872E+02  0.89948263822E+02  0.12703618089E+03  0.00000000000E+00 0. -1.
         -4    1    5    5    0  503 -0.44917409696E+02 -0.32342519403E+03  0.46970824086E+03  0.57205529571E+03  0.00000000000E+00 0.  1.
         -3    1    6    6    0  502  0.26195166979E+02 -0.24566101875E+02 -0.23403878464E+03  0.23677802442E+03  0.00000000000E+00 0.  1.
<mgrwt>
<rscale>  0 0.28115445E+04</rscale>
<asrwt>0</asrwt>
<pdfrwt beam="1">  1        2 0.45662508E+00 0.28115445E+04</pdfrwt>
<pdfrwt beam="2">  1       -2 0.10243384E+00 0.28115445E+04</pdfrwt>
<totfact> 0.12356797E+00</totfact>
</mgrwt>
</event>
<event>
12    1  0.1960998E-007  0.2625249E+04  0.7818608E-02  0.8359675E-01
          1   -1    0    0  501    0  0.00000000000E+00  0.00000000000E+00  0.18660832372E+04  0.18660832372E+04  0.00000000000E+00 0. -1.
         -1   -1    0    0    0  501 -0.00000000000E+00 -0.00000000000E+00 -0.92331530199E+03  0.92331530199E+03  0.00000000000E+00 0.  1.
         23    2    1    2    0    0 -0.86364243134E+03 -0.76559775200E+03  0.30496337165E+03  0.11972609747E+04  0.91722497105E+02 0.  0.
        254    2    1    2    0    0  0.86364243134E+03  0.76559775200E+03  0.63780456355E+03  0.15921375644E+04  0.89223830659E+03 0.  0.
        -24    2    4    4    0    0  0.89617404152E+03  0.85424631322E+03  0.72892250499E+03  0.14389204031E+04  0.79367699755E+02 0.  0.
         24    2    4    4    0    0 -0.32531610177E+02 -0.88648561211E+02 -0.91117941439E+02  0.15321716138E+03  0.79095804075E+02 0.  0.
         11    1    3    3    0    0 -0.79150441271E+03 -0.72534847968E+03  0.29891726844E+03  0.11144331230E+04  0.00000000000E+00 0. -1.
        -11    1    3    3    0    0 -0.72138018633E+02 -0.40249272327E+02  0.60461032075E+01  0.82827851711E+02  0.00000000000E+00 0.  1.
          2    1    6    6  502    0  0.90461345644E+01  0.77962237451E+01  0.28646661719E+01  0.12280878125E+02  0.00000000000E+00 0. -1.
          1    1    5    5  503    0  0.50256911359E+03  0.50971809446E+03  0.38352009675E+03  0.81208122400E+03  0.00000000000E+00 0. -1.
         -2    1    5    5    0  503  0.39360492793E+03  0.34452821875E+03  0.34540240824E+03  0.62683917907E+03  0.00000000000E+00 0.  1.
         -1    1    6    6    0  502 -0.41577744741E+02 -0.96444784956E+02 -0.93982607611E+02  0.14093628325E+03  0.00000000000E+00 0.  1.
<mgrwt>
<rscale>  0 0.26252491E+04</rscale>
<asrwt>0</asrwt>
<pdfrwt beam="1">  1        1 0.28708973E+00 0.26252491E+04</pdfrwt>
<pdfrwt beam="2">  1       -1 0.14204851E+00 0.26252491E+04</pdfrwt>
<totfact> 0.13025266E+00</totfact>
</mgrwt>
</event>
<event>
12    1  0.1960998E-007  0.1931832E+04  0.7818608E-02  0.8639172E-01
          2   -1    0    0  501    0  0.00000000000E+00  0.00000000000E+00  0.12677272434E+04  0.12677272434E+04  0.00000000000E+00 0.  1.
         -2   -1    0    0    0  501 -0.00000000000E+00 -0.00000000000E+00 -0.73595771541E+03  0.73595771541E+03  0.00000000000E+00 0. -1.
         23    2    1    2    0    0 -0.57790175392E+03  0.48138924018E+03  0.23545426247E+03  0.79350216268E+03  0.92200513660E+02 0.  0.
        254    2    1    2    0    0  0.57790175392E+03 -0.48138924018E+03  0.29631526551E+03  0.12101827961E+04  0.90057405344E+03 0.  0.
        -24    2    4    4    0    0  0.89053816234E+02  0.20755783011E+03 -0.11762043457E+03  0.26606230937E+03  0.77095725003E+02 0.  0.
         24    2    4    4    0    0  0.48884793768E+03 -0.68894707029E+03  0.41393570008E+03  0.94412048676E+03  0.80002236715E+02 0.  0.
         13    1    3    3    0    0 -0.42718341453E+03  0.39838283871E+03  0.20311269703E+03  0.61842487298E+03  0.00000000000E+00 0.  1.
        -13    1    3    3    0    0 -0.15071833939E+03  0.83006401479E+02  0.32341565440E+02  0.17507728971E+03  0.00000000000E+00 0. -1.
          2    1    6    6  502    0  0.42377267438E+03 -0.56860371557E+03  0.37329577471E+03  0.80140077385E+03  0.00000000000E+00 0. -1.
          1    1    5    5  503    0 -0.56976812219E+00  0.74109677801E+02 -0.59799365313E+02  0.95228845794E+02  0.00000000000E+00 0. -1.
         -4    1    5    5    0  503  0.89623584356E+02  0.13344815231E+03 -0.57821069254E+02  0.17083346357E+03  0.00000000000E+00 0.  1.
         -1    1    6    6    0  502  0.65075263309E+02 -0.12034335472E+03  0.40639925374E+02  0.14271971291E+03  0.00000000000E+00 0.  1.
<mgrwt>
<rscale>  0 0.19318319E+04</rscale>
<asrwt>0</asrwt>
<pdfrwt beam="1">  1        2 0.19503496E+00 0.19318319E+04</pdfrwt>
<pdfrwt beam="2">  1       -2 0.11322426E+00 0.19318319E+04</pdfrwt>
<totfact> 0.98813151E+00</totfact>
</mgrwt>
</event>
<event>
12    1  0.1960998E-007  0.2172986E+04  0.7818608E-02  0.8529757E-01
         -2   -1    0    0    0  501 -0.00000000000E+00  0.00000000000E+00  0.69000105649E+03  0.69000105649E+03  0.00000000000E+00 0.  1.
          2   -1    0    0  501    0  0.00000000000E+00 -0.00000000000E+00 -0.17108190881E+04  0.17108190881E+04  0.00000000000E+00 0. -1.
         23    2    1    2    0    0  0.18901775865E+03 -0.54832358392E+03 -0.11805287020E+04  0.13184977141E+04  0.91661005578E+02 0.  0.
        254    2    1    2    0    0 -0.18901775865E+03  0.54832358392E+03  0.15971067039E+03  0.10823224305E+04  0.89973767269E+03 0.  0.
        -24    2    4    4    0    0  0.10441524474E+03  0.70333654889E+03  0.18726106451E+03  0.73991716648E+03  0.82618778924E+02 0.  0.
         24    2    4    4    0    0 -0.29343300339E+03 -0.15501296497E+03 -0.27550394127E+02  0.34240526406E+03  0.79689358460E+02 0.  0.
         13    1    3    3    0    0  0.18175048180E+03 -0.48357819577E+03 -0.10970808876E+04  0.12126283780E+04  0.00000000000E+00 0.  1.
        -13    1    3    3    0    0  0.72672768531E+01 -0.64745388146E+02 -0.83447814391E+02  0.10586933610E+03  0.00000000000E+00 0. -1.
          4    1    6    6  502    0 -0.26170324465E+03 -0.16131524518E+03 -0.34378282150E+02  0.30934295348E+03  0.00000000000E+00 0. -1.
          3    1    5    5  503    0 -0.36608708689E+00  0.24655133841E+03  0.79335735580E+02  0.25900165140E+03  0.00000000000E+00 0. -1.
         -4    1    5    5    0  503  0.10478133183E+03  0.45678521048E+03  0.10792532893E+03  0.48091551508E+03  0.00000000000E+00 0.  1.
         -3    1    6    6    0  502 -0.31729758748E+02  0.63022802102E+01  0.68278880225E+01  0.33062310580E+02  0.00000000000E+00 0.  1.
<mgrwt>
<rscale>  0 0.21729859E+04</rscale>
<asrwt>0</asrwt>
<pdfrwt beam="1">  1        2 0.26320293E+00 0.21729859E+04</pdfrwt>
<pdfrwt beam="2">  1       -2 0.10615401E+00 0.21729859E+04</pdfrwt>
<totfact> 0.63442996E+00</totfact>
</mgrwt>
</event>
<event>
12    1  0.1960998E-007  0.1904463E+04  0.7818608E-02  0.8652638E-01
         -1   -1    0    0    0  501 -0.00000000000E+00  0.00000000000E+00  0.62648789949E+03  0.62648789949E+03  0.00000000000E+00 0.  1.
          1   -1    0    0  501    0  0.00000000000E+00 -0.00000000000E+00 -0.14473465264E+04  0.14473465264E+04  0.00000000000E+00 0. -1.
         23    2    1    2    0    0 -0.72178539105E+03 -0.10562013102E+02 -0.16265403370E+03  0.74533063048E+03  0.89306814974E+02 0.  0.
        254    2    1    2    0    0  0.72178539105E+03  0.10562013102E+02 -0.65820459323E+03  0.13285037954E+04  0.90033512708E+03 0.  0.
        -24    2    4    4    0    0  0.52762397749E+03  0.12345379110E+03 -0.85743890377E+03  0.10174257388E+04  0.79534646947E+02 0.  0.
         24    2    4    4    0    0  0.19416141356E+03 -0.11289177800E+03  0.19923431054E+03  0.31107805665E+03  0.81437330363E+02 0.  0.
         13    1    3    3    0    0 -0.66659762695E+03 -0.80469420978E+00 -0.12610237311E+03  0.67842085190E+03  0.00000000000E+00 0.  1.
        -13    1    3    3    0    0 -0.55187764102E+02 -0.97573188926E+01 -0.36551660583E+02  0.66909778582E+02  0.00000000000E+00 0. -1.
          4    1    6    6  502    0  0.51192788554E+02 -0.52348050923E+02  0.10958403558E+03  0.13179408518E+03  0.00000000000E+00 0. -1.
          3    1    5    5  503    0  0.31737218144E+03  0.38091414748E+02 -0.46924701548E+03  0.56777532438E+03  0.00000000000E+00 0. -1.
         -4    1    5    5    0  503  0.21025179606E+03  0.85362376356E+02 -0.38819188828E+03  0.44965041440E+03  0.00000000000E+00 0.  1.
         -3    1    6    6    0  502  0.14296862501E+03 -0.60543727078E+02  0.89650274963E+02  0.17928397147E+03  0.00000000000E+00 0.  1.
<mgrwt>
<rscale>  0 0.19044633E+04</rscale>
<asrwt>0</asrwt>
<pdfrwt beam="1">  1        1 0.22266870E+00 0.19044633E+04</pdfrwt>
<pdfrwt beam="2">  1       -1 0.96382753E-01 0.19044633E+04</pdfrwt>
<totfact> 0.68993855E+00</totfact>
</mgrwt>
</event>
<event>
12    1  0.1960998E-007  0.2404709E+04  0.7818608E-02  0.8437743E-01
          2   -1    0    0  501    0  0.00000000000E+00  0.00000000000E+00  0.63770109146E+03  0.63770109146E+03  0.00000000000E+00 0. -1.
         -2   -1    0    0    0  501 -0.00000000000E+00 -0.00000000000E+00 -0.22669802221E+04  0.22669802221E+04  0.00000000000E+00 0.  1.
         23    2    1    2    0    0  0.41626385915E+03 -0.39237797354E+03  0.33470573930E+03  0.66917364318E+03  0.92354524839E+02 0.  0.
        254    2    1    2    0    0 -0.41626385915E+03  0.39237797354E+03 -0.19639848700E+04  0.22355076704E+04  0.90167727066E+03 0.  0.
        -24    2    4    4    0    0 -0.74770444186E+02  0.53230165902E+03 -0.16707561323E+04  0.17569171564E+04  0.79976030156E+02 0.  0.
         24    2    4    4    0    0 -0.34149341496E+03 -0.13992368548E+03 -0.29322873764E+03  0.47859051396E+03  0.82881827015E+02 0.  0.
         11    1    3    3    0    0  0.20837114832E+03 -0.22657096621E+03  0.22609703804E+03  0.38193298992E+03  0.00000000000E+00 0. -1.
        -11    1    3    3    0    0  0.20789271083E+03 -0.16580700732E+03  0.10860870126E+03  0.28724065326E+03  0.00000000000E+00 0.  1.
          4    1    6    6  502    0 -0.19741305345E+03 -0.52495999535E+02 -0.20051120661E+03  0.28623851526E+03  0.00000000000E+00 0. -1.
          1    1    5    5  503    0 -0.11276579553E+02  0.29346177694E+03 -0.99258878671E+03  0.10351229276E+04  0.00000000000E+00 0. -1.
         -2    1    5    5    0  503 -0.63493864634E+02  0.23883988208E+03 -0.67816734561E+03  0.72179422883E+03  0.00000000000E+00 0.  1.
         -3    1    6    6    0  502 -0.14408036152E+03 -0.87427685944E+02 -0.92717531027E+02  0.19235199870E+03  0.00000000000E+00 0.  1.
<mgrwt>
<rscale>  0 0.24047085E+04</rscale>
<asrwt>0</asrwt>
<pdfrwt beam="1">  1        2 0.98107861E-01 0.24047085E+04</pdfrwt>
<pdfrwt beam="2">  1       -2 0.34876619E+00 0.24047085E+04</pdfrwt>
<totfact> 0.65594182E-01</totfact>
</mgrwt>
</event>
<event>
12    1  0.1960998E-007  0.1641540E+04  0.7818608E-02  0.8795427E-01
         -1   -1    0    0    0  501 -0.00000000000E+00  0.00000000000E+00  0.20259069607E+03  0.20259069607E+03  0.00000000000E+00 0. -1.
          1   -1    0    0  501    0  0.00000000000E+00 -0.00000000000E+00 -0.33252433801E+04  0.33252433801E+04  0.00000000000E+00 0.  1.
         23    2    1    2    0    0 -0.45230503555E+03  0.34530831797E+03 -0.10574901783E+04  0.12042552926E+04  0.90153496675E+02 0.  0.
        254    2    1    2    0    0  0.45230503555E+03 -0.34530831797E+03 -0.20651625058E+04  0.23235787836E+04  0.90016915556E+03 0.  0.
        -24    2    4    4    0    0  0.69501113278E+03 -0.36728886834E+03 -0.17262232443E+04  0.18984830030E+04  0.80308380887E+02 0.  0.
         24    2    4    4    0    0 -0.24270609723E+03  0.21980550365E+02 -0.33893926148E+03  0.42509578058E+03  0.80232197229E+02 0.  0.
         13    1    3    3    0    0 -0.38248401007E+03  0.32155288956E+03 -0.95705042870E+03  0.10796461466E+04  0.00000000000E+00 0.  1.
        -13    1    3    3    0    0 -0.69821025478E+02  0.23755428415E+02 -0.10043974958E+03  0.12460914602E+03  0.00000000000E+00 0. -1.
          2    1    6    6  502    0 -0.16087669874E+03  0.31555226418E+01 -0.15746106085E+03  0.22513386064E+03  0.00000000000E+00 0. -1.
          1    1    5    5  503    0  0.45139220601E+03 -0.20565218700E+03 -0.11467442865E+04  0.12494279508E+04  0.00000000000E+00 0. -1.
         -4    1    5    5    0  503  0.24361892677E+03 -0.16163668133E+03 -0.57947895775E+03  0.64905505214E+03  0.00000000000E+00 0.  1.
         -1    1    6    6    0  502 -0.81829398486E+02  0.18825027723E+02 -0.18147820063E+03  0.19996191994E+03  0.00000000000E+00 0.  1.
<mgrwt>
<rscale>  0 0.16415400E+04</rscale>
<asrwt>0</asrwt>
<pdfrwt beam="1">  1        1 0.51157590E+00 0.16415400E+04</pdfrwt>
<pdfrwt beam="2">  1       -1 0.31167800E-01 0.16415400E+04</pdfrwt>
<totfact> 0.31389129E+00</totfact>
</mgrwt>
</event>
<event>
12    1  0.1960998E-007  0.1665797E+04  0.7818608E-02  0.8781115E-01
          2   -1    0    0  501    0  0.00000000000E+00  0.00000000000E+00  0.19076376940E+04  0.19076376940E+04  0.00000000000E+00 0. -1.
         -2   -1    0    0    0  501 -0.00000000000E+00 -0.00000000000E+00 -0.36365401427E+03  0.36365401427E+03  0.00000000000E+00 0.  1.
         23    2    1    2    0    0 -0.31535178884E+02 -0.34129437839E+03 -0.97393824043E+02  0.36805025385E+03  0.92190629499E+02 0.  0.
        254    2    1    2    0    0  0.31535178884E+02  0.34129437839E+03  0.16413775038E+04  0.19032414545E+04  0.90040635477E+03 0.  0.
        -24    2    4    4    0    0 -0.18318945556E+03 -0.20466499737E+03  0.21215523024E+03  0.35612232294E+03  0.79794294281E+02 0.  0.
         24    2    4    4    0    0  0.21472463444E+03  0.54595937576E+03  0.14292222736E+04  0.15471191315E+04  0.81993848659E+02 0.  0.
         11    1    3    3    0    0 -0.15166567416E+02 -0.16353397823E+03 -0.94565880953E+02  0.18951541532E+03  0.00000000000E+00 0.  1.
        -11    1    3    3    0    0 -0.16368611467E+02 -0.17776040016E+03 -0.28279430908E+01  0.17853483853E+03  0.00000000000E+00 0. -1.
          4    1    6    6  502    0  0.88149101339E+02  0.32680932927E+03  0.85735835242E+03  0.92175807360E+03  0.00000000000E+00 0. -1.
          3    1    5    5  503    0 -0.79744615112E+02 -0.14607474314E+03  0.11120546770E+03  0.20015916234E+03  0.00000000000E+00 0. -1.
         -4    1    5    5    0  503 -0.10344484045E+03 -0.58590254227E+02  0.10094976254E+03  0.15596316059E+03  0.00000000000E+00 0.  1.
         -3    1    6    6    0  502  0.12657553310E+03  0.21915004649E+03  0.57186392116E+03  0.62536105793E+03  0.00000000000E+00 0.  1.
<mgrwt>
<rscale>  0 0.16657972E+04</rscale>
<asrwt>0</asrwt>
<pdfrwt beam="1">  1        2 0.29348272E+00 0.16657972E+04</pdfrwt>
<pdfrwt beam="2">  1       -2 0.55946773E-01 0.16657972E+04</pdfrwt>
<totfact> 0.21525552E+01</totfact>
</mgrwt>
</event>
<event>
12    1  0.1960998E-007  0.4026661E+04  0.7818608E-02  0.7999190E-01
          2   -1    0    0  501    0  0.00000000000E+00  0.00000000000E+00  0.24371025548E+04  0.24371025548E+04  0.00000000000E+00 0.  1.
         -2   -1    0    0    0  501 -0.00000000000E+00 -0.00000000000E+00 -0.16632452093E+04  0.16632452093E+04  0.00000000000E+00 0. -1.
         23    2    1    2    0    0  0.16224257819E+04  0.40870801300E+03  0.13093954840E+04  0.21267156580E+04  0.95369275040E+02 0.  0.
        254    2    1    2    0    0 -0.16224257819E+04 -0.40870801300E+03 -0.53553813852E+03  0.19736321062E+04  0.89950816275E+03 0.  0.
        -24    2    4    4    0    0 -0.14439966153E+04 -0.42576766229E+03 -0.11796390800E+03  0.15122172547E+04  0.80505989529E+02 0.  0.
         24    2    4    4    0    0 -0.17842916659E+03  0.17059649294E+02 -0.41757423052E+03  0.46141485148E+03  0.80046411835E+02 0.  0.
         13    1    3    3    0    0  0.99317603107E+03  0.28191734638E+03  0.76309234352E+03  0.12838169432E+04  0.00000000000E+00 0. -1.
        -13    1    3    3    0    0  0.62924975087E+03  0.12679066662E+03  0.54630314048E+03  0.84289871479E+03  0.00000000000E+00 0.  1.
          2    1    6    6  502    0 -0.12909781421E+03  0.39310069158E+02 -0.23503024251E+03  0.27101797370E+03  0.00000000000E+00 0. -1.
          1    1    5    5  503    0 -0.10555675266E+04 -0.32026807485E+03 -0.51674752276E+02  0.11042937666E+04  0.00000000000E+00 0. -1.
         -2    1    5    5    0  503 -0.38842908873E+03 -0.10549958745E+03 -0.66289155723E+02  0.40792348803E+03  0.00000000000E+00 0.  1.
         -1    1    6    6    0  502 -0.49331352376E+02 -0.22250419864E+02 -0.18254398801E+03  0.19039687778E+03  0.00000000000E+00 0.  1.
<mgrwt>
<rscale>  0 0.40266607E+04</rscale>
<asrwt>0</asrwt>
<pdfrwt beam="1">  1        2 0.37493885E+00 0.40266607E+04</pdfrwt>
<pdfrwt beam="2">  1       -2 0.25588388E+00 0.40266607E+04</pdfrwt>
<totfact> 0.17618219E-01</totfact>
</mgrwt>
</event>
<event>
12    1  0.1960998E-007  0.3666543E+04  0.7818608E-02  0.8075417E-01
          2   -1    0    0  501    0  0.00000000000E+00  0.00000000000E+00  0.22855899063E+04  0.22855899063E+04  0.00000000000E+00 0. -1.
         -2   -1    0    0    0  501 -0.00000000000E+00 -0.00000000000E+00 -0.14704668312E+04  0.14704668312E+04  0.00000000000E+00 0.  1.
         23    2    1    2    0    0 -0.14354886407E+04  0.94790635912E+03  0.28987523896E+03  0.17468982142E+04  0.92041367813E+02 0.  0.
        254    2    1    2    0    0  0.14354886407E+04 -0.94790635912E+03  0.52524783614E+03  0.20091585233E+04  0.89536505349E+03 0.  0.
        -24    2    4    4    0    0  0.50028218321E+03 -0.79935385481E+03  0.47152738196E+03  0.10575074093E+04  0.82067049859E+02 0.  0.
         24    2    4    4    0    0  0.93520645751E+03 -0.14855250431E+03  0.53720454177E+02  0.95165111402E+03  0.77942228017E+02 0.  0.
         11    1    3    3    0    0 -0.12415790754E+04  0.80834687609E+03  0.21853683693E+03  0.14975652312E+04  0.00000000000E+00 0. -1.
        -11    1    3    3    0    0 -0.19390956533E+03  0.13955948303E+03  0.71338402027E+02  0.24933298304E+03  0.00000000000E+00 0.  1.
          2    1    6    6  502    0  0.30529959585E+03 -0.83057533989E+02  0.43322139018E+01  0.31642560778E+03  0.00000000000E+00 0. -1.
          1    1    5    5  503    0 -0.24095798708E+01 -0.12613473503E+02  0.47018118724E+01  0.13675263210E+02  0.00000000000E+00 0. -1.
         -2    1    5    5    0  503  0.50269176308E+03 -0.78674038130E+03  0.46682557009E+03  0.10438321460E+04  0.00000000000E+00 0.  1.
         -1    1    6    6    0  502  0.62990686165E+03 -0.65494970324E+02  0.49388240275E+02  0.63522550624E+03  0.00000000000E+00 0.  1.
<mgrwt>
<rscale>  0 0.36665429E+04</rscale>
<asrwt>0</asrwt>
<pdfrwt beam="1">  1        2 0.35162922E+00 0.36665429E+04</pdfrwt>
<pdfrwt beam="2">  1       -2 0.22622567E+00 0.36665429E+04</pdfrwt>
<totfact> 0.33812382E-01</totfact>
</mgrwt>
</event>
<event>
12    1  0.2024960E-007  0.3688040E+04  0.7818608E-02  0.8070617E-01
          1   -1    0    0  501    0  0.00000000000E+00  0.00000000000E+00  0.19788191072E+04  0.19788191072E+04  0.00000000000E+00 0. -1.
         -1   -1    0    0    0  501 -0.00000000000E+00 -0.00000000000E+00 -0.17184035620E+04  0.17184035620E+04  0.00000000000E+00 0.  1.
         23    2    1    2    0    0  0.11090563532E+04 -0.12004736113E+03  0.14517464177E+04  0.18332720193E+04  0.94346552354E+02 0.  0.
        254    2    1    2    0    0 -0.11090563532E+04  0.12004736113E+03 -0.11913308725E+04  0.18639506499E+04  0.90034738523E+03 0.  0.
        -24    2    4    4    0    0 -0.37359715050E+02 -0.27308681365E+03 -0.20813020020E+03  0.35526842017E+03  0.83218471701E+02 0.  0.
         24    2    4    4    0    0 -0.10716966382E+04  0.39313417479E+03 -0.98320067230E+03  0.15086822298E+04  0.79689050448E+02 0.  0.
         13    1    3    3    0    0  0.65157275532E+03 -0.11274539716E+03  0.82555206068E+03  0.10577309606E+04  0.00000000000E+00 0. -1.
        -13    1    3    3    0    0  0.45748359792E+03 -0.73019639719E+01  0.62619435700E+03  0.77554105873E+03  0.00000000000E+00 0.  1.
          2    1    6    6  502    0 -0.88085347457E+03  0.34737857506E+03 -0.78789971044E+03  0.12318119466E+04  0.00000000000E+00 0. -1.
          3    1    5    5  503    0 -0.47059541377E+02 -0.24721586114E+03 -0.20972987450E+03  0.32759258644E+03  0.00000000000E+00 0. -1.
         -4    1    5    5    0  503  0.96998263268E+01 -0.25870952518E+02  0.15996742925E+01  0.27675833733E+02  0.00000000000E+00 0.  1.
         -1    1    6    6    0  502 -0.19084316361E+03  0.45755599725E+02 -0.19530096187E+03  0.27687028318E+03  0.00000000000E+00 0.  1.
<mgrwt>
<rscale>  0 0.36880400E+04</rscale>
<asrwt>0</asrwt>
<pdfrwt beam="1">  1        1 0.30443371E+00 0.36880400E+04</pdfrwt>
<pdfrwt beam="2">  1       -1 0.26436978E+00 0.36880400E+04</pdfrwt>
<totfact> 0.13905308E-01</totfact>
</mgrwt>
</event>
<event>
12    1  0.1960998E-007  0.1760536E+04  0.7818608E-02  0.8727572E-01
          2   -1    0    0  501    0  0.00000000000E+00  0.00000000000E+00  0.23211078570E+04  0.23211078570E+04  0.00000000000E+00 0. -1.
         -2   -1    0    0    0  501 -0.00000000000E+00 -0.00000000000E+00 -0.33383684995E+03  0.33383684995E+03  0.00000000000E+00 0.  1.
         23    2    1    2    0    0 -0.45015438783E+03 -0.39044440448E+03  0.10831842260E+04  0.12395507445E+04  0.90067613065E+02 0.  0.
        254    2    1    2    0    0  0.45015438783E+03  0.39044440448E+03  0.90408678101E+03  0.14153939624E+04  0.91152693614E+03 0.  0.
        -24    2    4    4    0    0  0.62841270684E+03  0.93481687251E+02  0.83649642244E+03  0.10535301148E+04  0.80981985587E+02 0.  0.
         24    2    4    4    0    0 -0.17825831901E+03  0.29696271723E+03  0.67590358573E+02  0.36186384763E+03  0.80088101025E+02 0.  0.
         11    1    3    3    0    0 -0.18038021780E+03 -0.19566410650E+03  0.55110693879E+03  0.61199699634E+03  0.00000000000E+00 0. -1.
        -11    1    3    3    0    0 -0.26977417003E+03 -0.19478029798E+03  0.53207728723E+03  0.62755374820E+03  0.00000000000E+00 0.  1.
          4    1    6    6  502    0 -0.63671977366E+02  0.13648532084E+03  0.66595905614E+02  0.16467355025E+03  0.00000000000E+00 0. -1.
          1    1    5    5  503    0  0.34251114431E+03  0.10270267064E+02  0.44182096953E+03  0.55912890417E+03  0.00000000000E+00 0. -1.
         -2    1    5    5    0  503  0.28590156253E+03  0.83211420187E+02  0.39467545291E+03  0.49440121059E+03  0.00000000000E+00 0.  1.
         -3    1    6    6    0  502 -0.11458634165E+03  0.16047739639E+03  0.99445295887E+00  0.19719029738E+03  0.00000000000E+00 0.  1.
<mgrwt>
<rscale>  0 0.17605355E+04</rscale>
<asrwt>0</asrwt>
<pdfrwt beam="1">  1        2 0.35709351E+00 0.17605355E+04</pdfrwt>
<pdfrwt beam="2">  1       -2 0.51359517E-01 0.17605355E+04</pdfrwt>
<totfact> 0.14970303E+01</totfact>
</mgrwt>
</event>
<event>
12    1  0.1960998E-007  0.1226290E+04  0.7818608E-02  0.9090151E-01
         -1   -1    0    0    0  501 -0.00000000000E+00  0.00000000000E+00  0.56356894848E+03  0.56356894848E+03  0.00000000000E+00 0.  1.
          1   -1    0    0  501    0  0.00000000000E+00 -0.00000000000E+00 -0.66708194128E+03  0.66708194128E+03  0.00000000000E+00 0. -1.
         23    2    1    2    0    0  0.14867919380E+03 -0.19743226341E+03  0.92100750360E+02  0.28122049661E+03  0.97557255978E+02 0.  0.
        254    2    1    2    0    0 -0.14867919380E+03  0.19743226341E+03 -0.19561374317E+03  0.94943039315E+03  0.89558267827E+03 0.  0.
        -24    2    4    4    0    0 -0.51400833124E+03  0.14315863324E+03 -0.40686317610E+02  0.54110064175E+03  0.80221999479E+02 0.  0.
         24    2    4    4    0    0  0.36532913744E+03  0.54273630165E+02 -0.15492742556E+03  0.40832975141E+03  0.79496371607E+02 0.  0.
         13    1    3    3    0    0  0.12356118662E+03 -0.14538649828E+03  0.24628984318E+02  0.19238291917E+03  0.00000000000E+00 0. -1.
        -13    1    3    3    0    0  0.25118007181E+02 -0.52045765132E+02  0.67471766042E+02  0.88837577442E+02  0.00000000000E+00 0.  1.
          2    1    6    6  502    0  0.35889868735E+03  0.38869956246E+02 -0.14603372143E+03  0.38941621573E+03  0.00000000000E+00 0. -1.
          1    1    5    5  503    0 -0.37251791862E+03  0.10012366619E+03 -0.65146329438E+02  0.39120121736E+03  0.00000000000E+00 0. -1.
         -2    1    5    5    0  503 -0.14149041262E+03  0.43034967053E+02  0.24460011828E+02  0.14989942439E+03  0.00000000000E+00 0.  1.
         -1    1    6    6    0  502  0.64304500895E+01  0.15403673919E+02 -0.88937041232E+01  0.18913535671E+02  0.00000000000E+00 0.  1.
<mgrwt>
<rscale>  0 0.12262898E+04</rscale>
<asrwt>0</asrwt>
<pdfrwt beam="1">  1        1 0.10262799E+00 0.12262898E+04</pdfrwt>
<pdfrwt beam="2">  1       -1 0.86702916E-01 0.12262898E+04</pdfrwt>
<totfact> 0.37972354E+01</totfact>
</mgrwt>
</event>
<event>
12    1  0.1960998E-007  0.3828681E+04  0.7818608E-02  0.8040028E-01
         -2   -1    0    0    0  501 -0.00000000000E+00  0.00000000000E+00  0.15396807025E+04  0.15396807025E+04  0.00000000000E+00 0.  1.
          2   -1    0    0  501    0  0.00000000000E+00 -0.00000000000E+00 -0.23801680161E+04  0.23801680161E+04  0.00000000000E+00 0. -1.
         23    2    1    2    0    0  0.42220809826E+03  0.14065216626E+04  0.68099872941E+03  0.16213853831E+04  0.92565789054E+02 0.  0.
        254    2    1    2    0    0 -0.42220809826E+03 -0.14065216626E+04 -0.15214860431E+04  0.22984633355E+04  0.90080578367E+03 0.  0.
        -24    2    4    4    0    0  0.43966300181E+02 -0.39997021563E+03 -0.97840775409E+03  0.10608423513E+04  0.78711829217E+02 0.  0.
         24    2    4    4    0    0 -0.46617439844E+03 -0.10065514470E+04 -0.54307828898E+03  0.12376209843E+04  0.79418433149E+02 0.  0.
         11    1    3    3    0    0  0.26683983476E+03  0.73266686491E+03  0.34905042339E+03  0.85430698839E+03  0.00000000000E+00 0.  1.
        -11    1    3    3    0    0  0.15536826350E+03  0.67385479771E+03  0.33194830602E+03  0.76707839467E+03  0.00000000000E+00 0. -1.
          4    1    6    6  502    0 -0.16686108673E+03 -0.29479134910E+03 -0.13905372739E+03  0.36617004365E+03  0.00000000000E+00 0. -1.
          3    1    5    5  503    0 -0.12402341285E+02 -0.10847071505E+02 -0.48688770342E+02  0.51401102974E+02  0.00000000000E+00 0. -1.
         -4    1    5    5    0  503  0.56368641467E+02 -0.38912314413E+03 -0.92971898375E+03  0.10094412483E+04  0.00000000000E+00 0.  1.
         -3    1    6    6    0  502 -0.29931331170E+03 -0.71176009789E+03 -0.40402456159E+03  0.87145094060E+03  0.00000000000E+00 0.  1.
<mgrwt>
<rscale>  0 0.38286806E+04</rscale>
<asrwt>0</asrwt>
<pdfrwt beam="1">  1        2 0.36617969E+00 0.38286806E+04</pdfrwt>
<pdfrwt beam="2">  1       -2 0.23687396E+00 0.38286806E+04</pdfrwt>
<totfact> 0.25286736E-01</totfact>
</mgrwt>
</event>
<event>
12    1  0.1960998E-007  0.2231798E+04  0.7818608E-02  0.8505308E-01
          3   -1    0    0  501    0  0.00000000000E+00  0.00000000000E+00  0.93703243634E+03  0.93703243634E+03  0.00000000000E+00 0. -1.
         -3   -1    0    0    0  501 -0.00000000000E+00 -0.00000000000E+00 -0.13289086263E+04  0.13289086263E+04  0.00000000000E+00 0.  1.
         23    2    1    2    0    0 -0.68000029796E+02  0.91611039372E+03 -0.32696572898E+03  0.97941632630E+03  0.92018991352E+02 0.  0.
        254    2    1    2    0    0  0.68000029796E+02 -0.91611039372E+03 -0.64910461023E+02  0.12865247364E+04  0.89835976747E+03 0.  0.
        -24    2    4    4    0    0  0.21444312309E+03 -0.96569156730E+03  0.15737984096E+03  0.10047878286E+04  0.79272377969E+02 0.  0.
         24    2    4    4    0    0 -0.14644309329E+03  0.49581173585E+02 -0.22229030198E+03  0.28173690780E+03  0.77838515611E+02 0.  0.
         13    1    3    3    0    0 -0.62411344163E+02  0.40173111359E+03 -0.11036015394E+03  0.42126289545E+03  0.00000000000E+00 0. -1.
        -13    1    3    3    0    0 -0.55886856326E+01  0.51437928013E+03 -0.21660557504E+03  0.55815343085E+03  0.00000000000E+00 0.  1.
          4    1    6    6  502    0 -0.43400888491E+01  0.11167605659E+01 -0.61814384370E+02  0.61976621725E+02  0.00000000000E+00 0. -1.
          1    1    5    5  503    0  0.28673821225E+02 -0.20303815816E+03  0.45950107387E+01  0.20510435348E+03  0.00000000000E+00 0. -1.
         -2    1    5    5    0  503  0.18576930186E+03 -0.76265340914E+03  0.15278483022E+03  0.79968347509E+03  0.00000000000E+00 0.  1.
         -3    1    6    6    0  502 -0.14210300444E+03  0.48464413020E+02 -0.16047591761E+03  0.21976028607E+03  0.00000000000E+00 0.  1.
<mgrwt>
<rscale>  0 0.22317979E+04</rscale>
<asrwt>0</asrwt>
<pdfrwt beam="1">  1        3 0.14415884E+00 0.22317979E+04</pdfrwt>
<pdfrwt beam="2">  1       -3 0.20444748E+00 0.22317979E+04</pdfrwt>
<totfact> 0.11702263E-01</totfact>
</mgrwt>
</event>
<event>
12    1  0.1960998E-007  0.2080942E+04  0.7818608E-02  0.8569685E-01
          2   -1    0    0  501    0  0.00000000000E+00  0.00000000000E+00  0.19769947046E+04  0.19769947046E+04  0.00000000000E+00 0. -1.
         -2   -1    0    0    0  501 -0.00000000000E+00 -0.00000000000E+00 -0.54758856337E+03  0.54758856337E+03  0.00000000000E+00 0.  1.
         23    2    1    2    0    0  0.21788851679E+03 -0.49913759494E+03  0.13715411046E+04  0.14784203818E+04  0.89376055958E+02 0.  0.
        254    2    1    2    0    0 -0.21788851679E+03  0.49913759494E+03  0.57865036678E+02  0.10461628862E+04  0.89134430918E+03 0.  0.
        -24    2    4    4    0    0 -0.27131813497E+03  0.72826524454E+03 -0.32030193205E+02  0.78185776384E+03  0.79321074284E+02 0.  0.
         24    2    4    4    0    0  0.53429618173E+02 -0.22912764960E+03  0.89895229884E+02  0.26430512234E+03  0.80136392676E+02 0.  0.
         11    1    3    3    0    0  0.10610748079E+03 -0.13986567088E+03  0.42412693606E+03  0.45902599193E+03  0.00000000000E+00 0. -1.
        -11    1    3    3    0    0  0.11178103601E+03 -0.35927192406E+03  0.94741416853E+03  0.10193943899E+04  0.00000000000E+00 0.  1.
          4    1    6    6  502    0  0.21662446395E+02 -0.15523987841E+02 -0.70840080098E+01  0.27576057583E+02  0.00000000000E+00 0. -1.
          1    1    5    5  503    0 -0.17867219986E+03  0.39010392032E+03  0.65051983813E+01  0.42912368993E+03  0.00000000000E+00 0. -1.
         -2    1    5    5    0  503 -0.92645935107E+02  0.33816132422E+03 -0.38535391587E+02  0.35273407391E+03  0.00000000000E+00 0.  1.
         -3    1    6    6    0  502  0.31767171778E+02 -0.21360366176E+03  0.96979237894E+02  0.23672906476E+03  0.00000000000E+00 0.  1.
<mgrwt>
<rscale>  0 0.20809418E+04</rscale>
<asrwt>0</asrwt>
<pdfrwt beam="1">  1        2 0.30415303E+00 0.20809418E+04</pdfrwt>
<pdfrwt beam="2">  1       -2 0.84244395E-01 0.20809418E+04</pdfrwt>
<totfact> 0.78090042E+00</totfact>
</mgrwt>
</event>
<event>
12    1  0.1960998E-007  0.3411973E+04  0.7818608E-02  0.8134974E-01
          2   -1    0    0  501    0  0.00000000000E+00  0.00000000000E+00  0.24203875391E+04  0.24203875391E+04  0.00000000000E+00 0. -1.
         -2   -1    0    0    0  501 -0.00000000000E+00 -0.00000000000E+00 -0.12024480934E+04  0.12024480934E+04  0.00000000000E+00 0.  1.
         23    2    1    2    0    0  0.86257601313E+03 -0.10392533191E+04  0.14484889245E+04  0.19824726998E+04  0.89403587206E+02 0.  0.
        254    2    1    2    0    0 -0.86257601313E+03  0.10392533191E+04 -0.23054947886E+03  0.16403629327E+04  0.90197153456E+03 0.  0.
        -24    2    4    4    0    0 -0.74715943775E+03  0.80754743823E+03  0.21028444160E+03  0.11228656433E+04  0.78915245728E+02 0.  0.
         24    2    4    4    0    0 -0.11541657538E+03  0.23170588082E+03 -0.44083392047E+03  0.51749728943E+03  0.80375979368E+02 0.  0.
         11    1    3    3    0    0  0.25129280679E+03 -0.36333765948E+03  0.49670248701E+03  0.66473730913E+03  0.00000000000E+00 0.  1.
        -11    1    3    3    0    0  0.61128320634E+03 -0.67591565958E+03  0.95178643749E+03  0.13177353907E+04  0.00000000000E+00 0. -1.
          4    1    6    6  502    0 -0.37298428769E+01  0.82021437736E+02 -0.10575296648E+03  0.13388471868E+03  0.00000000000E+00 0. -1.
          1    1    5    5  503    0 -0.26384486308E+03  0.29406750146E+03  0.11371205413E+03  0.41112071031E+03  0.00000000000E+00 0. -1.
         -2    1    5    5    0  503 -0.48331457468E+03  0.51347993677E+03  0.96572387476E+02  0.71174493295E+03  0.00000000000E+00 0.  1.
         -3    1    6    6    0  502 -0.11168673250E+03  0.14968444309E+03 -0.33508095398E+03  0.38361257076E+03  0.00000000000E+00 0.  1.
<mgrwt>
<rscale>  0 0.34119733E+04</rscale>
<asrwt>0</asrwt>
<pdfrwt beam="1">  1        2 0.37236731E+00 0.34119733E+04</pdfrwt>
<pdfrwt beam="2">  1       -2 0.18499202E+00 0.34119733E+04</pdfrwt>
<totfact> 0.53664848E-01</totfact>
</mgrwt>
</event>
<event>
12    1  0.1960998E-007  0.2485613E+04  0.7818608E-02  0.8408129E-01
          1   -1    0    0  501    0  0.00000000000E+00  0.00000000000E+00  0.10301100083E+04  0.10301100083E+04  0.00000000000E+00 0. -1.
         -1   -1    0    0    0  501 -0.00000000000E+00 -0.00000000000E+00 -0.14994206776E+04  0.14994206776E+04  0.00000000000E+00 0.  1.
         23    2    1    2    0    0  0.37672668714E+03 -0.92647266951E+03 -0.61210493059E+03  0.11760611397E+04  0.90403285468E+02 0.  0.
        254    2    1    2    0    0 -0.37672668714E+03  0.92647266951E+03  0.14279426128E+03  0.13534695462E+04  0.90067475118E+03 0.  0.
        -24    2    4    4    0    0 -0.21252591379E+03  0.10300873122E+04  0.29297257116E+03  0.10947471442E+04  0.79945278009E+02 0.  0.
         24    2    4    4    0    0 -0.16420077335E+03 -0.10361464267E+03 -0.15017830989E+03  0.25872240207E+03  0.81767159821E+02 0.  0.
         13    1    3    3    0    0  0.22296259448E+03 -0.64207004612E+03 -0.38737909906E+03  0.78232271414E+03  0.00000000000E+00 0. -1.
        -13    1    3    3    0    0  0.15376409265E+03 -0.28440262339E+03 -0.22472583152E+03  0.39373842552E+03  0.00000000000E+00 0.  1.
          2    1    6    6  502    0 -0.15462944431E+03 -0.10517729720E+03 -0.10908361876E+03  0.21649887939E+03  0.00000000000E+00 0. -1.
          1    1    5    5  503    0 -0.16193986552E+03  0.81604370918E+03  0.19809421851E+03  0.85521527977E+03  0.00000000000E+00 0. -1.
         -2    1    5    5    0  503 -0.50586048270E+02  0.21404360300E+03  0.94878352653E+02  0.23953186441E+03  0.00000000000E+00 0.  1.
         -1    1    6    6    0  502 -0.95713290375E+01  0.15626545234E+01 -0.41094691124E+02  0.42223522678E+02  0.00000000000E+00 0.  1.
<mgrwt>
<rscale>  0 0.24856132E+04</rscale>
<asrwt>0</asrwt>
<pdfrwt beam="1">  1        1 0.15847846E+00 0.24856132E+04</pdfrwt>
<pdfrwt beam="2">  1       -1 0.23068010E+00 0.24856132E+04</pdfrwt>
<totfact> 0.11912272E+00</totfact>
</mgrwt>
</event>
<event>
12    1  0.1960998E-007  0.2802437E+04  0.7818608E-02  0.8302512E-01
         -2   -1    0    0    0  501 -0.00000000000E+00  0.00000000000E+00  0.11250969221E+04  0.11250969221E+04  0.00000000000E+00 0.  1.
          2   -1    0    0  501    0  0.00000000000E+00 -0.00000000000E+00 -0.17451052844E+04  0.17451052844E+04  0.00000000000E+00 0. -1.
         23    2    1    2    0    0 -0.11771576670E+04  0.10946922279E+03  0.15193768525E+03  0.11954945432E+04  0.91861085235E+02 0.  0.
        254    2    1    2    0    0  0.11771576670E+04 -0.10946922279E+03 -0.77194604756E+03  0.16747076633E+04  0.90058945895E+03 0.  0.
        -24    2    4    4    0    0  0.74823425469E+02 -0.30951026682E+03 -0.33603295878E+03  0.47001663898E+03  0.81254792257E+02 0.  0.
         24    2    4    4    0    0  0.11023342415E+04  0.20004104403E+03 -0.43591308878E+03  0.12046910243E+04  0.78121980692E+02 0.  0.
         13    1    3    3    0    0 -0.67006585570E+03  0.45243973574E+02  0.43661165624E+02  0.67300933537E+03  0.00000000000E+00 0.  1.
        -13    1    3    3    0    0 -0.50709181126E+03  0.64225249216E+02  0.10827651962E+03  0.52248520781E+03  0.00000000000E+00 0. -1.
          2    1    6    6  502    0  0.80255702072E+03  0.18075660550E+03 -0.31867067757E+03  0.88222543756E+03  0.00000000000E+00 0. -1.
          3    1    5    5  503    0  0.66282713885E+02 -0.11062375200E+03 -0.14608971119E+03  0.19486717626E+03  0.00000000000E+00 0. -1.
         -4    1    5    5    0  503  0.85407115842E+01 -0.19888651482E+03 -0.18994324758E+03  0.27514946272E+03  0.00000000000E+00 0.  1.
         -1    1    6    6    0  502  0.29977722076E+03  0.19284438535E+02 -0.11724241121E+03  0.32246558676E+03  0.00000000000E+00 0.  1.
<mgrwt>
<rscale>  0 0.28024365E+04</rscale>
<asrwt>0</asrwt>
<pdfrwt beam="1">  1        2 0.26847774E+00 0.28024365E+04</pdfrwt>
<pdfrwt beam="2">  1       -2 0.17309183E+00 0.28024365E+04</pdfrwt>
<totfact> 0.16322001E+00</totfact>
</mgrwt>
</event>
<event>
12    1  0.1960998E-007  0.1786049E+04  0.7818608E-02  0.8713754E-01
         -2   -1    0    0    0  501 -0.00000000000E+00  0.00000000000E+00  0.65490976086E+03  0.65490976086E+03  0.00000000000E+00 0.  1.
          2   -1    0    0  501    0  0.00000000000E+00 -0.00000000000E+00 -0.12177143800E+04  0.12177143800E+04  0.00000000000E+00 0. -1.
         23    2    1    2    0    0  0.24774468819E+03 -0.57943141034E+03 -0.41524606091E+03  0.76041978046E+03  0.93224254349E+02 0.  0.
        254    2    1    2    0    0 -0.24774468819E+03  0.57943141034E+03 -0.14755855828E+03  0.11122043604E+04  0.90449257678E+03 0.  0.
        -24    2    4    4    0    0 -0.26434064258E+03 -0.17522701177E+03 -0.12971302756E+03  0.35180974670E+03  0.79775606461E+02 0.  0.
         24    2    4    4    0    0  0.16595954381E+02  0.75465842210E+03 -0.17845530713E+02  0.76039461374E+03  0.89981919791E+02 0.  0.
         13    1    3    3    0    0  0.18282591477E+03 -0.43650790846E+03 -0.35771819073E+03  0.59323416392E+03  0.00000000000E+00 0. -1.
        -13    1    3    3    0    0  0.64918773425E+02 -0.14292350187E+03 -0.57527870187E+02  0.16718561654E+03  0.00000000000E+00 0.  1.
          2    1    6    6  502    0 -0.29356387292E+02  0.45251954275E+03  0.94092419749E+01  0.45356837178E+03  0.00000000000E+00 0. -1.
          1    1    5    5  503    0 -0.15703792630E+03 -0.14689940405E+03 -0.98521265864E+02  0.23653072746E+03  0.00000000000E+00 0. -1.
         -2    1    5    5    0  503 -0.10730271628E+03 -0.28327607717E+02 -0.31191761701E+02  0.11527901924E+03  0.00000000000E+00 0.  1.
         -1    1    6    6    0  502  0.45952341673E+02  0.30213887935E+03 -0.27254772688E+02  0.30682624196E+03  0.00000000000E+00 0.  1.
<mgrwt>
<rscale>  0 0.17860493E+04</rscale>
<asrwt>0</asrwt>
<pdfrwt beam="1">  1        2 0.18734067E+00 0.17860493E+04</pdfrwt>
<pdfrwt beam="2">  1       -2 0.10075535E+00 0.17860493E+04</pdfrwt>
<totfact> 0.14177343E+01</totfact>
</mgrwt>
</event>
<event>
12    1  0.1960998E-007  0.1657105E+04  0.7818608E-02  0.8786214E-01
          2   -1    0    0  501    0  0.00000000000E+00  0.00000000000E+00  0.25866868659E+04  0.25866868659E+04  0.00000000000E+00 0. -1.
         -2   -1    0    0    0  501 -0.00000000000E+00 -0.00000000000E+00 -0.26539719524E+03  0.26539719524E+03  0.00000000000E+00 0.  1.
         23    2    1    2    0    0  0.86342108459E+02  0.11074643263E+03 -0.14607172691E+03  0.22237650764E+03  0.91622211905E+02 0.  0.
        254    2    1    2    0    0 -0.86342108459E+02 -0.11074643263E+03  0.24673613976E+04  0.26297075535E+04  0.89876015641E+03 0.  0.
        -24    2    4    4    0    0  0.14216949273E+03 -0.45297231116E+03  0.11514988113E+04  0.12487038890E+04  0.88970842150E+02 0.  0.
         24    2    4    4    0    0 -0.22851160119E+03  0.34222587853E+03  0.13158625863E+04  0.13810036645E+04  0.79628333532E+02 0.  0.
         13    1    3    3    0    0  0.51313077838E+02  0.67970000104E+02 -0.24178001857E+02  0.88529817830E+02  0.00000000000E+00 0. -1.
        -13    1    3    3    0    0  0.35029030621E+02  0.42776432527E+02 -0.12189372505E+03  0.13384668981E+03  0.00000000000E+00 0.  1.
          2    1    6    6  502    0 -0.23164772729E+03  0.32103609802E+03  0.12721426874E+04  0.13323182288E+04  0.00000000000E+00 0. -1.
          3    1    5    5  503    0  0.10785220845E+03 -0.42379605123E+03  0.10233959358E+04  0.11129125901E+04  0.00000000000E+00 0. -1.
         -4    1    5    5    0  503  0.34317284281E+02 -0.29176259929E+02  0.12810287552E+03  0.13579129892E+03  0.00000000000E+00 0.  1.
         -1    1    6    6    0  502  0.31361260961E+01  0.21189780508E+02  0.43719898893E+02  0.48685435647E+02  0.00000000000E+00 0.  1.
<mgrwt>
<rscale>  0 0.16571052E+04</rscale>
<asrwt>0</asrwt>
<pdfrwt beam="1">  1        2 0.39795181E+00 0.16571052E+04</pdfrwt>
<pdfrwt beam="2">  1       -2 0.40830340E-01 0.16571052E+04</pdfrwt>
<totfact> 0.16842796E+01</totfact>
</mgrwt>
</event>
<event>
12    1  0.1960998E-007  0.3578893E+04  0.7818608E-02  0.8095344E-01
         -2   -1    0    0    0  501 -0.00000000000E+00  0.00000000000E+00  0.12067351676E+04  0.12067351676E+04  0.00000000000E+00 0.  1.
          2   -1    0    0  501    0  0.00000000000E+00 -0.00000000000E+00 -0.26535384787E+04  0.26535384787E+04  0.00000000000E+00 0. -1.
         23    2    1    2    0    0  0.13255659975E+03  0.14987347425E+04  0.11615371889E+03  0.15118320695E+04  0.91473708654E+02 0.  0.
        254    2    1    2    0    0 -0.13255659975E+03 -0.14987347425E+04 -0.15629570299E+04  0.23484415768E+04  0.89920302585E+03 0.  0.
        -24    2    4    4    0    0 -0.22833719408E+03 -0.71746870505E+01 -0.12127672641E+03  0.27024787754E+03  0.78335947113E+02 0.  0.
         24    2    4    4    0    0  0.95780594334E+02 -0.14915600554E+04 -0.14416803035E+04  0.20781936993E+04  0.80756627069E+02 0.  0.
         11    1    3    3    0    0  0.12899411845E+03  0.96148568922E+03  0.76062826274E+02  0.97307747210E+03  0.00000000000E+00 0. -1.
        -11    1    3    3    0    0  0.35624812962E+01  0.53724905326E+03  0.40090892613E+02  0.53875459736E+03  0.00000000000E+00 0.  1.
          2    1    6    6  502    0  0.75721860349E+02 -0.57324908575E+03 -0.56552959133E+03  0.80880902141E+03  0.00000000000E+00 0. -1.
          3    1    5    5  503    0 -0.77750416006E+02 -0.36612503670E+02 -0.26644179125E+02  0.89975079302E+02  0.00000000000E+00 0. -1.
         -4    1    5    5    0  503 -0.15058677808E+03  0.29437816619E+02 -0.94632547290E+02  0.18027279824E+03  0.00000000000E+00 0.  1.
         -1    1    6    6    0  502  0.20058733985E+02 -0.91831096968E+03 -0.87615071220E+03  0.12693846778E+04  0.00000000000E+00 0.  1.
<mgrwt>
<rscale>  0 0.35788927E+04</rscale>
<asrwt>0</asrwt>
<pdfrwt beam="1">  1        2 0.40823669E+00 0.35788927E+04</pdfrwt>
<pdfrwt beam="2">  1       -2 0.18565156E+00 0.35788927E+04</pdfrwt>
<totfact> 0.38308226E-01</totfact>
</mgrwt>
</event>
<event>
12    1  0.1960998E-007  0.1682218E+04  0.7818608E-02  0.8771572E-01
          2   -1    0    0  501    0  0.00000000000E+00  0.00000000000E+00  0.16813970017E+04  0.16813970017E+04  0.00000000000E+00 0. -1.
         -2   -1    0    0    0  501 -0.00000000000E+00 -0.00000000000E+00 -0.42075963765E+03  0.42075963765E+03  0.00000000000E+00 0.  1.
         23    2    1    2    0    0 -0.10841063344E+03  0.56247412320E+03  0.25014867938E+03  0.63156433251E+03  0.90383292616E+02 0.  0.
        254    2    1    2    0    0  0.10841063344E+03 -0.56247412320E+03  0.10104886846E+04  0.14705923068E+04  0.90190040822E+03 0.  0.
        -24    2    4    4    0    0  0.37319660892E+03 -0.64169357526E+03  0.54921941541E+03  0.92703462262E+03  0.81883281700E+02 0.  0.
         24    2    4    4    0    0 -0.26478597549E+03  0.79219452061E+02  0.46126926921E+03  0.54355768418E+03  0.79361721972E+02 0.  0.
         11    1    3    3    0    0 -0.98515848833E+02  0.31945934871E+03  0.17293646366E+03  0.37638632868E+03  0.00000000000E+00 0. -1.
        -11    1    3    3    0    0 -0.98947846060E+01  0.24301477449E+03  0.77212215724E+02  0.25517800383E+03  0.00000000000E+00 0.  1.
          4    1    6    6  502    0 -0.40062701425E+02  0.39138763006E+02  0.61298766528E+02  0.83032533341E+02  0.00000000000E+00 0. -1.
          3    1    5    5  503    0  0.72718260517E+02 -0.16475958563E+03  0.16996674568E+03  0.24763352178E+03  0.00000000000E+00 0. -1.
         -4    1    5    5    0  503  0.30047834841E+03 -0.47693398963E+03  0.37925266973E+03  0.67940110084E+03  0.00000000000E+00 0.  1.
         -3    1    6    6    0  502 -0.22472327406E+03  0.40080689055E+02  0.39997050268E+03  0.46052515084E+03  0.00000000000E+00 0.  1.
<mgrwt>
<rscale>  0 0.16822176E+04</rscale>
<asrwt>0</asrwt>
<pdfrwt beam="1">  1        2 0.25867646E+00 0.16822176E+04</pdfrwt>
<pdfrwt beam="2">  1       -2 0.64732253E-01 0.16822176E+04</pdfrwt>
<totfact> 0.21077494E+01</totfact>
</mgrwt>
</event>
<event>
12    1  0.1960998E-007  0.1921396E+04  0.7818608E-02  0.8644279E-01
         -2   -1    0    0    0  501 -0.00000000000E+00  0.00000000000E+00  0.96654158204E+03  0.96654158204E+03  0.00000000000E+00 0. -1.
          2   -1    0    0  501    0  0.00000000000E+00 -0.00000000000E+00 -0.95488972891E+03  0.95488972891E+03  0.00000000000E+00 0.  1.
         23    2    1    2    0    0 -0.28050143874E+03  0.69206229742E+03  0.43214461571E+02  0.75360481108E+03  0.91768409348E+02 0.  0.
        254    2    1    2    0    0  0.28050143874E+03 -0.69206229742E+03 -0.31562608442E+02  0.11678264999E+04  0.89732449810E+03 0.  0.
        -24    2    4    4    0    0  0.32389573572E+03 -0.86219800516E+03  0.10578122423E+03  0.93046755355E+03  0.79286525302E+02 0.  0.
         24    2    4    4    0    0 -0.43394296981E+02  0.17013570774E+03 -0.13734383267E+03  0.23735894631E+03  0.81527400066E+02 0.  0.
         13    1    3    3    0    0 -0.12126292991E+03  0.39294577376E+03 -0.54420366300E+01  0.41126718208E+03  0.00000000000E+00 0.  1.
        -13    1    3    3    0    0 -0.15923850883E+03  0.29911652366E+03  0.48656498201E+02  0.34233762901E+03  0.00000000000E+00 0. -1.
          4    1    6    6  502    0 -0.20370049020E+02  0.53676361296E+02 -0.95610726771E+02  0.11152354788E+03  0.00000000000E+00 0. -1.
          3    1    5    5  503    0  0.60430018899E+02 -0.20285085186E+03  0.54591485491E+02  0.21858747808E+03  0.00000000000E+00 0. -1.
         -4    1    5    5    0  503  0.26346571682E+03 -0.65934715330E+03  0.51189738736E+02  0.71188007547E+03  0.00000000000E+00 0.  1.
         -3    1    6    6    0  502 -0.23024247961E+02  0.11645934645E+03 -0.41733105898E+02  0.12583539843E+03  0.00000000000E+00 0.  1.
<mgrwt>
<rscale>  0 0.19213960E+04</rscale>
<asrwt>0</asrwt>
<pdfrwt beam="1">  1        2 0.14690611E+00 0.19213960E+04</pdfrwt>
<pdfrwt beam="2">  1       -2 0.14869870E+00 0.19213960E+04</pdfrwt>
<totfact> 0.77245160E+00</totfact>
</mgrwt>
</event>
<event>
12    1  0.1960998E-007  0.1222792E+04  0.7818608E-02  0.9093137E-01
         -2   -1    0    0    0  501 -0.00000000000E+00  0.00000000000E+00  0.92986785818E+03  0.92986785818E+03  0.00000000000E+00 0.  1.
          2   -1    0    0  501    0  0.00000000000E+00 -0.00000000000E+00 -0.40199819993E+03  0.40199819993E+03  0.00000000000E+00 0. -1.
         23    2    1    2    0    0 -0.93329245152E+02  0.92264077504E+02 -0.13239584534E+03  0.20755459991E+03  0.91253734612E+02 0.  0.
        254    2    1    2    0    0  0.93329245152E+02 -0.92264077504E+02  0.66026550359E+03  0.11243114582E+04  0.90050136692E+03 0.  0.
        -24    2    4    4    0    0 -0.27153692545E+03  0.52746695051E+02  0.66432445401E+03  0.72402155243E+03  0.79785415144E+02 0.  0.
         24    2    4    4    0    0  0.36486617060E+03 -0.14501077256E+03 -0.40589504125E+01  0.40028990578E+03  0.77846560544E+02 0.  0.
         13    1    3    3    0    0 -0.91691468009E+02  0.93841432582E+02 -0.14453621900E+03  0.19520312082E+03  0.00000000000E+00 0. -1.
        -13    1    3    3    0    0 -0.16377771432E+01 -0.15773550783E+01  0.12140373660E+02  0.12351479087E+02  0.00000000000E+00 0.  1.
          2    1    6    6  502    0  0.32596400236E+03 -0.13011226042E+03 -0.28267440994E+02  0.35210904471E+03  0.00000000000E+00 0. -1.
          3    1    5    5  503    0 -0.23604222640E+03  0.40380948874E+02  0.48620642933E+03  0.54198085354E+03  0.00000000000E+00 0. -1.
         -4    1    5    5    0  503 -0.35494699043E+02  0.12365746178E+02  0.17811802467E+03  0.18204069889E+03  0.00000000000E+00 0.  1.
         -1    1    6    6    0  502  0.38902168244E+02 -0.14898512135E+02  0.24208490582E+02  0.48180861077E+02  0.00000000000E+00 0.  1.
<mgrwt>
<rscale>  0 0.12227922E+04</rscale>
<asrwt>0</asrwt>
<pdfrwt beam="1">  1        2 0.61845877E-01 0.12227922E+04</pdfrwt>
<pdfrwt beam="2">  1       -2 0.14305659E+00 0.12227922E+04</pdfrwt>
<totfact> 0.26423713E+01</totfact>
</mgrwt>
</event>
<event>
12    1  0.1960998E-007  0.2950480E+04  0.7818608E-02  0.8258015E-01
         -2   -1    0    0    0  501 -0.00000000000E+00  0.00000000000E+00  0.14431471979E+04  0.14431471979E+04  0.00000000000E+00 0.  1.
          2   -1    0    0  501    0  0.00000000000E+00 -0.00000000000E+00 -0.15080468578E+04  0.15080468578E+04  0.00000000000E+00 0. -1.
         23    2    1    2    0    0 -0.35218069739E+03 -0.12482191758E+04  0.29169211010E+03  0.13324582697E+04  0.90985707028E+02 0.  0.
        254    2    1    2    0    0  0.35218069739E+03  0.12482191758E+04 -0.35659177003E+03  0.16187357859E+04  0.90059174974E+03 0.  0.
        -24    2    4    4    0    0  0.37774169063E+03  0.13735900613E+04 -0.32257539176E+03  0.14628485802E+04  0.80203765228E+02 0.  0.
         24    2    4    4    0    0 -0.25560993244E+02 -0.12537088545E+03 -0.34016378276E+02  0.15588720573E+03  0.82295100850E+02 0.  0.
         13    1    3    3    0    0 -0.28696984591E+03 -0.91812739698E+03  0.18573184150E+03  0.97969685439E+03  0.00000000000E+00 0. -1.
        -13    1    3    3    0    0 -0.65210851481E+02 -0.33009177886E+03  0.10596026860E+03  0.35276141533E+03  0.00000000000E+00 0.  1.
          2    1    6    6  502    0 -0.49805355934E+02 -0.86430771356E+02 -0.43862902418E+02  0.10897158311E+03  0.00000000000E+00 0. -1.
          3    1    5    5  503    0  0.22962105647E+03  0.77086570490E+03 -0.14516490449E+03  0.81733262143E+03  0.00000000000E+00 0. -1.
         -4    1    5    5    0  503  0.14812063417E+03  0.60272435639E+03 -0.17741048726E+03  0.64551595878E+03  0.00000000000E+00 0.  1.
         -1    1    6    6    0  502  0.24244362689E+02 -0.38940114096E+02  0.98465241413E+01  0.46915622619E+02  0.00000000000E+00 0.  1.
<mgrwt>
<rscale>  0 0.29504804E+04</rscale>
<asrwt>0</asrwt>
<pdfrwt beam="1">  1        2 0.23200721E+00 0.29504804E+04</pdfrwt>
<pdfrwt beam="2">  1       -2 0.22202265E+00 0.29504804E+04</pdfrwt>
<totfact> 0.10361693E+00</totfact>
</mgrwt>
</event>
<event>
12    1  0.1960998E-007  0.1160609E+04  0.7818608E-02  0.9148052E-01
         -1   -1    0    0    0  501 -0.00000000000E+00  0.00000000000E+00  0.13184567966E+04  0.13184567966E+04  0.00000000000E+00 0.  1.
          1   -1    0    0  501    0  0.00000000000E+00 -0.00000000000E+00 -0.25541467367E+03  0.25541467367E+03  0.00000000000E+00 0. -1.
         23    2    1    2    0    0 -0.11003971295E+02  0.18315167482E+03  0.59933430642E+02  0.21264021829E+03  0.89208872597E+02 0.  0.
        254    2    1    2    0    0  0.11003971295E+02 -0.18315167482E+03  0.10031086922E+04  0.13612312519E+04  0.90169720496E+03 0.  0.
        -24    2    4    4    0    0  0.39129270251E+03 -0.30704800764E+03  0.64455386276E+03  0.81808550179E+03  0.80160764778E+02 0.  0.
         24    2    4    4    0    0 -0.38028873122E+03  0.12389633282E+03  0.35855482948E+03  0.54314575014E+03  0.80473099729E+02 0.  0.
         11    1    3    3    0    0 -0.32541557214E+02  0.87325294551E+02  0.66063135318E+02  0.11423221027E+03  0.00000000000E+00 0.  1.
        -11    1    3    3    0    0  0.21537585919E+02  0.95826380269E+02 -0.61297046762E+01  0.98408008018E+02  0.00000000000E+00 0. -1.
          2    1    6    6  502    0 -0.34232826529E+03  0.13532058260E+03  0.31810318875E+03  0.48650790331E+03  0.00000000000E+00 0. -1.
          1    1    5    5  503    0  0.35652027705E+03 -0.30273657345E+03  0.61198483151E+03  0.77024773603E+03  0.00000000000E+00 0. -1.
         -2    1    5    5    0  503  0.34772425458E+02 -0.43114341911E+01  0.32569031249E+02  0.47837765766E+02  0.00000000000E+00 0.  1.
         -1    1    6    6    0  502 -0.37960465923E+02 -0.11424249774E+02  0.40451640732E+02  0.56637846833E+02  0.00000000000E+00 0.  1.
<mgrwt>
<rscale>  0 0.11606088E+04</rscale>
<asrwt>0</asrwt>
<pdfrwt beam="1">  1        1 0.39294566E-01 0.11606088E+04</pdfrwt>
<pdfrwt beam="2">  1       -1 0.20283950E+00 0.11606088E+04</pdfrwt>
<totfact> 0.15451197E+01</totfact>
</mgrwt>
</event>
<event>
12    1  0.2458489E-007  0.2881113E+04  0.7818608E-02  0.8278519E-01
          1   -1    0    0  501    0  0.00000000000E+00  0.00000000000E+00  0.22745213207E+04  0.22745213207E+04  0.00000000000E+00 0. -1.
         -1   -1    0    0    0  501 -0.00000000000E+00 -0.00000000000E+00 -0.91236932935E+03  0.91236932935E+03  0.00000000000E+00 0.  1.
         23    2    1    2    0    0 -0.11627206047E+04  0.50171558429E+03  0.92131222931E+03  0.15687493227E+04  0.92306455112E+02 0.  0.
        254    2    1    2    0    0  0.11627206047E+04 -0.50171558429E+03  0.44083976203E+03  0.16181413273E+04  0.90576151786E+03 0.  0.
        -24    2    4    4    0    0  0.52514471976E+03 -0.61239162462E+03  0.51736125243E+03  0.96186487229E+03  0.81981024819E+02 0.  0.
         24    2    4    4    0    0  0.63757588492E+03  0.11067604033E+03 -0.76521490406E+02  0.65627645500E+03  0.78045191779E+02 0.  0.
         13    1    3    3    0    0 -0.42570747709E+03  0.19684121388E+03  0.28871984641E+03  0.55075627027E+03  0.00000000000E+00 0.  1.
        -13    1    3    3    0    0 -0.73701312759E+03  0.30487437040E+03  0.63259238290E+03  0.10179930525E+04  0.00000000000E+00 0. -1.
          2    1    6    6  502    0  0.48613411308E+03  0.50737576207E+02 -0.51219479986E+02  0.49145102774E+03  0.00000000000E+00 0. -1.
          3    1    5    5  503    0  0.47789749138E+03 -0.58522524546E+03  0.49292960827E+03  0.90213868053E+03  0.00000000000E+00 0. -1.
         -4    1    5    5    0  503  0.47247228378E+02 -0.27166379158E+02  0.24431644165E+02  0.59726191763E+02  0.00000000000E+00 0.  1.
         -1    1    6    6    0  502  0.15144177184E+03  0.59938464125E+02 -0.25302010420E+02  0.16482542726E+03  0.00000000000E+00 0.  1.
<mgrwt>
<rscale>  0 0.28811133E+04</rscale>
<asrwt>0</asrwt>
<pdfrwt beam="1">  1        1 0.34992636E+00 0.28811133E+04</pdfrwt>
<pdfrwt beam="2">  1       -1 0.14036451E+00 0.28811133E+04</pdfrwt>
<totfact> 0.69329287E-01</totfact>
</mgrwt>
</event>
<event>
12    1  0.1960998E-007  0.1908482E+04  0.7818608E-02  0.8650646E-01
         -1   -1    0    0    0  501 -0.00000000000E+00  0.00000000000E+00  0.10019931858E+04  0.10019931858E+04  0.00000000000E+00 0.  1.
          1   -1    0    0  501    0  0.00000000000E+00 -0.00000000000E+00 -0.90876499546E+03  0.90876499546E+03  0.00000000000E+00 0. -1.
         23    2    1    2    0    0 -0.37156426813E+03 -0.35916948003E+03 -0.49099522827E+03  0.71845257257E+03  0.89638519183E+02 0.  0.
        254    2    1    2    0    0  0.37156426813E+03  0.35916948003E+03  0.58422341865E+03  0.11923056087E+04  0.90178320066E+03 0.  0.
        -24    2    4    4    0    0  0.29274551875E+02 -0.18249375973E+03 -0.12192314961E+03  0.23560058091E+03  0.80507189639E+02 0.  0.
         24    2    4    4    0    0  0.34228971625E+03  0.54166323976E+03  0.70614656826E+03  0.95670502783E+03  0.77975760680E+02 0.  0.
         11    1    3    3    0    0 -0.22625144273E+03 -0.18936448991E+03 -0.33211680624E+03  0.44424114888E+03  0.00000000000E+00 0. -1.
        -11    1    3    3    0    0 -0.14531282540E+03 -0.16980499012E+03 -0.15887842203E+03  0.27421142369E+03  0.00000000000E+00 0.  1.
          2    1    6    6  502    0  0.14363361323E+03  0.16576668148E+03  0.26560707132E+03  0.34446527237E+03  0.00000000000E+00 0. -1.
          3    1    5    5  503    0  0.19279423262E+02 -0.85445833116E+02 -0.10473615727E+03  0.13653698839E+03  0.00000000000E+00 0. -1.
         -4    1    5    5    0  503  0.99951286131E+01 -0.97047926617E+02 -0.17186992336E+02  0.99063592516E+02  0.00000000000E+00 0.  1.
         -1    1    6    6    0  502  0.19865610302E+03  0.37589655828E+03  0.44053949694E+03  0.61223975546E+03  0.00000000000E+00 0.  1.
<mgrwt>
<rscale>  0 0.19084825E+04</rscale>
<asrwt>0</asrwt>
<pdfrwt beam="1">  1        1 0.13981000E+00 0.19084825E+04</pdfrwt>
<pdfrwt beam="2">  1       -1 0.15415280E+00 0.19084825E+04</pdfrwt>
<totfact> 0.54212425E+00</totfact>
</mgrwt>
</event>
<event>
12    1  0.1960998E-007  0.1225890E+04  0.7818608E-02  0.9090492E-01
         -3   -1    0    0    0  501 -0.00000000000E+00  0.00000000000E+00  0.12952796462E+04  0.12952796462E+04  0.00000000000E+00 0.  1.
          3   -1    0    0  501    0  0.00000000000E+00 -0.00000000000E+00 -0.29005422649E+03  0.29005422649E+03  0.00000000000E+00 0. -1.
         23    2    1    2    0    0  0.95527360368E+02 -0.25292527127E+03  0.22280258763E+03  0.36266686843E+03  0.93752839828E+02 0.  0.
        254    2    1    2    0    0 -0.95527360368E+02  0.25292527127E+03  0.78242283211E+03  0.12226670043E+04  0.89979578001E+03 0.  0.
        -24    2    4    4    0    0 -0.28883574465E+03 -0.24711132542E+03  0.41172779506E+03  0.56590653797E+03  0.78995809726E+02 0.  0.
         24    2    4    4    0    0  0.19330838428E+03  0.50003659669E+03  0.37069503705E+03  0.65676046632E+03  0.80714126171E+02 0.  0.
         11    1    3    3    0    0  0.29158979551E+02 -0.11000878103E+03  0.15208000003E+03  0.18994868887E+03  0.00000000000E+00 0.  1.
        -11    1    3    3    0    0  0.66368380817E+02 -0.14291649024E+03  0.70722587591E+02  0.17271817956E+03  0.00000000000E+00 0. -1.
          4    1    6    6  502    0 -0.66725716498E+01  0.36666275696E+02  0.30037656336E+02  0.47866478709E+02  0.00000000000E+00 0. -1.
          3    1    5    5  503    0 -0.31400391152E+02 -0.35956385226E+02  0.19898915204E+02  0.51718594619E+02  0.00000000000E+00 0. -1.
         -4    1    5    5    0  503 -0.25743535349E+03 -0.21115494019E+03  0.39182887986E+03  0.51418794335E+03  0.00000000000E+00 0.  1.
         -3    1    6    6    0  502  0.19998095593E+03  0.46337032099E+03  0.34065738071E+03  0.60889398761E+03  0.00000000000E+00 0.  1.
<mgrwt>
<rscale>  0 0.12258896E+04</rscale>
<asrwt>0</asrwt>
<pdfrwt beam="1">  1        3 0.44623728E-01 0.12258896E+04</pdfrwt>
<pdfrwt beam="2">  1       -3 0.19927379E+00 0.12258896E+04</pdfrwt>
<totfact> 0.19114474E+00</totfact>
</mgrwt>
</event>
<event>
12    1  0.1960998E-007  0.1336183E+04  0.7818608E-02  0.9001354E-01
         -2   -1    0    0    0  501 -0.00000000000E+00  0.00000000000E+00  0.17666533805E+03  0.17666533805E+03  0.00000000000E+00 0. -1.
          2   -1    0    0  501    0  0.00000000000E+00 -0.00000000000E+00 -0.25265079863E+04  0.25265079863E+04  0.00000000000E+00 0.  1.
         23    2    1    2    0    0 -0.12166790596E+03  0.20371316260E+03 -0.11848549888E+04  0.12118762033E+04  0.91980734693E+02 0.  0.
        254    2    1    2    0    0  0.12166790596E+03 -0.20371316260E+03 -0.11649876594E+04  0.14912971210E+04  0.90026036498E+03 0.  0.
        -24    2    4    4    0    0  0.40513369363E+03 -0.38173004328E+03 -0.88188830161E+03  0.10459366088E+04  0.80032977522E+02 0.  0.
         24    2    4    4    0    0 -0.28346578766E+03  0.17801688068E+03 -0.28309935777E+03  0.44536051223E+03  0.78472140898E+02 0.  0.
         11    1    3    3    0    0 -0.56531063967E+02  0.63831125410E+02 -0.63785853836E+03  0.64353219712E+03  0.00000000000E+00 0.  1.
        -11    1    3    3    0    0 -0.65136841997E+02  0.13988203719E+03 -0.54699645047E+03  0.56834400616E+03  0.00000000000E+00 0. -1.
          2    1    6    6  502    0 -0.17090970324E+03  0.15082877122E+03 -0.19177773723E+03  0.29788948519E+03  0.00000000000E+00 0. -1.
          1    1    5    5  503    0  0.25822637649E+03 -0.28284813674E+03 -0.55788663328E+03  0.67669891796E+03  0.00000000000E+00 0. -1.
         -2    1    5    5    0  503  0.14690731713E+03 -0.98881906534E+02 -0.32400166833E+03  0.36923769086E+03  0.00000000000E+00 0.  1.
         -1    1    6    6    0  502 -0.11255608442E+03  0.27188109458E+02 -0.91321620540E+02  0.14747102704E+03  0.00000000000E+00 0.  1.
<mgrwt>
<rscale>  0 0.13361832E+04</rscale>
<asrwt>0</asrwt>
<pdfrwt beam="1">  1        2 0.38869356E+00 0.13361832E+04</pdfrwt>
<pdfrwt beam="2">  1       -2 0.27179281E-01 0.13361832E+04</pdfrwt>
<totfact> 0.40639178E+01</totfact>
</mgrwt>
</event>
<event>
12    1  0.1960998E-007  0.2562051E+04  0.7818608E-02  0.8381207E-01
         -2   -1    0    0    0  501 -0.00000000000E+00  0.00000000000E+00  0.17085507003E+04  0.17085507003E+04  0.00000000000E+00 0. -1.
          2   -1    0    0  501    0  0.00000000000E+00 -0.00000000000E+00 -0.96047851799E+03  0.96047851799E+03  0.00000000000E+00 0.  1.
         23    2    1    2    0    0  0.11098358665E+04 -0.10047494055E+02  0.17079096085E+03  0.11266841029E+04  0.91711028627E+02 0.  0.
        254    2    1    2    0    0 -0.11098358665E+04  0.10047494055E+02  0.57728122145E+03  0.15423451153E+04  0.90207441129E+03 0.  0.
        -24    2    4    4    0    0 -0.11822124753E+04  0.20098481164E+03  0.54438033623E+03  0.13197229760E+04  0.85425707671E+02 0.  0.
         24    2    4    4    0    0  0.72376608806E+02 -0.19093731758E+03  0.32900885214E+02  0.22262213938E+03  0.82357245871E+02 0.  0.
         11    1    3    3    0    0  0.94238032765E+03 -0.40474505642E+02  0.13664758754E+03  0.95309570912E+03  0.00000000000E+00 0. -1.
        -11    1    3    3    0    0  0.16745553885E+03  0.30427011587E+02  0.34143373310E+02  0.17358839381E+03  0.00000000000E+00 0.  1.
          4    1    6    6  502    0  0.59509907032E+02 -0.19381337517E+03  0.19268650297E+02  0.20365739445E+03  0.00000000000E+00 0. -1.
          1    1    5    5  503    0 -0.92161547644E+03  0.15656556102E+03  0.46252342423E+03  0.10429840743E+04  0.00000000000E+00 0. -1.
         -4    1    5    5    0  503 -0.26059699887E+03  0.44419250621E+02  0.81856912002E+02  0.27673890165E+03  0.00000000000E+00 0.  1.
         -3    1    6    6    0  502  0.12866701774E+02  0.28760575809E+01  0.13632234917E+02  0.18964744939E+02  0.00000000000E+00 0.  1.
<mgrwt>
<rscale>  0 0.25620509E+04</rscale>
<asrwt>0</asrwt>
<pdfrwt beam="1">  1        2 0.14776593E+00 0.25620509E+04</pdfrwt>
<pdfrwt beam="2">  1       -2 0.26285395E+00 0.25620509E+04</pdfrwt>
<totfact> 0.12707329E+00</totfact>
</mgrwt>
</event>
<event>
12    1  0.1960998E-007  0.1956883E+04  0.7818608E-02  0.8627049E-01
         -1   -1    0    0    0  501 -0.00000000000E+00  0.00000000000E+00  0.39020724076E+03  0.39020724076E+03  0.00000000000E+00 0.  1.
          1   -1    0    0  501    0  0.00000000000E+00 -0.00000000000E+00 -0.24534337301E+04  0.24534337301E+04  0.00000000000E+00 0. -1.
         23    2    1    2    0    0  0.28104571805E+03 -0.18513429986E+02  0.22372488230E+03  0.37083932184E+03  0.90219382264E+02 0.  0.
        254    2    1    2    0    0 -0.28104571805E+03  0.18513429986E+02 -0.22869513716E+04  0.24728016490E+04  0.89736947598E+03 0.  0.
        -24    2    4    4    0    0 -0.57923330918E+03  0.11987689852E+03 -0.12317458193E+04  0.13687551526E+04  0.80070014479E+02 0.  0.
         24    2    4    4    0    0  0.29818759113E+03 -0.10136346853E+03 -0.10552055523E+04  0.11040464964E+04  0.79180276882E+02 0.  0.
         13    1    3    3    0    0  0.11637238660E+03 -0.31167289499E+02  0.14307451628E+03  0.18704076964E+03  0.00000000000E+00 0.  1.
        -13    1    3    3    0    0  0.16467333145E+03  0.12653859513E+02  0.80650366024E+02  0.18379855221E+03  0.00000000000E+00 0. -1.
          2    1    6    6  502    0  0.48079986195E+02 -0.18704629103E+02 -0.92063054785E+02  0.10553271663E+03  0.00000000000E+00 0. -1.
          3    1    5    5  503    0 -0.40389483228E+03  0.85365260338E+02 -0.93960346771E+03  0.10262908651E+04  0.00000000000E+00 0. -1.
         -4    1    5    5    0  503 -0.17533847691E+03  0.34511638182E+02 -0.29214235158E+03  0.34246428754E+03  0.00000000000E+00 0.  1.
         -1    1    6    6    0  502  0.25010760494E+03 -0.82658839431E+02 -0.96314249753E+03  0.99851377974E+03  0.00000000000E+00 0.  1.
<mgrwt>
<rscale>  0 0.19568828E+04</rscale>
<asrwt>0</asrwt>
<pdfrwt beam="1">  1        1 0.37745134E+00 0.19568828E+04</pdfrwt>
<pdfrwt beam="2">  1       -1 0.60031884E-01 0.19568828E+04</pdfrwt>
<totfact> 0.38247071E+00</totfact>
</mgrwt>
</event>
<event>
12    1  0.1960998E-007  0.1744440E+04  0.7818608E-02  0.8736417E-01
         -1   -1    0    0    0  501 -0.00000000000E+00  0.00000000000E+00  0.72057155827E+03  0.72057155827E+03  0.00000000000E+00 0.  1.
          1   -1    0    0  501    0  0.00000000000E+00 -0.00000000000E+00 -0.10557831470E+04  0.10557831470E+04  0.00000000000E+00 0. -1.
         23    2    1    2    0    0  0.23707252485E+03 -0.35144519618E+03 -0.60490093929E+03  0.74462780375E+03  0.94065465553E+02 0.  0.
        254    2    1    2    0    0 -0.23707252485E+03  0.35144519618E+03  0.26968935056E+03  0.10317269015E+04  0.90111649943E+03 0.  0.
        -24    2    4    4    0    0 -0.44858497516E+03 -0.14987340712E+02  0.37306162583E+03  0.58907958845E+03  0.79916735110E+02 0.  0.
         24    2    4    4    0    0  0.21151245030E+03  0.36643253689E+03 -0.10337227527E+03  0.44264731306E+03  0.78996808384E+02 0.  0.
         11    1    3    3    0    0  0.10660322688E+03 -0.24001713267E+03 -0.36099980251E+03  0.44642281457E+03  0.00000000000E+00 0.  1.
        -11    1    3    3    0    0  0.13046929797E+03 -0.11142806351E+03 -0.24390113678E+03  0.29820498918E+03  0.00000000000E+00 0. -1.
          2    1    6    6  502    0  0.90068472509E+02  0.15530528920E+03 -0.39596722840E+01  0.17957656194E+03  0.00000000000E+00 0. -1.
          3    1    5    5  503    0 -0.36851160405E+03 -0.24501980858E+02  0.26645542210E+03  0.45541150771E+03  0.00000000000E+00 0. -1.
         -4    1    5    5    0  503 -0.80073371106E+02  0.95146401459E+01  0.10660620373E+03  0.13366808075E+03  0.00000000000E+00 0.  1.
         -1    1    6    6    0  502  0.12144397779E+03  0.21112724770E+03 -0.99412602985E+02  0.26307075112E+03  0.00000000000E+00 0.  1.
<mgrwt>
<rscale>  0 0.17444395E+04</rscale>
<asrwt>0</asrwt>
<pdfrwt beam="1">  1        1 0.16242818E+00 0.17444395E+04</pdfrwt>
<pdfrwt beam="2">  1       -1 0.11085716E+00 0.17444395E+04</pdfrwt>
<totfact> 0.97325440E+00</totfact>
</mgrwt>
</event>
<event>
12    1  0.1960998E-007  0.3402620E+04  0.7818608E-02  0.8137264E-01
          2   -1    0    0  501    0  0.00000000000E+00  0.00000000000E+00  0.24847533747E+04  0.24847533747E+04  0.00000000000E+00 0. -1.
         -2   -1    0    0    0  501 -0.00000000000E+00 -0.00000000000E+00 -0.11648866963E+04  0.11648866963E+04  0.00000000000E+00 0.  1.
         23    2    1    2    0    0 -0.98082550256E+02 -0.11882640466E+04  0.17293880870E+04  0.21025907146E+04  0.92265523460E+02 0.  0.
        254    2    1    2    0    0  0.98082550256E+02  0.11882640466E+04 -0.40952140857E+03  0.15470493564E+04  0.89669520804E+03 0.  0.
        -24    2    4    4    0    0  0.41050075521E+02  0.10425877943E+03 -0.43612470367E+03  0.45825769564E+03  0.85090285420E+02 0.  0.
         24    2    4    4    0    0  0.57032474735E+02  0.10840052671E+04  0.26603295104E+02  0.10887916608E+04  0.80246015060E+02 0.  0.
         11    1    3    3    0    0 -0.65553054092E+02 -0.84654536611E+03  0.13024608881E+04  0.15547799281E+04  0.00000000000E+00 0. -1.
        -11    1    3    3    0    0 -0.32529496164E+02 -0.34171868046E+03  0.42692719885E+03  0.54781078651E+03  0.00000000000E+00 0.  1.
          2    1    6    6  502    0  0.44276170228E+02  0.56638116798E+03  0.51308171039E+02  0.57042136628E+03  0.00000000000E+00 0. -1.
          1    1    5    5  503    0  0.66808590631E+02  0.82318966239E+02 -0.35075556402E+03  0.36642770866E+03  0.00000000000E+00 0. -1.
         -4    1    5    5    0  503 -0.25758515111E+02  0.21939813190E+02 -0.85369139651E+02  0.91829986977E+02  0.00000000000E+00 0.  1.
         -1    1    6    6    0  502  0.12756304508E+02  0.51762409916E+03 -0.24704875935E+02  0.51837029451E+03  0.00000000000E+00 0.  1.
<mgrwt>
<rscale>  0 0.34026203E+04</rscale>
<asrwt>0</asrwt>
<pdfrwt beam="1">  1        2 0.38226975E+00 0.34026203E+04</pdfrwt>
<pdfrwt beam="2">  1       -2 0.17921334E+00 0.34026203E+04</pdfrwt>
<totfact> 0.54022757E-01</totfact>
</mgrwt>
</event>
<event>
12    1  0.1960998E-007  0.1917878E+04  0.7818608E-02  0.8646008E-01
         -1   -1    0    0    0  501 -0.00000000000E+00  0.00000000000E+00  0.50352944197E+03  0.50352944197E+03  0.00000000000E+00 0.  1.
          1   -1    0    0  501    0  0.00000000000E+00 -0.00000000000E+00 -0.18262369323E+04  0.18262369323E+04  0.00000000000E+00 0. -1.
         23    2    1    2    0    0 -0.18180021459E+03 -0.20436158093E+03 -0.13666531821E+04  0.13967723131E+04  0.91744213282E+02 0.  0.
        254    2    1    2    0    0  0.18180021459E+03  0.20436158093E+03  0.43945691831E+02  0.93299406113E+03  0.89091622529E+03 0.  0.
        -24    2    4    4    0    0  0.96238242480E+02  0.40249261034E+03 -0.30132797757E+03  0.51817036787E+03  0.80248859011E+02 0.  0.
         24    2    4    4    0    0  0.85561972114E+02 -0.19813102941E+03  0.34527366940E+03  0.41482369327E+03  0.79297123692E+02 0.  0.
         11    1    3    3    0    0 -0.61609733113E+01 -0.22740776496E+02 -0.41265649043E+02  0.47517936599E+02  0.00000000000E+00 0.  1.
        -11    1    3    3    0    0 -0.17563924128E+03 -0.18162080444E+03 -0.13253875331E+04  0.13492543765E+04  0.00000000000E+00 0. -1.
          4    1    6    6  502    0  0.36615791389E+02 -0.98166713689E+02  0.23888960845E+03  0.26085563992E+03  0.00000000000E+00 0. -1.
          1    1    5    5  503    0  0.63239477338E+02  0.12417902152E+03 -0.12386987759E+03  0.18644947695E+03  0.00000000000E+00 0. -1.
         -2    1    5    5    0  503  0.32998765142E+02  0.27831358882E+03 -0.17745809998E+03  0.33172089092E+03  0.00000000000E+00 0.  1.
         -3    1    6    6    0  502  0.48946180725E+02 -0.99964315722E+02  0.10638406096E+03  0.15396805334E+03  0.00000000000E+00 0.  1.
<mgrwt>
<rscale>  0 0.19178781E+04</rscale>
<asrwt>0</asrwt>
<pdfrwt beam="1">  1        1 0.28095952E+00 0.19178781E+04</pdfrwt>
<pdfrwt beam="2">  1       -1 0.77466069E-01 0.19178781E+04</pdfrwt>
<totfact> 0.61004788E+00</totfact>
</mgrwt>
</event>
<event>
12    1  0.1960998E-007  0.2373837E+04  0.7818608E-02  0.8449364E-01
          2   -1    0    0  501    0  0.00000000000E+00  0.00000000000E+00  0.18853968684E+04  0.18853968684E+04  0.00000000000E+00 0. -1.
         -2   -1    0    0    0  501 -0.00000000000E+00 -0.00000000000E+00 -0.74720347518E+03  0.74720347518E+03  0.00000000000E+00 0.  1.
         23    2    1    2    0    0  0.56243064330E+02 -0.11000168662E+02 -0.63343148532E+03  0.64249681697E+03  0.91007841547E+02 0.  0.
        254    2    1    2    0    0 -0.56243064330E+02  0.11000168662E+02  0.17716248785E+04  0.19901035266E+04  0.90475026963E+03 0.  0.
        -24    2    4    4    0    0 -0.38438345236E+03  0.11295482352E+03  0.39221788345E+03  0.56630450267E+03  0.79727605236E+02 0.  0.
         24    2    4    4    0    0  0.32814038803E+03 -0.10195465486E+03  0.13794069951E+04  0.14237990239E+04  0.79806870597E+02 0.  0.
         13    1    3    3    0    0  0.20843286089E+02  0.44205762350E+01 -0.25027734251E+02  0.32869005933E+02  0.00000000000E+00 0. -1.
        -13    1    3    3    0    0  0.35399778240E+02 -0.15420744897E+02 -0.60840375107E+03  0.60962781104E+03  0.00000000000E+00 0.  1.
          4    1    6    6  502    0  0.80338279914E+02  0.88345197713E+01  0.28574872219E+03  0.29695895371E+03  0.00000000000E+00 0. -1.
          1    1    5    5  503    0 -0.18463929571E+03  0.29082265688E+02  0.13823497297E+03  0.23247872042E+03  0.00000000000E+00 0. -1.
         -2    1    5    5    0  503 -0.19974415665E+03  0.83872557835E+02  0.25398291049E+03  0.33382578225E+03  0.00000000000E+00 0.  1.
         -1    1    6    6    0  502  0.24780210812E+03 -0.11078917463E+03  0.10936582729E+04  0.11268400702E+04  0.00000000000E+00 0.  1.
<mgrwt>
<rscale>  0 0.23738366E+04</rscale>
<asrwt>0</asrwt>
<pdfrwt beam="1">  1        2 0.29006106E+00 0.23738366E+04</pdfrwt>
<pdfrwt beam="2">  1       -2 0.11495438E+00 0.23738366E+04</pdfrwt>
<totfact> 0.41150610E+00</totfact>
</mgrwt>
</event>
<event>
12    1  0.1960998E-007  0.2102404E+04  0.7818608E-02  0.8560185E-01
          1   -1    0    0  501    0  0.00000000000E+00  0.00000000000E+00  0.14038095991E+04  0.14038095991E+04  0.00000000000E+00 0. -1.
         -1   -1    0    0    0  501 -0.00000000000E+00 -0.00000000000E+00 -0.78716173775E+03  0.78716173775E+03  0.00000000000E+00 0.  1.
         23    2    1    2    0    0  0.88683515625E+02  0.84009474163E+03  0.39377786248E+03  0.93643950669E+03  0.90741411984E+02 0.  0.
        254    2    1    2    0    0 -0.88683515625E+02 -0.84009474163E+03  0.22286999885E+03  0.12545318301E+04  0.90030835582E+03 0.  0.
        -24    2    4    4    0    0  0.11769444558E+03 -0.64272013407E+03  0.51647416628E+03  0.83689404927E+03  0.81883649240E+02 0.  0.
         24    2    4    4    0    0 -0.20637796121E+03 -0.19737460756E+03 -0.29360416743E+03  0.41763778085E+03  0.81665845252E+02 0.  0.
         13    1    3    3    0    0  0.68177414021E+02  0.62571984910E+03  0.24869319061E+03  0.67677307304E+03  0.00000000000E+00 0. -1.
        -13    1    3    3    0    0  0.20506101603E+02  0.21437489254E+03  0.14508467187E+03  0.25966643365E+03  0.00000000000E+00 0.  1.
          2    1    6    6  502    0 -0.10030748960E+03 -0.42218248145E+02 -0.11576766803E+03  0.15889029520E+03  0.00000000000E+00 0. -1.
          3    1    5    5  503    0  0.19143345199E+02 -0.11252987701E+03  0.13250970035E+03  0.17489500156E+03  0.00000000000E+00 0. -1.
         -4    1    5    5    0  503  0.98551100383E+02 -0.53019025707E+03  0.38396446593E+03  0.66199904771E+03  0.00000000000E+00 0.  1.
         -1    1    6    6    0  502 -0.10607047160E+03 -0.15515635941E+03 -0.17783649940E+03  0.25874748566E+03  0.00000000000E+00 0.  1.
<mgrwt>
<rscale>  0 0.21024036E+04</rscale>
<asrwt>0</asrwt>
<pdfrwt beam="1">  1        1 0.21597071E+00 0.21024036E+04</pdfrwt>
<pdfrwt beam="2">  1       -1 0.12110181E+00 0.21024036E+04</pdfrwt>
<totfact> 0.42500367E+00</totfact>
</mgrwt>
</event>
<event>
12    1  0.1960998E-007  0.1862954E+04  0.7818608E-02  0.8673519E-01
          2   -1    0    0  501    0  0.00000000000E+00  0.00000000000E+00  0.41276203506E+04  0.41276203506E+04  0.00000000000E+00 0. -1.
         -2   -1    0    0    0  501 -0.00000000000E+00 -0.00000000000E+00 -0.21020577093E+03  0.21020577093E+03  0.00000000000E+00 0.  1.
         23    2    1    2    0    0 -0.59109941001E+03 -0.24511128688E+02  0.24405377179E+04  0.25125990292E+04  0.83247950026E+02 0.  0.
        254    2    1    2    0    0  0.59109941001E+03  0.24511128688E+02  0.14768768617E+04  0.18252270923E+04  0.89458893672E+03 0.  0.
        -24    2    4    4    0    0 -0.15147778560E+03 -0.44423702979E+01  0.15207325794E+01  0.17131327511E+03  0.79879105012E+02 0.  0.
         24    2    4    4    0    0  0.74257719562E+03  0.28953498986E+02  0.14753561292E+04  0.16539138172E+04  0.80597830024E+02 0.  0.
         11    1    3    3    0    0 -0.44721708640E+03 -0.29836414609E+01  0.19678057249E+04  0.20179869662E+04  0.00000000000E+00 0. -1.
        -11    1    3    3    0    0 -0.14388232361E+03 -0.21527487227E+02  0.47273199298E+03  0.49461206307E+03  0.00000000000E+00 0.  1.
          2    1    6    6  502    0  0.59979398746E+03  0.18733962499E+02  0.11162329841E+04  0.12673120624E+04  0.00000000000E+00 0. -1.
          3    1    5    5  503    0 -0.12477570581E+03  0.26252433906E+02  0.15156490457E+02  0.12840516442E+03  0.00000000000E+00 0. -1.
         -4    1    5    5    0  503 -0.26702079788E+02 -0.30694804204E+02 -0.13635757878E+02  0.42908110690E+02  0.00000000000E+00 0.  1.
         -1    1    6    6    0  502  0.14278320815E+03  0.10219536486E+02  0.35912314510E+03  0.38660175479E+03  0.00000000000E+00 0.  1.
<mgrwt>
<rscale>  0 0.18629542E+04</rscale>
<asrwt>0</asrwt>
<pdfrwt beam="1">  1        2 0.63501846E+00 0.18629542E+04</pdfrwt>
<pdfrwt beam="2">  1       -2 0.32339352E-01 0.18629542E+04</pdfrwt>
<totfact> 0.22774928E+00</totfact>
</mgrwt>
</event>
<event>
12    1  0.1960998E-007  0.1811604E+04  0.7818608E-02  0.8700153E-01
          1   -1    0    0  501    0  0.00000000000E+00  0.00000000000E+00  0.19172804232E+04  0.19172804232E+04  0.00000000000E+00 0. -1.
         -1   -1    0    0    0  501 -0.00000000000E+00 -0.00000000000E+00 -0.42793787866E+03  0.42793787866E+03  0.00000000000E+00 0.  1.
         23    2    1    2    0    0 -0.39772962078E+03  0.16731070666E+03 -0.11547254421E+03  0.45638392103E+03  0.93651754392E+02 0.  0.
        254    2    1    2    0    0  0.39772962078E+03 -0.16731070666E+03  0.16048150887E+04  0.18888343808E+04  0.89782076457E+03 0.  0.
        -24    2    4    4    0    0  0.44771400898E+03 -0.29871118239E+03  0.16372924150E+04  0.17254193021E+04  0.81664628019E+02 0.  0.
         24    2    4    4    0    0 -0.49984388204E+02  0.13140047572E+03 -0.32477326296E+02  0.16341507869E+03  0.76714973354E+02 0.  0.
         13    1    3    3    0    0 -0.13534377708E+03  0.10586346415E+03 -0.37935644190E+02  0.17596625852E+03  0.00000000000E+00 0. -1.
        -13    1    3    3    0    0 -0.26238584370E+03  0.61447242514E+02 -0.77536900023E+02  0.28041766251E+03  0.00000000000E+00 0.  1.
          4    1    6    6  502    0 -0.15287675213E+02  0.97828895975E+02 -0.51396745360E+02  0.11156088622E+03  0.00000000000E+00 0. -1.
          3    1    5    5  503    0  0.43576679642E+03 -0.27622242760E+03  0.15131355419E+04  0.15986777970E+04  0.00000000000E+00 0. -1.
         -4    1    5    5    0  503  0.11947212563E+02 -0.22488754790E+02  0.12415687315E+03  0.12674150516E+03  0.00000000000E+00 0.  1.
         -3    1    6    6    0  502 -0.34696712991E+02  0.33571579748E+02  0.18919419064E+02  0.51854192472E+02  0.00000000000E+00 0.  1.
<mgrwt>
<rscale>  0 0.18116036E+04</rscale>
<asrwt>0</asrwt>
<pdfrwt beam="1">  1        1 0.29496621E+00 0.18116036E+04</pdfrwt>
<pdfrwt beam="2">  1       -1 0.65836598E-01 0.18116036E+04</pdfrwt>
<totfact> 0.74757027E+00</totfact>
</mgrwt>
</event>
<event>
12    1  0.1960998E-007  0.2838118E+04  0.7818608E-02  0.8291531E-01
         -2   -1    0    0    0  501 -0.00000000000E+00  0.00000000000E+00  0.22687907331E+04  0.22687907331E+04  0.00000000000E+00 0.  1.
          2   -1    0    0  501    0  0.00000000000E+00 -0.00000000000E+00 -0.88757812220E+03  0.88757812220E+03  0.00000000000E+00 0. -1.
         23    2    1    2    0    0  0.67584762672E+03 -0.58452968300E+03  0.16322764435E+04  0.18630870451E+04  0.91224912908E+02 0.  0.
        254    2    1    2    0    0 -0.67584762672E+03  0.58452968300E+03 -0.25106383261E+03  0.12932818102E+04  0.90061080811E+03 0.  0.
        -24    2    4    4    0    0 -0.60129420579E+03  0.61570395260E+03  0.14955419757E+03  0.87709697502E+03  0.79287870589E+02 0.  0.
         24    2    4    4    0    0 -0.74553420934E+02 -0.31174269598E+02 -0.40061803018E+03  0.41618483517E+03  0.78644537439E+02 0.  0.
         11    1    3    3    0    0  0.46552574305E+03 -0.40226017734E+03  0.12084058409E+04  0.13560133274E+04  0.00000000000E+00 0.  1.
        -11    1    3    3    0    0  0.21032188367E+03 -0.18226950567E+03  0.42387060261E+03  0.50707371772E+03  0.00000000000E+00 0. -1.
          2    1    6    6  502    0 -0.36407991913E+02 -0.47700343871E+02 -0.31894185437E+03  0.32453778077E+03  0.00000000000E+00 0. -1.
          1    1    5    5  503    0 -0.48216438883E+03  0.50123079602E+03  0.89152558166E+02  0.70118684197E+03  0.00000000000E+00 0. -1.
         -2    1    5    5    0  503 -0.11912981696E+03  0.11447315659E+03  0.60401639401E+02  0.17591013305E+03  0.00000000000E+00 0.  1.
         -1    1    6    6    0  502 -0.38145429021E+02  0.16526074273E+02 -0.81676175810E+02  0.91647054405E+02  0.00000000000E+00 0.  1.
<mgrwt>
<rscale>  0 0.28381184E+04</rscale>
<asrwt>0</asrwt>
<pdfrwt beam="1">  1        2 0.13655048E+00 0.28381184E+04</pdfrwt>
<pdfrwt beam="2">  1       -2 0.34904473E+00 0.28381184E+04</pdfrwt>
<totfact> 0.40909397E-01</totfact>
</mgrwt>
</event>
<event>
12    1  0.1960998E-007  0.4110563E+04  0.7818608E-02  0.7982607E-01
         -1   -1    0    0    0  501 -0.00000000000E+00  0.00000000000E+00  0.18561872951E+04  0.18561872951E+04  0.00000000000E+00 0.  1.
          1   -1    0    0  501    0  0.00000000000E+00 -0.00000000000E+00 -0.22757303462E+04  0.22757303462E+04  0.00000000000E+00 0. -1.
         23    2    1    2    0    0 -0.62825303876E+03  0.17582980750E+04 -0.78348666423E+03  0.20268874891E+04  0.90041873577E+02 0.  0.
        254    2    1    2    0    0  0.62825303876E+03 -0.17582980750E+04  0.36394361311E+03  0.21050301523E+04  0.90132290956E+03 0.  0.
        -24    2    4    4    0    0  0.26470146634E+03 -0.13401083129E+04  0.60404676302E+03  0.14956594627E+04  0.78533940918E+02 0.  0.
         24    2    4    4    0    0  0.36355157242E+03 -0.41818976206E+03 -0.24010314991E+03  0.60937068956E+03  0.81429059885E+02 0.  0.
         13    1    3    3    0    0 -0.87995112999E+02  0.24969348459E+03 -0.77664846258E+02  0.27590180228E+03  0.00000000000E+00 0.  1.
        -13    1    3    3    0    0 -0.54025792576E+03  0.15086045904E+04 -0.70582181797E+03  0.17509856868E+04  0.00000000000E+00 0. -1.
          4    1    6    6  502    0  0.27656663589E+03 -0.32606461640E+03 -0.22079971690E+03  0.48120655974E+03  0.00000000000E+00 0. -1.
          1    1    5    5  503    0  0.25934761834E+03 -0.12497878211E+04  0.58018958889E+03  0.14020879943E+04  0.00000000000E+00 0. -1.
         -2    1    5    5    0  503  0.53538480084E+01 -0.90320491886E+02  0.23857174134E+02  0.93571468412E+02  0.00000000000E+00 0.  1.
         -3    1    6    6    0  502  0.86984936525E+02 -0.92125145657E+02 -0.19303433018E+02  0.12816412981E+03  0.00000000000E+00 0.  1.
<mgrwt>
<rscale>  0 0.41105629E+04</rscale>
<asrwt>0</asrwt>
<pdfrwt beam="1">  1        1 0.35011236E+00 0.41105629E+04</pdfrwt>
<pdfrwt beam="2">  1       -1 0.28556728E+00 0.41105629E+04</pdfrwt>
<totfact> 0.61440963E-02</totfact>
</mgrwt>
</event>
<event>
12    1  0.2758555E-007  0.2050880E+04  0.7818608E-02  0.8583195E-01
         -2   -1    0    0    0  501 -0.00000000000E+00  0.00000000000E+00  0.51336142778E+03  0.51336142778E+03  0.00000000000E+00 0.  1.
          2   -1    0    0  501    0  0.00000000000E+00 -0.00000000000E+00 -0.20483174112E+04  0.20483174112E+04  0.00000000000E+00 0. -1.
         23    2    1    2    0    0 -0.27885806482E+03 -0.61321439334E+03 -0.12173426307E+04  0.13943908245E+04  0.92784581024E+02 0.  0.
        254    2    1    2    0    0  0.27885806482E+03  0.61321439334E+03 -0.31761335271E+03  0.11672880144E+04  0.89882665422E+03 0.  0.
        -24    2    4    4    0    0  0.47418471934E+03  0.23259503963E+03 -0.46411830836E+03  0.70793849284E+03  0.82580294042E+02 0.  0.
         24    2    4    4    0    0 -0.19532665453E+03  0.38061935371E+03  0.14650495566E+03  0.45934952161E+03  0.80713608395E+02 0.  0.
         13    1    3    3    0    0 -0.17154201978E+03 -0.32050386017E+03 -0.73640627722E+03  0.82124514858E+03  0.00000000000E+00 0.  1.
        -13    1    3    3    0    0 -0.10731604503E+03 -0.29271053318E+03 -0.48093635344E+03  0.57314567591E+03  0.00000000000E+00 0. -1.
          4    1    6    6  502    0 -0.16850481811E+03  0.29431702017E+03  0.14532974981E+03  0.36896763851E+03  0.00000000000E+00 0. -1.
          1    1    5    5  503    0  0.44321561359E+03  0.22760606572E+03 -0.40940026777E+03  0.64486679286E+03  0.00000000000E+00 0. -1.
         -2    1    5    5    0  503  0.30969105748E+02  0.49889739122E+01 -0.54718040590E+02  0.63071699973E+02  0.00000000000E+00 0.  1.
         -3    1    6    6    0  502 -0.26821836422E+02  0.86302333545E+02  0.11752058481E+01  0.90381883102E+02  0.00000000000E+00 0.  1.
<mgrwt>
<rscale>  0 0.20508800E+04</rscale>
<asrwt>0</asrwt>
<pdfrwt beam="1">  1        2 0.31512575E+00 0.20508800E+04</pdfrwt>
<pdfrwt beam="2">  1       -2 0.78978682E-01 0.20508800E+04</pdfrwt>
<totfact> 0.82660364E+00</totfact>
</mgrwt>
</event>
<event>
12    1  0.1960998E-007  0.2868784E+04  0.7818608E-02  0.8282226E-01
         -1   -1    0    0    0  501 -0.00000000000E+00  0.00000000000E+00  0.96261390470E+03  0.96261390470E+03  0.00000000000E+00 0.  1.
          1   -1    0    0  501    0  0.00000000000E+00 -0.00000000000E+00 -0.21373889960E+04  0.21373889960E+04  0.00000000000E+00 0. -1.
         23    2    1    2    0    0 -0.42434958263E+03 -0.78041340463E+03 -0.15443785710E+04  0.17839983895E+04  0.91801049856E+02 0.  0.
        254    2    1    2    0    0  0.42434958263E+03  0.78041340463E+03  0.36960347967E+03  0.13160045112E+04  0.89785493872E+03 0.  0.
        -24    2    4    4    0    0 -0.21085010979E+03 -0.21735481297E+02 -0.11105307429E+01  0.22481525066E+03  0.74903028695E+02 0.  0.
         24    2    4    4    0    0  0.63519969241E+03  0.80214888592E+03  0.37071401041E+03  0.10911892606E+04  0.79646973736E+02 0.  0.
         13    1    3    3    0    0 -0.51835488421E+02 -0.15454780715E+03 -0.24162087393E+03  0.29146627468E+03  0.00000000000E+00 0.  1.
        -13    1    3    3    0    0 -0.37251409421E+03 -0.62586559747E+03 -0.13027576970E+04  0.14925321148E+04  0.00000000000E+00 0. -1.
          2    1    6    6  502    0  0.25791528245E+02  0.49384837476E+02  0.36588925343E+02  0.66654441408E+02  0.00000000000E+00 0. -1.
          1    1    5    5  503    0 -0.99280936412E+01  0.12439562449E+02 -0.13159821948E+02  0.20651650563E+02  0.00000000000E+00 0. -1.
         -2    1    5    5    0  503 -0.20092201614E+03 -0.34175043746E+02  0.12049291205E+02  0.20416360010E+03  0.00000000000E+00 0.  1.
         -1    1    6    6    0  502  0.60940816417E+03  0.75276404845E+03  0.33412508507E+03  0.10245348192E+04  0.00000000000E+00 0.  1.
<mgrwt>
<rscale>  0 0.28687840E+04</rscale>
<asrwt>0</asrwt>
<pdfrwt beam="1">  1        1 0.32882907E+00 0.28687840E+04</pdfrwt>
<pdfrwt beam="2">  1       -1 0.14809445E+00 0.28687840E+04</pdfrwt>
<totfact> 0.74686920E-01</totfact>
</mgrwt>
</event>
<event>
12    1  0.1960998E-007  0.1430135E+04  0.7818608E-02  0.8932289E-01
         -1   -1    0    0    0  501 -0.00000000000E+00  0.00000000000E+00  0.36177005073E+03  0.36177005073E+03  0.00000000000E+00 0.  1.
          1   -1    0    0  501    0  0.00000000000E+00 -0.00000000000E+00 -0.14133891551E+04  0.14133891551E+04  0.00000000000E+00 0. -1.
         23    2    1    2    0    0 -0.33007730146E+03  0.22809833241E+03 -0.49368174257E+03  0.64257516047E+03  0.90561027612E+02 0.  0.
        254    2    1    2    0    0  0.33007730146E+03 -0.22809833241E+03 -0.55793736175E+03  0.11325840453E+04  0.90026254274E+03 0.  0.
        -24    2    4    4    0    0  0.48470470041E+03 -0.37783645388E+03 -0.10915151292E+03  0.62928538012E+03  0.79918736112E+02 0.  0.
         24    2    4    4    0    0 -0.15462739895E+03  0.14973812147E+03 -0.44878584883E+03  0.50329866519E+03  0.74630226711E+02 0.  0.
         13    1    3    3    0    0 -0.22570557852E+03  0.19648331894E+03 -0.39457047288E+03  0.49521163240E+03  0.00000000000E+00 0. -1.
        -13    1    3    3    0    0 -0.10437172294E+03  0.31615013468E+02 -0.99111269697E+02  0.14736352808E+03  0.00000000000E+00 0.  1.
          2    1    6    6  502    0 -0.71265272044E+02  0.96920511090E+02 -0.17578683184E+03  0.21301017515E+03  0.00000000000E+00 0. -1.
          1    1    5    5  503    0  0.22109019720E+03 -0.18006459563E+03 -0.90691247365E+02  0.29921403083E+03  0.00000000000E+00 0. -1.
         -2    1    5    5    0  503  0.26361450321E+03 -0.19777185825E+03 -0.18460265554E+02  0.33007134929E+03  0.00000000000E+00 0.  1.
         -1    1    6    6    0  502 -0.83362126903E+02  0.52817610380E+02 -0.27299901699E+03  0.29028849003E+03  0.00000000000E+00 0.  1.
<mgrwt>
<rscale>  0 0.14301355E+04</rscale>
<asrwt>0</asrwt>
<pdfrwt beam="1">  1        1 0.21744449E+00 0.14301355E+04</pdfrwt>
<pdfrwt beam="2">  1       -1 0.55656930E-01 0.14301355E+04</pdfrwt>
<totfact> 0.23874723E+01</totfact>
</mgrwt>
</event>
<event>
12    1  0.1960998E-007  0.1632863E+04  0.7818608E-02  0.8800609E-01
         -2   -1    0    0    0  501 -0.00000000000E+00  0.00000000000E+00  0.60112228431E+03  0.60112228431E+03  0.00000000000E+00 0. -1.
          2   -1    0    0  501    0  0.00000000000E+00 -0.00000000000E+00 -0.11088605197E+04  0.11088605197E+04  0.00000000000E+00 0.  1.
         23    2    1    2    0    0  0.16556670496E+02 -0.37245179770E+03 -0.62102516257E+03  0.72991485735E+03  0.90049883390E+02 0.  0.
        254    2    1    2    0    0 -0.16556670496E+02  0.37245179770E+03  0.11328692722E+03  0.98006794662E+03  0.89928014943E+03 0.  0.
        -24    2    4    4    0    0  0.48038497555E+02  0.52654062835E+03 -0.23597655228E+03  0.58433860360E+03  0.78828547318E+02 0.  0.
         24    2    4    4    0    0 -0.64595168051E+02 -0.15408883065E+03  0.34926347950E+03  0.39572934302E+03  0.81858605831E+02 0.  0.
         11    1    3    3    0    0 -0.33022714754E+01 -0.39013126245E+01 -0.48267955515E+02  0.48537828204E+02  0.00000000000E+00 0. -1.
        -11    1    3    3    0    0  0.19858941971E+02 -0.36855048508E+03 -0.57275720705E+03  0.68137702915E+03  0.00000000000E+00 0.  1.
          4    1    6    6  502    0 -0.37610654157E+02 -0.71108455414E+02  0.25450474585E+03  0.26691504153E+03  0.00000000000E+00 0. -1.
          3    1    5    5  503    0  0.47968191454E+01  0.32639683919E+03 -0.17660433896E+03  0.37114282783E+03  0.00000000000E+00 0. -1.
         -4    1    5    5    0  503  0.43241678410E+02  0.20014378916E+03 -0.59372213329E+02  0.21319577577E+03  0.00000000000E+00 0.  1.
         -1    1    6    6    0  502 -0.26984513894E+02 -0.82980375237E+02  0.94758733654E+02  0.12881430149E+03  0.00000000000E+00 0.  1.
<mgrwt>
<rscale>  0 0.16328635E+04</rscale>
<asrwt>0</asrwt>
<pdfrwt beam="1">  1        2 0.17059393E+00 0.16328635E+04</pdfrwt>
<pdfrwt beam="2">  1       -2 0.92480351E-01 0.16328635E+04</pdfrwt>
<totfact> 0.20423530E+01</totfact>
</mgrwt>
</event>
<event>
12    1  0.1960998E-007  0.1828937E+04  0.7818608E-02  0.8691061E-01
          2   -1    0    0  501    0  0.00000000000E+00  0.00000000000E+00  0.20594982696E+04  0.20594982696E+04  0.00000000000E+00 0. -1.
         -2   -1    0    0    0  501 -0.00000000000E+00 -0.00000000000E+00 -0.40604658639E+03  0.40604658639E+03  0.00000000000E+00 0.  1.
         23    2    1    2    0    0  0.53701815181E+03 -0.15054084910E+03  0.82278684659E+02  0.57099317482E+03  0.90622188920E+02 0.  0.
        254    2    1    2    0    0 -0.53701815181E+03  0.15054084910E+03  0.15711729985E+04  0.18945516812E+04  0.89982800503E+03 0.  0.
        -24    2    4    4    0    0  0.77945927372E+02  0.14798012965E+03  0.11004375712E+04  0.11159000074E+04  0.79349177063E+02 0.  0.
         24    2    4    4    0    0 -0.61496407918E+03  0.25607194468E+01  0.47073542729E+03  0.77865167378E+03  0.80741628709E+02 0.  0.
         11    1    3    3    0    0  0.28349753224E+03 -0.88888918734E+02 -0.10246479169E+01  0.29710796112E+03  0.00000000000E+00 0.  1.
        -11    1    3    3    0    0  0.25352061957E+03 -0.61651930364E+02  0.83303332576E+02  0.27388521370E+03  0.00000000000E+00 0. -1.
          4    1    6    6  502    0 -0.33980719599E+03 -0.31661785238E+02  0.23101112963E+03  0.41211350512E+03  0.00000000000E+00 0. -1.
          1    1    5    5  503    0  0.23727413196E+01  0.48571758042E+02  0.16054501907E+03  0.16774846864E+03  0.00000000000E+00 0. -1.
         -2    1    5    5    0  503  0.75573186053E+02  0.99408371610E+02  0.93989255216E+03  0.94815153874E+03  0.00000000000E+00 0.  1.
         -3    1    6    6    0  502 -0.27515688319E+03  0.34222504685E+02  0.23972429766E+03  0.36653816866E+03  0.00000000000E+00 0.  1.
<mgrwt>
<rscale>  0 0.18289366E+04</rscale>
<asrwt>0</asrwt>
<pdfrwt beam="1">  1        2 0.31684588E+00 0.18289366E+04</pdfrwt>
<pdfrwt beam="2">  1       -2 0.62468707E-01 0.18289366E+04</pdfrwt>
<totfact> 0.13860266E+01</totfact>
</mgrwt>
</event>
<event>
12    1  0.1960998E-007  0.1173259E+04  0.7818608E-02  0.9136590E-01
          1   -1    0    0  501    0  0.00000000000E+00  0.00000000000E+00  0.71869587511E+03  0.71869587511E+03  0.00000000000E+00 0. -1.
         -1   -1    0    0    0  501 -0.00000000000E+00 -0.00000000000E+00 -0.47883149128E+03  0.47883149128E+03  0.00000000000E+00 0.  1.
         23    2    1    2    0    0  0.16808170004E+03 -0.41468286599E+02 -0.91864974367E+02  0.21612815836E+03  0.91110540749E+02 0.  0.
        254    2    1    2    0    0 -0.16808170004E+03  0.41468286599E+02  0.33172935819E+03  0.98139920804E+03  0.90726454894E+03 0.  0.
        -24    2    4    4    0    0  0.25842535876E+03  0.66219385802E+02 -0.16300215087E+03  0.32278052427E+03  0.80304997079E+02 0.  0.
         24    2    4    4    0    0 -0.42650705880E+03 -0.24751099203E+02  0.49473150907E+03  0.65861868376E+03  0.80612755945E+02 0.  0.
         13    1    3    3    0    0  0.17883711545E+02 -0.39856769086E+02 -0.33210784085E+02  0.54875726511E+02  0.00000000000E+00 0. -1.
        -13    1    3    3    0    0  0.15019798850E+03 -0.16115175124E+01 -0.58654190282E+02  0.16125243184E+03  0.00000000000E+00 0.  1.
          4    1    6    6  502    0 -0.42140550522E+03 -0.35111325781E+02  0.48548092298E+03  0.64382228263E+03  0.00000000000E+00 0. -1.
          3    1    5    5  503    0  0.15415931242E+03  0.58627972016E+02 -0.13858356128E+03  0.21542454866E+03  0.00000000000E+00 0. -1.
         -4    1    5    5    0  503  0.10426604634E+03  0.75914137858E+01 -0.24418589595E+02  0.10735597561E+03  0.00000000000E+00 0.  1.
         -3    1    6    6    0  502 -0.51015535798E+01  0.10360226577E+02  0.92505860821E+01  0.14796401134E+02  0.00000000000E+00 0.  1.
<mgrwt>
<rscale>  0 0.11732591E+04</rscale>
<asrwt>0</asrwt>
<pdfrwt beam="1">  1        1 0.11056860E+00 0.11732591E+04</pdfrwt>
<pdfrwt beam="2">  1       -1 0.73666383E-01 0.11732591E+04</pdfrwt>
<totfact> 0.48182186E+01</totfact>
</mgrwt>
</event>
<event>
12    1  0.1960998E-007  0.1630474E+04  0.7818608E-02  0.8802043E-01
         -2   -1    0    0    0  501 -0.00000000000E+00  0.00000000000E+00  0.10804755454E+04  0.10804755454E+04  0.00000000000E+00 0.  1.
          2   -1    0    0  501    0  0.00000000000E+00 -0.00000000000E+00 -0.61510974161E+03  0.61510974161E+03  0.00000000000E+00 0. -1.
         23    2    1    2    0    0  0.51397021320E+03  0.21686591660E+03  0.98004785543E+02  0.57369523226E+03  0.91241852756E+02 0.  0.
        254    2    1    2    0    0 -0.51397021320E+03 -0.21686591660E+03  0.36736101825E+03  0.11218900548E+04  0.90138059186E+03 0.  0.
        -24    2    4    4    0    0  0.23149090971E+03 -0.13748802508E+03  0.21288713366E+03  0.35222985511E+03  0.79081861601E+02 0.  0.
         24    2    4    4    0    0 -0.74546112291E+03 -0.79377891514E+02  0.15447388459E+03  0.76966019964E+03  0.80631919618E+02 0.  0.
         11    1    3    3    0    0  0.35204058282E+03  0.17949759640E+03  0.37897610438E+02  0.39697378748E+03  0.00000000000E+00 0.  1.
        -11    1    3    3    0    0  0.16192963038E+03  0.37368320202E+02  0.60107175105E+02  0.17672144479E+03  0.00000000000E+00 0. -1.
          4    1    6    6  502    0 -0.72302696328E+02  0.53259530211E+01 -0.51088686946E+01  0.72678375128E+02  0.00000000000E+00 0. -1.
          3    1    5    5  503    0  0.12959300750E+03 -0.77587238507E+02  0.16768323970E+03  0.22568073921E+03  0.00000000000E+00 0. -1.
         -4    1    5    5    0  503  0.10189790221E+03 -0.59900786576E+02  0.45203893959E+02  0.12654911591E+03  0.00000000000E+00 0.  1.
         -3    1    6    6    0  502 -0.67315842658E+03 -0.84703844535E+02  0.15958275328E+03  0.69698182451E+03  0.00000000000E+00 0.  1.
<mgrwt>
<rscale>  0 0.16304736E+04</rscale>
<asrwt>0</asrwt>
<pdfrwt beam="1">  1        2 0.94632268E-01 0.16304736E+04</pdfrwt>
<pdfrwt beam="2">  1       -2 0.16622701E+00 0.16304736E+04</pdfrwt>
<totfact> 0.10433351E+01</totfact>
</mgrwt>
</event>
<event>
12    1  0.1960998E-007  0.2503610E+04  0.7818608E-02  0.8401700E-01
          1   -1    0    0  501    0  0.00000000000E+00  0.00000000000E+00  0.16265165939E+04  0.16265165939E+04  0.00000000000E+00 0. -1.
         -1   -1    0    0    0  501 -0.00000000000E+00 -0.00000000000E+00 -0.96341853073E+03  0.96341853073E+03  0.00000000000E+00 0.  1.
         23    2    1    2    0    0 -0.10207815211E+04 -0.21258105578E+03 -0.27118538615E+02  0.10475253424E+04  0.96893285380E+02 0.  0.
        254    2    1    2    0    0  0.10207815211E+04  0.21258105578E+03  0.69021660175E+03  0.15424097822E+04  0.90301902526E+03 0.  0.
        -24    2    4    4    0    0  0.94044534461E+03  0.35167202251E+03  0.83788528786E+03  0.13101570845E+04  0.79681697891E+02 0.  0.
         24    2    4    4    0    0  0.80336176453E+02 -0.13909096672E+03 -0.14766868610E+03  0.23225269769E+03  0.79593193534E+02 0.  0.
         11    1    3    3    0    0 -0.86929650197E+03 -0.16121605908E+03 -0.51990698422E+02  0.88564668958E+03  0.00000000000E+00 0. -1.
        -11    1    3    3    0    0 -0.15148501909E+03 -0.51364996702E+02  0.24872159807E+02  0.16187865279E+03  0.00000000000E+00 0.  1.
          2    1    6    6  502    0 -0.33459711141E+01  0.23802797239E+01 -0.29577408401E+02  0.29861084072E+02  0.00000000000E+00 0. -1.
          1    1    5    5  503    0  0.48581668368E+02  0.35071027829E+02  0.63648181950E+02  0.87414224014E+02  0.00000000000E+00 0. -1.
         -2    1    5    5    0  503  0.89186367624E+03  0.31660099468E+03  0.77423710591E+03  0.12227428605E+04  0.00000000000E+00 0.  1.
         -1    1    6    6    0  502  0.83682147568E+02 -0.14147124645E+03 -0.11809127770E+03  0.20239161362E+03  0.00000000000E+00 0.  1.
<mgrwt>
<rscale>  0 0.25036104E+04</rscale>
<asrwt>0</asrwt>
<pdfrwt beam="1">  1        1 0.25023332E+00 0.25036104E+04</pdfrwt>
<pdfrwt beam="2">  1       -1 0.14821824E+00 0.25036104E+04</pdfrwt>
<totfact> 0.17123445E+00</totfact>
</mgrwt>
</event>
<event>
12    1  0.1960998E-007  0.2348508E+04  0.7818608E-02  0.8459037E-01
          2   -1    0    0  501    0  0.00000000000E+00  0.00000000000E+00  0.25285395499E+04  0.25285395499E+04  0.00000000000E+00 0. -1.
         -2   -1    0    0    0  501 -0.00000000000E+00 -0.00000000000E+00 -0.54532376970E+03  0.54532376970E+03  0.00000000000E+00 0.  1.
         23    2    1    2    0    0  0.96754446659E+03  0.15579232946E+03  0.58935052882E+03  0.11465810304E+04  0.83069059251E+02 0.  0.
        254    2    1    2    0    0 -0.96754446659E+03 -0.15579232946E+03  0.13938652514E+04  0.19272822892E+04  0.90063485312E+03 0.  0.
        -24    2    4    4    0    0 -0.68898831823E+03  0.11501212724E+03  0.13577746685E+04  0.15290347946E+04  0.80390675443E+02 0.  0.
         24    2    4    4    0    0 -0.27855614836E+03 -0.27080445670E+03  0.36090582894E+02  0.39824749462E+03  0.79811999350E+02 0.  0.
         11    1    3    3    0    0  0.81630884271E+03  0.12011680765E+03  0.52767259849E+03  0.97940111566E+03  0.00000000000E+00 0. -1.
        -11    1    3    3    0    0  0.15123562389E+03  0.35675521807E+02  0.61677930333E+02  0.16717991470E+03  0.00000000000E+00 0.  1.
          4    1    6    6  502    0 -0.23986926062E+03 -0.22906871872E+03  0.15568959654E+01  0.33168081647E+03  0.00000000000E+00 0. -1.
          3    1    5    5  503    0 -0.20945907515E+03  0.10742691245E+02  0.46954668681E+03  0.51425927378E+03  0.00000000000E+00 0. -1.
         -4    1    5    5    0  503 -0.47952924308E+03  0.10426943600E+03  0.88822798166E+03  0.10147755208E+04  0.00000000000E+00 0.  1.
         -3    1    6    6    0  502 -0.38686887745E+02 -0.41735737977E+02  0.34533686928E+02  0.66566678156E+02  0.00000000000E+00 0.  1.
<mgrwt>
<rscale>  0 0.23485082E+04</rscale>
<asrwt>0</asrwt>
<pdfrwt beam="1">  1        2 0.38900608E+00 0.23485082E+04</pdfrwt>
<pdfrwt beam="2">  1       -2 0.83895966E-01 0.23485082E+04</pdfrwt>
<totfact> 0.37556960E+00</totfact>
</mgrwt>
</event>
<event>
12    1  0.1960998E-007  0.2452449E+04  0.7818608E-02  0.8420124E-01
         -1   -1    0    0    0  501 -0.00000000000E+00  0.00000000000E+00  0.80536554224E+03  0.80536554224E+03  0.00000000000E+00 0.  1.
          1   -1    0    0  501    0  0.00000000000E+00 -0.00000000000E+00 -0.18670118781E+04  0.18670118781E+04  0.00000000000E+00 0. -1.
         23    2    1    2    0    0 -0.44316537513E+03  0.82533231280E+03  0.78644321649E+02  0.94447197491E+03  0.90958264048E+02 0.  0.
        254    2    1    2    0    0  0.44316537513E+03 -0.82533231280E+03 -0.11402906575E+04  0.17279054455E+04  0.89879111506E+03 0.  0.
        -24    2    4    4    0    0 -0.26135176836E+03 -0.26049544982E+03 -0.22479082791E+03  0.43964641932E+03  0.81212262098E+02 0.  0.
         24    2    4    4    0    0  0.70451714349E+03 -0.56483686298E+03 -0.91549982962E+03  0.12882590261E+04  0.78014698065E+02 0.  0.
         11    1    3    3    0    0 -0.20061080899E+03  0.34370404815E+03  0.76272442349E+02  0.40520939631E+03  0.00000000000E+00 0. -1.
        -11    1    3    3    0    0 -0.24255456615E+03  0.48162826465E+03  0.23718792999E+01  0.53926257860E+03  0.00000000000E+00 0.  1.
          4    1    6    6  502    0  0.38907066851E+03 -0.29878997511E+03 -0.44367768338E+03  0.66143882639E+03  0.00000000000E+00 0. -1.
          3    1    5    5  503    0 -0.18573000991E+03 -0.13440340194E+03 -0.15613187245E+03  0.27737532808E+03  0.00000000000E+00 0. -1.
         -4    1    5    5    0  503 -0.75621758449E+02 -0.12609204788E+03 -0.68658955458E+02  0.16227109125E+03  0.00000000000E+00 0.  1.
         -3    1    6    6    0  502  0.31544647498E+03 -0.26604688787E+03 -0.47182214624E+03  0.62682019974E+03  0.00000000000E+00 0.  1.
<mgrwt>
<rscale>  0 0.24524494E+04</rscale>
<asrwt>0</asrwt>
<pdfrwt beam="1">  1        1 0.28723259E+00 0.24524494E+04</pdfrwt>
<pdfrwt beam="2">  1       -1 0.12390239E+00 0.24524494E+04</pdfrwt>
<totfact> 0.18718233E+00</totfact>
</mgrwt>
</event>
<event>
12    1  0.1960998E-007  0.2450895E+04  0.7818608E-02  0.8420691E-01
         -2   -1    0    0    0  501 -0.00000000000E+00  0.00000000000E+00  0.77432353425E+03  0.77432353425E+03  0.00000000000E+00 0.  1.
          2   -1    0    0  501    0  0.00000000000E+00 -0.00000000000E+00 -0.19393987578E+04  0.19393987578E+04  0.00000000000E+00 0. -1.
         23    2    1    2    0    0  0.24903044221E+03  0.69498515369E+03 -0.13433940692E+04  0.15353488363E+04  0.86993671757E+02 0.  0.
        254    2    1    2    0    0 -0.24903044221E+03 -0.69498515369E+03  0.17831884572E+03  0.11783734557E+04  0.90096940313E+03 0.  0.
        -24    2    4    4    0    0 -0.48169791165E+03 -0.58532018247E+03 -0.12574585163E+03  0.77242239315E+03  0.78687611143E+02 0.  0.
         24    2    4    4    0    0  0.23266746943E+03 -0.10966497122E+03  0.30406469734E+03  0.40595106256E+03  0.78615315144E+02 0.  0.
         11    1    3    3    0    0  0.97181045741E+02  0.34710932211E+03 -0.58191087453E+03  0.68450661286E+03  0.00000000000E+00 0.  1.
        -11    1    3    3    0    0  0.15184939647E+03  0.34787583158E+03 -0.76148319471E+03  0.85084222346E+03  0.00000000000E+00 0. -1.
          2    1    6    6  502    0  0.10056695499E+03 -0.56128183113E+02  0.19501400259E+03  0.22648299403E+03  0.00000000000E+00 0. -1.
          3    1    5    5  503    0 -0.46969086829E+03 -0.58480636690E+03 -0.12292868611E+03  0.76007858830E+03  0.00000000000E+00 0. -1.
         -4    1    5    5    0  503 -0.12007043357E+02 -0.51381556736E+00 -0.28171655161E+01  0.12343804850E+02  0.00000000000E+00 0.  1.
         -1    1    6    6    0  502  0.13210051444E+03 -0.53536788108E+02  0.10905069475E+03  0.17946806853E+03  0.00000000000E+00 0.  1.
<mgrwt>
<rscale>  0 0.24508954E+04</rscale>
<asrwt>0</asrwt>
<pdfrwt beam="1">  1        2 0.29836904E+00 0.24508954E+04</pdfrwt>
<pdfrwt beam="2">  1       -2 0.11912670E+00 0.24508954E+04</pdfrwt>
<totfact> 0.34962848E+00</totfact>
</mgrwt>
</event>
<event>
12    1  0.1960998E-007  0.3188783E+04  0.7818608E-02  0.8191786E-01
         -1   -1    0    0    0  501 -0.00000000000E+00  0.00000000000E+00  0.13158453789E+04  0.13158453789E+04  0.00000000000E+00 0.  1.
          1   -1    0    0  501    0  0.00000000000E+00 -0.00000000000E+00 -0.19319016837E+04  0.19319016837E+04  0.00000000000E+00 0. -1.
         23    2    1    2    0    0  0.10372012778E+04  0.78465001501E+02 -0.13411422776E+04  0.16997395002E+04  0.92241600325E+02 0.  0.
        254    2    1    2    0    0 -0.10372012778E+04 -0.78465001501E+02  0.72508597284E+03  0.15480075624E+04  0.88805095465E+03 0.  0.
        -24    2    4    4    0    0 -0.95462203666E+03 -0.19438533079E+03  0.19941192019E+03  0.99760063999E+03  0.79705917572E+02 0.  0.
         24    2    4    4    0    0 -0.82579241120E+02  0.11592032929E+03  0.52567405265E+03  0.55040692237E+03  0.79735291812E+02 0.  0.
         11    1    3    3    0    0  0.80704369522E+03  0.24349910097E+02 -0.10568347642E+04  0.13299669782E+04  0.00000000000E+00 0. -1.
        -11    1    3    3    0    0  0.23015758256E+03  0.54115091404E+02 -0.28430751337E+03  0.36977252208E+03  0.00000000000E+00 0.  1.
          2    1    6    6  502    0 -0.62086803077E+02  0.61745600271E+02  0.18297475693E+03  0.20284736119E+03  0.00000000000E+00 0. -1.
          3    1    5    5  503    0 -0.50044236154E+03 -0.11811094852E+03  0.67925879571E+02  0.51865853748E+03  0.00000000000E+00 0. -1.
         -4    1    5    5    0  503 -0.45417967513E+03 -0.76274382266E+02  0.13148604061E+03  0.47894210252E+03  0.00000000000E+00 0.  1.
         -1    1    6    6    0  502 -0.20492438043E+02  0.54174729016E+02  0.34269929572E+03  0.34755956118E+03  0.00000000000E+00 0.  1.
<mgrwt>
<rscale>  0 0.31887828E+04</rscale>
<asrwt>0</asrwt>
<pdfrwt beam="1">  1        1 0.29721564E+00 0.31887828E+04</pdfrwt>
<pdfrwt beam="2">  1       -1 0.20243775E+00 0.31887828E+04</pdfrwt>
<totfact> 0.40195306E-01</totfact>
</mgrwt>
</event>
<event>
12    1  0.1960998E-007  0.2180879E+04  0.7818608E-02  0.8526429E-01
          1   -1    0    0  501    0  0.00000000000E+00  0.00000000000E+00  0.14354799019E+04  0.14354799019E+04  0.00000000000E+00 0. -1.
         -1   -1    0    0    0  501 -0.00000000000E+00 -0.00000000000E+00 -0.82833486874E+03  0.82833486874E+03  0.00000000000E+00 0.  1.
         23    2    1    2    0    0 -0.71797739573E+03 -0.54114718524E+03  0.26926992516E+03  0.94309655389E+03  0.92698438441E+02 0.  0.
        254    2    1    2    0    0  0.71797739573E+03  0.54114718524E+03  0.33787510803E+03  0.13207182168E+04  0.90653472222E+03 0.  0.
        -24    2    4    4    0    0  0.53762046125E+01  0.51653408693E+02  0.43742556824E+03  0.44753242902E+03  0.79039035117E+02 0.  0.
         24    2    4    4    0    0  0.71260119112E+03  0.48949377655E+03 -0.99550460209E+02  0.87318578774E+03  0.71683407579E+02 0.  0.
         11    1    3    3    0    0 -0.39507605579E+03 -0.34925241895E+03  0.17800380467E+03  0.55654981491E+03  0.00000000000E+00 0. -1.
        -11    1    3    3    0    0 -0.32290133994E+03 -0.19189476629E+03  0.91266120483E+02  0.38654673898E+03  0.00000000000E+00 0.  1.
          2    1    6    6  502    0  0.70470378188E+03  0.47191989099E+03 -0.95364722511E+02  0.85346952728E+03  0.00000000000E+00 0. -1.
          1    1    5    5  503    0 -0.22443728237E+02 -0.75141944890E+01  0.60251960404E+02  0.64733938459E+02  0.00000000000E+00 0. -1.
         -2    1    5    5    0  503  0.27819932849E+02  0.59167603182E+02  0.37717360783E+03  0.38279849056E+03  0.00000000000E+00 0.  1.
         -3    1    6    6    0  502  0.78974092450E+01  0.17573885560E+02 -0.41857376980E+01  0.19716260460E+02  0.00000000000E+00 0.  1.
<mgrwt>
<rscale>  0 0.21808788E+04</rscale>
<asrwt>0</asrwt>
<pdfrwt beam="1">  1        1 0.22084306E+00 0.21808788E+04</pdfrwt>
<pdfrwt beam="2">  1       -1 0.12743613E+00 0.21808788E+04</pdfrwt>
<totfact> 0.35331944E+00</totfact>
</mgrwt>
</event>
<event>
12    1  0.1960998E-007  0.1815352E+04  0.7818608E-02  0.8698178E-01
         -1   -1    0    0    0  501 -0.00000000000E+00  0.00000000000E+00  0.10613713373E+04  0.10613713373E+04  0.00000000000E+00 0.  1.
          1   -1    0    0  501    0  0.00000000000E+00 -0.00000000000E+00 -0.77623685028E+03  0.77623685028E+03  0.00000000000E+00 0. -1.
         23    2    1    2    0    0  0.30409286426E+03 -0.22913320014E+03 -0.46326309983E+03  0.60649147936E+03  0.90800448118E+02 0.  0.
        254    2    1    2    0    0 -0.30409286426E+03  0.22913320014E+03  0.74839758688E+03  0.12311167082E+04  0.90031933655E+03 0.  0.
        -24    2    4    4    0    0  0.14873699725E+03  0.51572382645E+01 -0.13096786929E+03  0.21397130615E+03  0.80509910018E+02 0.  0.
         24    2    4    4    0    0 -0.45282986151E+03  0.22397596187E+03  0.87936545616E+03  0.10171454021E+04  0.77981077955E+02 0.  0.
         11    1    3    3    0    0  0.16009265920E+03 -0.17603151104E+03 -0.28376660118E+03  0.37032450143E+03  0.00000000000E+00 0.  1.
        -11    1    3    3    0    0  0.14400020506E+03 -0.53101689096E+02 -0.17949649864E+03  0.23616697794E+03  0.00000000000E+00 0. -1.
          4    1    6    6  502    0 -0.38640614516E+03  0.19051073933E+03  0.68708384625E+03  0.81097981640E+03  0.00000000000E+00 0. -1.
          1    1    5    5  503    0  0.13384103593E+03 -0.17289520665E+02 -0.12942977923E+03  0.18698774872E+03  0.00000000000E+00 0. -1.
         -2    1    5    5    0  503  0.14895961327E+02  0.22446758929E+02 -0.15380900624E+01  0.26983557425E+02  0.00000000000E+00 0.  1.
         -3    1    6    6    0  502 -0.66423716346E+02  0.33465222545E+02  0.19228160991E+03  0.20616558569E+03  0.00000000000E+00 0.  1.
<mgrwt>
<rscale>  0 0.18153518E+04</rscale>
<asrwt>0</asrwt>
<pdfrwt beam="1">  1        1 0.11942105E+00 0.18153518E+04</pdfrwt>
<pdfrwt beam="2">  1       -1 0.16328790E+00 0.18153518E+04</pdfrwt>
<totfact> 0.60348736E+00</totfact>
</mgrwt>
</event>
<event>
12    1  0.1960998E-007  0.1931000E+04  0.7818608E-02  0.8639578E-01
          2   -1    0    0  501    0  0.00000000000E+00  0.00000000000E+00  0.14417764025E+04  0.14417764025E+04  0.00000000000E+00 0. -1.
         -2   -1    0    0    0  501 -0.00000000000E+00 -0.00000000000E+00 -0.64655691441E+03  0.64655691441E+03  0.00000000000E+00 0.  1.
         23    2    1    2    0    0  0.22365379289E+03  0.70294909483E+03  0.47134730282E+03  0.88013185284E+03  0.91133690310E+02 0.  0.
        254    2    1    2    0    0 -0.22365379289E+03 -0.70294909483E+03  0.32387218531E+03  0.12082014641E+04  0.90038832536E+03 0.  0.
        -24    2    4    4    0    0 -0.29534830891E+03  0.98257318468E+02  0.22893817014E+03  0.39419258051E+03  0.78038327584E+02 0.  0.
         24    2    4    4    0    0  0.71694516019E+02 -0.80120641330E+03  0.94934015167E+02  0.81400888359E+03  0.80784744752E+02 0.  0.
         13    1    3    3    0    0  0.14256398374E+03  0.29880013345E+03  0.21189223326E+03  0.39307038521E+03  0.00000000000E+00 0.  1.
        -13    1    3    3    0    0  0.81089809150E+02  0.40414896138E+03  0.25945506956E+03  0.48706146764E+03  0.00000000000E+00 0. -1.
          2    1    6    6  502    0  0.17135180322E+02 -0.11867096053E+03  0.42810619095E+02  0.12731520092E+03  0.00000000000E+00 0. -1.
          3    1    5    5  503    0 -0.44187360981E+02 -0.13863965536E+01  0.63466685737E+02  0.77346397229E+02  0.00000000000E+00 0. -1.
         -4    1    5    5    0  503 -0.25116094793E+03  0.99643715022E+02  0.16547148440E+03  0.31684618328E+03  0.00000000000E+00 0.  1.
         -1    1    6    6    0  502  0.54559335697E+02 -0.68253545277E+03  0.52123396071E+02  0.68669368267E+03  0.00000000000E+00 0.  1.
<mgrwt>
<rscale>  0 0.19310003E+04</rscale>
<asrwt>0</asrwt>
<pdfrwt beam="1">  1        2 0.22181175E+00 0.19310003E+04</pdfrwt>
<pdfrwt beam="2">  1       -2 0.99470295E-01 0.19310003E+04</pdfrwt>
<totfact> 0.10704918E+01</totfact>
</mgrwt>
</event>
<event>
12    1  0.2474382E-007  0.3063209E+04  0.7818608E-02  0.8225908E-01
         -2   -1    0    0    0  501 -0.00000000000E+00  0.00000000000E+00  0.10336894911E+04  0.10336894911E+04  0.00000000000E+00 0.  1.
          2   -1    0    0  501    0  0.00000000000E+00 -0.00000000000E+00 -0.22693583841E+04  0.22693583841E+04  0.00000000000E+00 0. -1.
         23    2    1    2    0    0 -0.13203010638E+04 -0.25952939245E+03 -0.97459943137E+03  0.16639050033E+04  0.90473220065E+02 0.  0.
        254    2    1    2    0    0  0.13203010638E+04  0.25952939245E+03 -0.26106946156E+03  0.16391428719E+04  0.89893363835E+03 0.  0.
        -24    2    4    4    0    0  0.12037381868E+04  0.47767189228E+03 -0.40804510491E+02  0.12984392291E+04  0.84400027928E+02 0.  0.
         24    2    4    4    0    0  0.11656287709E+03 -0.21814249983E+03 -0.22026495107E+03  0.34070364283E+03  0.79932903212E+02 0.  0.
         11    1    3    3    0    0 -0.92281391586E+03 -0.14294294646E+03 -0.69696436547E+03  0.11652371158E+04  0.00000000000E+00 0.  1.
        -11    1    3    3    0    0 -0.39748714798E+03 -0.11658644599E+03 -0.27763506590E+03  0.49866788749E+03  0.00000000000E+00 0. -1.
          2    1    6    6  502    0  0.94290136686E+02 -0.20981584068E+03 -0.21782901991E+03  0.31680088193E+03  0.00000000000E+00 0. -1.
          1    1    5    5  503    0  0.10194935104E+04  0.38235716946E+03 -0.11165238338E+02  0.10888933305E+04  0.00000000000E+00 0. -1.
         -2    1    5    5    0  503  0.18424467639E+03  0.95314722822E+02 -0.29639272153E+02  0.20954589860E+03  0.00000000000E+00 0.  1.
         -1    1    6    6    0  502  0.22272740405E+02 -0.83266591546E+01 -0.24359311572E+01  0.23902760895E+02  0.00000000000E+00 0.  1.
<mgrwt>
<rscale>  0 0.30632087E+04</rscale>
<asrwt>0</asrwt>
<pdfrwt beam="1">  1        2 0.34913206E+00 0.30632087E+04</pdfrwt>
<pdfrwt beam="2">  1       -2 0.15902915E+00 0.30632087E+04</pdfrwt>
<totfact> 0.10290451E+00</totfact>
</mgrwt>
</event>
<event>
12    1  0.1960998E-007  0.1562201E+04  0.7818608E-02  0.8844112E-01
          1   -1    0    0  501    0  0.00000000000E+00  0.00000000000E+00  0.96418920737E+03  0.96418920737E+03  0.00000000000E+00 0. -1.
         -1   -1    0    0    0  501 -0.00000000000E+00 -0.00000000000E+00 -0.63277851012E+03  0.63277851012E+03  0.00000000000E+00 0.  1.
         23    2    1    2    0    0  0.31432109418E+03 -0.25680248185E+02 -0.30663202619E+03  0.44925310034E+03  0.91366970426E+02 0.  0.
        254    2    1    2    0    0 -0.31432109418E+03  0.25680248185E+02  0.63804272344E+03  0.11477146172E+04  0.90038497328E+03 0.  0.
        -24    2    4    4    0    0 -0.21608428930E+03  0.33025895734E+03 -0.29580343004E+02  0.40326368986E+03  0.77351198318E+02 0.  0.
         24    2    4    4    0    0 -0.98236804876E+02 -0.30457870916E+03  0.66762306644E+03  0.74445092729E+03  0.77897139819E+02 0.  0.
         13    1    3    3    0    0  0.53284586486E+02  0.23333150213E+02 -0.86754056684E+02  0.10445070324E+03  0.00000000000E+00 0.  1.
        -13    1    3    3    0    0  0.26103650770E+03 -0.49013398398E+02 -0.21987796951E+03  0.34480239710E+03  0.00000000000E+00 0. -1.
          2    1    6    6  502    0  0.53174979342E+01 -0.36784253188E+00  0.29524879229E+02  0.30002159687E+02  0.00000000000E+00 0. -1.
          3    1    5    5  503    0 -0.23083873420E+02  0.48165025523E+01 -0.49531040854E+01  0.24095583600E+02  0.00000000000E+00 0. -1.
         -2    1    5    5    0  503 -0.19300041588E+03  0.32544245479E+03 -0.24627238918E+02  0.37916810626E+03  0.00000000000E+00 0.  1.
         -1    1    6    6    0  502 -0.10355430281E+03 -0.30421086663E+03  0.63809818721E+03  0.71444876760E+03  0.00000000000E+00 0.  1.
<mgrwt>
<rscale>  0 0.15622013E+04</rscale>
<asrwt>0</asrwt>
<pdfrwt beam="1">  1        1 0.14833680E+00 0.15622013E+04</pdfrwt>
<pdfrwt beam="2">  1       -1 0.97350540E-01 0.15622013E+04</pdfrwt>
<totfact> 0.15752719E+01</totfact>
</mgrwt>
</event>
<event>
12    1  0.1960998E-007  0.2057731E+04  0.7818608E-02  0.8580095E-01
         -2   -1    0    0    0  501 -0.00000000000E+00  0.00000000000E+00  0.94540869491E+03  0.94540869491E+03  0.00000000000E+00 0.  1.
          2   -1    0    0  501    0  0.00000000000E+00 -0.00000000000E+00 -0.11196894012E+04  0.11196894012E+04  0.00000000000E+00 0. -1.
         23    2    1    2    0    0  0.25780324402E+03  0.75574360636E+03 -0.29409416344E+03  0.85609078503E+03  0.93750434990E+02 0.  0.
        254    2    1    2    0    0 -0.25780324402E+03 -0.75574360636E+03  0.11981345716E+03  0.12090073111E+04  0.89985137803E+03 0.  0.
        -24    2    4    4    0    0  0.87349908323E+02 -0.42822626984E+03 -0.32664048394E+03  0.55154147320E+03  0.80599294354E+02 0.  0.
         24    2    4    4    0    0 -0.34515315234E+03 -0.32751733653E+03  0.44645394110E+03  0.65746583788E+03  0.80882026157E+02 0.  0.
         13    1    3    3    0    0  0.89778333630E+02  0.14592153303E+03 -0.56761094336E+02  0.18048563605E+03  0.00000000000E+00 0. -1.
        -13    1    3    3    0    0  0.16802491039E+03  0.60982207334E+03 -0.23733306910E+03  0.67560514898E+03  0.00000000000E+00 0.  1.
          4    1    6    6  502    0 -0.33450378190E+03 -0.32240717582E+03  0.41168230171E+03  0.62074268797E+03  0.00000000000E+00 0. -1.
          3    1    5    5  503    0 -0.96869074979E-01 -0.19737476386E+03 -0.13733359534E+03  0.24045233041E+03  0.00000000000E+00 0. -1.
         -4    1    5    5    0  503  0.87446777398E+02 -0.23085150598E+03 -0.18930688861E+03  0.31108914279E+03  0.00000000000E+00 0.  1.
         -3    1    6    6    0  502 -0.10649370441E+02 -0.51101607068E+01  0.34771639393E+02  0.36723149910E+02  0.00000000000E+00 0.  1.
<mgrwt>
<rscale>  0 0.20577309E+04</rscale>
<asrwt>0</asrwt>
<pdfrwt beam="1">  1        2 0.17225991E+00 0.20577309E+04</pdfrwt>
<pdfrwt beam="2">  1       -2 0.14544749E+00 0.20577309E+04</pdfrwt>
<totfact> 0.63681200E+00</totfact>
</mgrwt>
</event>
<event>
12    1  0.1960998E-007  0.1585249E+04  0.7818608E-02  0.8829662E-01
          2   -1    0    0  501    0  0.00000000000E+00  0.00000000000E+00  0.42464249798E+03  0.42464249798E+03  0.00000000000E+00 0.  1.
         -2   -1    0    0    0  501 -0.00000000000E+00 -0.00000000000E+00 -0.14794875057E+04  0.14794875057E+04  0.00000000000E+00 0. -1.
         23    2    1    2    0    0 -0.66463435128E+02  0.44504340354E+03 -0.52760715678E+02  0.46209785015E+03  0.90937950002E+02 0.  0.
        254    2    1    2    0    0  0.66463435128E+02 -0.44504340354E+03 -0.10020842921E+04  0.14420321536E+04  0.93423914724E+03 0.  0.
        -24    2    4    4    0    0 -0.98292231249E+01  0.27856229590E+03 -0.39985467559E+03  0.49424574897E+03  0.81862888170E+02 0.  0.
         24    2    4    4    0    0  0.76292658253E+02 -0.72360569945E+03 -0.60222961650E+03  0.94778640460E+03  0.78694216970E+02 0.  0.
         13    1    3    3    0    0 -0.72093918144E+01  0.23316177061E+03 -0.63702744249E+02  0.24181485941E+03  0.00000000000E+00 0. -1.
        -13    1    3    3    0    0 -0.59254043314E+02  0.21188163293E+03  0.10942028571E+02  0.22028299075E+03  0.00000000000E+00 0.  1.
          2    1    6    6  502    0  0.57395900020E+02 -0.39447402341E+03 -0.37581318571E+03  0.54784997494E+03  0.00000000000E+00 0. -1.
          3    1    5    5  503    0 -0.32605499471E+02  0.12091226616E+03 -0.12739297797E+03  0.17863892504E+03  0.00000000000E+00 0. -1.
         -4    1    5    5    0  503  0.22776276346E+02  0.15765002974E+03 -0.27246169762E+03  0.31560682393E+03  0.00000000000E+00 0.  1.
         -1    1    6    6    0  502  0.18896758233E+02 -0.32913167603E+03 -0.22641643079E+03  0.39993642966E+03  0.00000000000E+00 0.  1.
<mgrwt>
<rscale>  0 0.15852486E+04</rscale>
<asrwt>0</asrwt>
<pdfrwt beam="1">  1        2 0.65329615E-01 0.15852486E+04</pdfrwt>
<pdfrwt beam="2">  1       -2 0.22761346E+00 0.15852486E+04</pdfrwt>
<totfact> 0.63099454E+00</totfact>
</mgrwt>
</event>
<event>
12    1  0.1960998E-007  0.2267803E+04  0.7818608E-02  0.8490725E-01
         -3   -1    0    0    0  501 -0.00000000000E+00  0.00000000000E+00  0.62730749300E+03  0.62730749300E+03  0.00000000000E+00 0. -1.
          3   -1    0    0  501    0  0.00000000000E+00 -0.00000000000E+00 -0.20496043051E+04  0.20496043051E+04  0.00000000000E+00 0.  1.
         23    2    1    2    0    0  0.34280905026E+03  0.85791854936E+03 -0.32160754909E+03  0.98198798543E+03  0.85596177607E+02 0.  0.
        254    2    1    2    0    0 -0.34280905026E+03 -0.85791854936E+03 -0.11006892630E+04  0.16949238127E+04  0.89872553922E+03 0.  0.
        -24    2    4    4    0    0 -0.44494372357E+03 -0.16671481362E+03 -0.79171318461E+03  0.92680245926E+03  0.79901724452E+02 0.  0.
         24    2    4    4    0    0  0.10213467332E+03 -0.69120373573E+03 -0.30897607842E+03  0.76812135344E+03  0.79687519660E+02 0.  0.
         11    1    3    3    0    0  0.68726501401E+02  0.17276035443E+03 -0.29134830827E+02  0.18819753033E+03  0.00000000000E+00 0. -1.
        -11    1    3    3    0    0  0.27408254885E+03  0.68515819493E+03 -0.29247271826E+03  0.79379045509E+03  0.00000000000E+00 0.  1.
          2    1    6    6  502    0  0.48280422471E+02 -0.52676942273E+03 -0.21294552593E+03  0.57023049807E+03  0.00000000000E+00 0. -1.
          1    1    5    5  503    0 -0.38978823872E+03 -0.15634031830E+03 -0.73793475389E+03  0.84907294573E+03  0.00000000000E+00 0. -1.
         -2    1    5    5    0  503 -0.55155484855E+02 -0.10374495325E+02 -0.53778430725E+02  0.77729513532E+02  0.00000000000E+00 0.  1.
         -3    1    6    6    0  502  0.53854250848E+02 -0.16443431301E+03 -0.96030552490E+02  0.19789085537E+03  0.00000000000E+00 0.  1.
<mgrwt>
<rscale>  0 0.22678026E+04</rscale>
<asrwt>0</asrwt>
<pdfrwt beam="1">  1        3 0.31532374E+00 0.22678026E+04</pdfrwt>
<pdfrwt beam="2">  1       -3 0.96508843E-01 0.22678026E+04</pdfrwt>
<totfact> 0.71766266E-02</totfact>
</mgrwt>
</event>
<event>
12    1  0.1960998E-007  0.1562359E+04  0.7818608E-02  0.8844012E-01
         -2   -1    0    0    0  501 -0.00000000000E+00  0.00000000000E+00  0.20304042157E+03  0.20304042157E+03  0.00000000000E+00 0.  1.
          2   -1    0    0  501    0  0.00000000000E+00 -0.00000000000E+00 -0.30055178038E+04  0.30055178038E+04  0.00000000000E+00 0. -1.
         23    2    1    2    0    0 -0.17760992541E+03 -0.24475516235E+03 -0.18023075458E+04  0.18299959811E+04  0.95511392262E+02 0.  0.
        254    2    1    2    0    0  0.17760992541E+03  0.24475516235E+03 -0.10001698364E+04  0.13785622443E+04  0.89924623131E+03 0.  0.
        -24    2    4    4    0    0  0.21192963816E+03  0.75652964217E+02  0.10219275343E+03  0.25989156100E+03  0.80391057325E+02 0.  0.
         24    2    4    4    0    0 -0.34319712748E+02  0.16910219813E+03 -0.11023625899E+04  0.11186706833E+04  0.80295840485E+02 0.  0.
         13    1    3    3    0    0 -0.17948508646E+03 -0.22471435592E+03 -0.17574933816E+04  0.17808690082E+04  0.00000000000E+00 0. -1.
        -13    1    3    3    0    0  0.18751610420E+01 -0.20040806431E+02 -0.44814164133E+02  0.49126972818E+02  0.00000000000E+00 0.  1.
          2    1    6    6  502    0 -0.27475148335E+02  0.17425659109E+03 -0.96160211708E+03  0.97764966879E+03  0.00000000000E+00 0. -1.
          3    1    5    5  503    0  0.19486862484E+03  0.41068609718E+02  0.95061051958E+02  0.22067400220E+03  0.00000000000E+00 0. -1.
         -4    1    5    5    0  503  0.17061013326E+02  0.34584354499E+02  0.71317014740E+01  0.39217558794E+02  0.00000000000E+00 0.  1.
         -1    1    6    6    0  502 -0.68445644134E+01 -0.51543929580E+01 -0.14076047278E+03  0.14102101448E+03  0.00000000000E+00 0.  1.
<mgrwt>
<rscale>  0 0.15623592E+04</rscale>
<asrwt>0</asrwt>
<pdfrwt beam="1">  1        2 0.46238734E+00 0.15623592E+04</pdfrwt>
<pdfrwt beam="2">  1       -2 0.31236989E-01 0.15623592E+04</pdfrwt>
<totfact> 0.15894630E+01</totfact>
</mgrwt>
</event>
<event>
12    1  0.1960998E-007  0.2238717E+04  0.7818608E-02  0.8502484E-01
          1   -1    0    0  501    0  0.00000000000E+00  0.00000000000E+00  0.11511033172E+04  0.11511033172E+04  0.00000000000E+00 0. -1.
         -1   -1    0    0    0  501 -0.00000000000E+00 -0.00000000000E+00 -0.10884894615E+04  0.10884894615E+04  0.00000000000E+00 0.  1.
         23    2    1    2    0    0  0.78584949759E+03  0.36189113475E+03 -0.32719322998E+03  0.92945512906E+03  0.91141653059E+02 0.  0.
        254    2    1    2    0    0 -0.78584949759E+03 -0.36189113475E+03  0.38980708566E+03  0.13101376496E+04  0.90331969456E+03 0.  0.
        -24    2    4    4    0    0 -0.54027609450E+03 -0.10741107390E+03  0.65518287740E+03  0.85985027181E+03  0.81501472430E+02 0.  0.
         24    2    4    4    0    0 -0.24557340309E+03 -0.25448006085E+03 -0.26537579174E+03  0.45028737779E+03  0.85252648536E+02 0.  0.
         11    1    3    3    0    0  0.58491376847E+02  0.53196456665E+02 -0.18924686742E+02  0.81297281230E+02  0.00000000000E+00 0. -1.
        -11    1    3    3    0    0  0.72735812074E+03  0.30869467809E+03 -0.30826854324E+03  0.84815784783E+03  0.00000000000E+00 0.  1.
          4    1    6    6  502    0 -0.24796320194E+03 -0.25385739647E+03 -0.26941787314E+03  0.44555057808E+03  0.00000000000E+00 0. -1.
          1    1    5    5  503    0 -0.48674085004E+03 -0.78064597811E+02  0.60773293525E+03  0.78252799127E+03  0.00000000000E+00 0. -1.
         -2    1    5    5    0  503 -0.53535244457E+02 -0.29346476091E+02  0.47449942152E+02  0.77322280542E+02  0.00000000000E+00 0.  1.
         -3    1    6    6    0  502  0.23897988451E+01 -0.62266437549E+00  0.40420814033E+01  0.47367997124E+01  0.00000000000E+00 0.  1.
<mgrwt>
<rscale>  0 0.22387173E+04</rscale>
<asrwt>0</asrwt>
<pdfrwt beam="1">  1        1 0.17709282E+00 0.22387173E+04</pdfrwt>
<pdfrwt beam="2">  1       -1 0.16745992E+00 0.22387173E+04</pdfrwt>
<totfact> 0.27107491E+00</totfact>
</mgrwt>
</event>
<event>
12    1  0.1960998E-007  0.1994917E+04  0.7818608E-02  0.8609001E-01
         -1   -1    0    0    0  501 -0.00000000000E+00  0.00000000000E+00  0.22970395628E+04  0.22970395628E+04  0.00000000000E+00 0.  1.
          1   -1    0    0  501    0  0.00000000000E+00 -0.00000000000E+00 -0.43313275799E+03  0.43313275799E+03  0.00000000000E+00 0. -1.
         23    2    1    2    0    0  0.98837906161E+02 -0.43908805487E+03 -0.14139841143E+03  0.48649445097E+03  0.11881114613E+03 0.  0.
        254    2    1    2    0    0 -0.98837906161E+02  0.43908805487E+03  0.20053052163E+04  0.22436778699E+04  0.90015227696E+03 0.  0.
        -24    2    4    4    0    0 -0.35574157879E+03  0.37645892128E+03  0.18588254287E+04  0.19313304241E+04  0.80819813517E+02 0.  0.
         24    2    4    4    0    0  0.25690367263E+03  0.62629133589E+02  0.14647978755E+03  0.31234744578E+03  0.78630104551E+02 0.  0.
         11    1    3    3    0    0  0.58216509618E+02 -0.85690886766E+02 -0.66102572908E+02  0.12288873102E+03  0.00000000000E+00 0. -1.
        -11    1    3    3    0    0  0.40621396542E+02 -0.35339716810E+03 -0.75295838520E+02  0.36360571994E+03  0.00000000000E+00 0.  1.
          2    1    6    6  502    0  0.13443055009E+00 -0.30856029034E+01 -0.58723999207E+01  0.66350657629E+01  0.00000000000E+00 0. -1.
          1    1    5    5  503    0 -0.24311348160E+02  0.35900560141E+02  0.25215910649E+03  0.25585954517E+03  0.00000000000E+00 0. -1.
         -4    1    5    5    0  503 -0.33143023063E+03  0.34055836114E+03  0.16066663222E+04  0.16754708789E+04  0.00000000000E+00 0.  1.
         -1    1    6    6    0  502  0.25676924208E+03  0.65714736492E+02  0.15235218747E+03  0.30571238002E+03  0.00000000000E+00 0.  1.
<mgrwt>
<rscale>  0 0.19949166E+04</rscale>
<asrwt>0</asrwt>
<pdfrwt beam="1">  1        1 0.66635810E-01 0.19949166E+04</pdfrwt>
<pdfrwt beam="2">  1       -1 0.35339070E+00 0.19949166E+04</pdfrwt>
<totfact> 0.73945600E-01</totfact>
</mgrwt>
</event>
<event>
12    1  0.1960998E-007  0.1428365E+04  0.7818608E-02  0.8933538E-01
         -2   -1    0    0    0  501 -0.00000000000E+00  0.00000000000E+00  0.99715950765E+03  0.99715950765E+03  0.00000000000E+00 0. -1.
          2   -1    0    0  501    0  0.00000000000E+00 -0.00000000000E+00 -0.51150981653E+03  0.51150981653E+03  0.00000000000E+00 0.  1.
         23    2    1    2    0    0 -0.31960498365E+03  0.61159491782E+02 -0.13680773330E+03  0.36462174501E+03  0.91350052179E+02 0.  0.
        254    2    1    2    0    0  0.31960498365E+03 -0.61159491782E+02  0.62245742443E+03  0.11440475792E+04  0.90305248417E+03 0.  0.
        -24    2    4    4    0    0 -0.23846541667E+03 -0.21594336554E+03  0.39863557755E+03  0.51819066664E+03  0.78191759405E+02 0.  0.
         24    2    4    4    0    0  0.55807040032E+03  0.15478387376E+03  0.22382184688E+03  0.62585691253E+03  0.78740310666E+02 0.  0.
         11    1    3    3    0    0 -0.93917517518E+02  0.57637479951E+02 -0.26211680291E+02  0.11326796271E+03  0.00000000000E+00 0. -1.
        -11    1    3    3    0    0 -0.22568746614E+03  0.35220118312E+01 -0.11059605301E+03  0.25135378231E+03  0.00000000000E+00 0.  1.
          4    1    6    6  502    0  0.26022514971E+03  0.53516567120E+02  0.13994985890E+03  0.30027839500E+03  0.00000000000E+00 0. -1.
          1    1    5    5  503    0 -0.92921041343E+02 -0.12268338638E+03  0.14642722421E+03  0.21242990658E+03  0.00000000000E+00 0. -1.
         -2    1    5    5    0  503 -0.14554437533E+03 -0.93259979155E+02  0.25220835333E+03  0.30576076006E+03  0.00000000000E+00 0.  1.
         -3    1    6    6    0  502  0.29784525062E+03  0.10126730664E+03  0.83871987982E+02  0.32557851753E+03  0.00000000000E+00 0.  1.
<mgrwt>
<rscale>  0 0.14283653E+04</rscale>
<asrwt>0</asrwt>
<pdfrwt beam="1">  1        2 0.78693818E-01 0.14283653E+04</pdfrwt>
<pdfrwt beam="2">  1       -2 0.15340915E+00 0.14283653E+04</pdfrwt>
<totfact> 0.16422304E+01</totfact>
</mgrwt>
</event>
<event>
12    1  0.1960998E-007  0.2062952E+04  0.7818608E-02  0.8577741E-01
          1   -1    0    0  501    0  0.00000000000E+00  0.00000000000E+00  0.89176405483E+03  0.89176405483E+03  0.00000000000E+00 0. -1.
         -1   -1    0    0    0  501 -0.00000000000E+00 -0.00000000000E+00 -0.11930760969E+04  0.11930760969E+04  0.00000000000E+00 0.  1.
         23    2    1    2    0    0 -0.23040821769E+03 -0.41581278063E+03  0.56814778598E+03  0.74635352847E+03  0.90903616169E+02 0.  0.
        254    2    1    2    0    0  0.23040821769E+03  0.41581278063E+03 -0.86945982806E+03  0.13384866233E+04  0.89977654603E+03 0.  0.
        -24    2    4    4    0    0  0.79734557015E+02 -0.95924111531E+02 -0.77814999769E+03  0.79197026040E+03  0.78360957779E+02 0.  0.
         24    2    4    4    0    0  0.15067366068E+03  0.51173689216E+03 -0.91309830374E+02  0.54651636288E+03  0.75930566660E+02 0.  0.
         13    1    3    3    0    0 -0.84787833001E+02 -0.23801559883E+03  0.32685571874E+03  0.41312838535E+03  0.00000000000E+00 0.  1.
        -13    1    3    3    0    0 -0.14562038469E+03 -0.17779718181E+03  0.24129206724E+03  0.33322514312E+03  0.00000000000E+00 0. -1.
          2    1    6    6  502    0  0.12189651394E+03  0.47661635604E+03 -0.72088727276E+02  0.49721091658E+03  0.00000000000E+00 0. -1.
          1    1    5    5  503    0  0.79177738471E+02 -0.50632139888E+02 -0.63236415276E+03  0.63930990103E+03  0.00000000000E+00 0. -1.
         -2    1    5    5    0  503  0.55681854400E+00 -0.45291971643E+02 -0.14578584492E+03  0.15266035937E+03  0.00000000000E+00 0.  1.
         -1    1    6    6    0  502  0.28777146733E+02  0.35120536118E+02 -0.19221103098E+02  0.49305446308E+02  0.00000000000E+00 0.  1.
<mgrwt>
<rscale>  0 0.20629517E+04</rscale>
<asrwt>0</asrwt>
<pdfrwt beam="1">  1        1 0.13719447E+00 0.20629517E+04</pdfrwt>
<pdfrwt beam="2">  1       -1 0.18355017E+00 0.20629517E+04</pdfrwt>
<totfact> 0.33470394E+00</totfact>
</mgrwt>
</event>
<event>
12    1  0.1960998E-007  0.1128874E+04  0.7818608E-02  0.9177497E-01
          1   -1    0    0  501    0  0.00000000000E+00  0.00000000000E+00  0.11422417992E+04  0.11422417992E+04  0.00000000000E+00 0. -1.
         -1   -1    0    0    0  501 -0.00000000000E+00 -0.00000000000E+00 -0.27891579918E+03  0.27891579918E+03  0.00000000000E+00 0.  1.
         23    2    1    2    0    0  0.16818557106E+03  0.52527626555E+02  0.22321903726E+03  0.29838805059E+03  0.90350164763E+02 0.  0.
        254    2    1    2    0    0 -0.16818557106E+03 -0.52527626555E+02  0.64010696278E+03  0.11227695478E+04  0.90544408763E+03 0.  0.
        -24    2    4    4    0    0  0.26946720219E+03 -0.26096913422E+03  0.10782677280E+03  0.39838066961E+03  0.79768934556E+02 0.  0.
         24    2    4    4    0    0 -0.43765277325E+03  0.20844150766E+03  0.53228018998E+03  0.72438887820E+03  0.80182505327E+02 0.  0.
         11    1    3    3    0    0  0.12659595243E+03  0.22501233965E+02  0.20860875014E+03  0.24505193600E+03  0.00000000000E+00 0. -1.
        -11    1    3    3    0    0  0.41589618631E+02  0.30026392590E+02  0.14610287124E+02  0.53336114591E+02  0.00000000000E+00 0.  1.
          2    1    6    6  502    0 -0.43924034743E+03  0.20978408773E+03  0.53332294376E+03  0.72206288412E+03  0.00000000000E+00 0. -1.
          3    1    5    5  503    0  0.13116558368E+03 -0.73162522878E+02  0.46340035978E+02  0.15717685590E+03  0.00000000000E+00 0. -1.
         -4    1    5    5    0  503  0.13830161850E+03 -0.18780661134E+03  0.61486736818E+02  0.24120381371E+03  0.00000000000E+00 0.  1.
         -1    1    6    6    0  502  0.15875741781E+01 -0.13425800662E+01 -0.10427537852E+01  0.23259940803E+01  0.00000000000E+00 0.  1.
<mgrwt>
<rscale>  0 0.11288743E+04</rscale>
<asrwt>0</asrwt>
<pdfrwt beam="1">  1        1 0.17572950E+00 0.11288743E+04</pdfrwt>
<pdfrwt beam="2">  1       -1 0.42910124E-01 0.11288743E+04</pdfrwt>
<totfact> 0.62698940E+01</totfact>
</mgrwt>
</event>
<event>
12    1  0.1960998E-007  0.1184255E+04  0.7818608E-02  0.9126751E-01
         -1   -1    0    0    0  501 -0.00000000000E+00  0.00000000000E+00  0.22309881455E+04  0.22309881455E+04  0.00000000000E+00 0.  1.
          1   -1    0    0  501    0  0.00000000000E+00 -0.00000000000E+00 -0.15715679633E+03  0.15715679633E+03  0.00000000000E+00 0. -1.
         23    2    1    2    0    0  0.16087183254E+03 -0.17308086775E+03  0.43125729498E+03  0.50000781062E+03  0.90488799983E+02 0.  0.
        254    2    1    2    0    0 -0.16087183254E+03  0.17308086775E+03  0.16425740542E+04  0.18881371313E+04  0.90065285739E+03 0.  0.
        -24    2    4    4    0    0  0.31474097843E+03  0.14595375255E+03  0.31541028782E+03  0.47579403646E+03  0.80820381584E+02 0.  0.
         24    2    4    4    0    0 -0.47561281097E+03  0.27127115200E+02  0.13271637664E+04  0.14123430948E+04  0.80037042779E+02 0.  0.
         11    1    3    3    0    0  0.14842675094E+03 -0.17042732323E+03  0.43169591513E+03  0.48727542113E+03  0.00000000000E+00 0.  1.
        -11    1    3    3    0    0  0.12445081599E+02 -0.26535445250E+01 -0.43862014909E+00  0.12732389492E+02  0.00000000000E+00 0. -1.
          4    1    6    6  502    0 -0.49884160295E+02  0.27632927742E+02  0.14115059710E+03  0.15223501308E+03  0.00000000000E+00 0. -1.
          1    1    5    5  503    0  0.28585826230E+02  0.34734814595E+02  0.67848427210E+02  0.81406792598E+02  0.00000000000E+00 0. -1.
         -2    1    5    5    0  503  0.28615515220E+03  0.11121893796E+03  0.24756186061E+03  0.39438724386E+03  0.00000000000E+00 0.  1.
         -1    1    6    6    0  502 -0.42572865067E+03 -0.50581254268E+00  0.11860131693E+04  0.12601080817E+04  0.00000000000E+00 0.  1.
<mgrwt>
<rscale>  0 0.11842550E+04</rscale>
<asrwt>0</asrwt>
<pdfrwt beam="1">  1        1 0.24177970E-01 0.11842550E+04</pdfrwt>
<pdfrwt beam="2">  1       -1 0.34322892E+00 0.11842550E+04</pdfrwt>
<totfact> 0.35235075E+00</totfact>
</mgrwt>
</event>
<event>
12    1  0.1960998E-007  0.2742250E+04  0.7818608E-02  0.8321425E-01
          2   -1    0    0  501    0  0.00000000000E+00  0.00000000000E+00  0.29765618575E+04  0.29765618575E+04  0.00000000000E+00 0.  1.
         -2   -1    0    0    0  501 -0.00000000000E+00 -0.00000000000E+00 -0.63159579698E+03  0.63159579698E+03  0.00000000000E+00 0. -1.
         23    2    1    2    0    0 -0.38467156887E+03 -0.11496053480E+04  0.12531162240E+04  0.17460413391E+04  0.93783872452E+02 0.  0.
        254    2    1    2    0    0  0.38467156887E+03  0.11496053480E+04  0.10918498365E+04  0.18621163154E+04  0.89765050799E+03 0.  0.
        -24    2    4    4    0    0 -0.17458426918E+03  0.33729179458E+01  0.30860484867E+03  0.36327261145E+03  0.78987302678E+02 0.  0.
         24    2    4    4    0    0  0.55925583804E+03  0.11462324301E+04  0.78324498779E+03  0.14988437039E+04  0.80273667807E+02 0.  0.
         11    1    3    3    0    0 -0.12353587825E+03 -0.47390529452E+03  0.55150247285E+03  0.73756512862E+03  0.00000000000E+00 0. -1.
        -11    1    3    3    0    0 -0.26113569062E+03 -0.67570005351E+03  0.70161375119E+03  0.10084762105E+04  0.00000000000E+00 0.  1.
          4    1    6    6  502    0  0.32232417511E+03  0.74858541835E+03  0.50034318721E+03  0.95635574313E+03  0.00000000000E+00 0. -1.
          3    1    5    5  503    0  0.51158291914E+01 -0.14861684006E+01 -0.84802108947E+00  0.53943993733E+01  0.00000000000E+00 0. -1.
         -4    1    5    5    0  503 -0.17970009837E+03  0.48590863464E+01  0.30945286976E+03  0.35787821207E+03  0.00000000000E+00 0.  1.
         -1    1    6    6    0  502  0.23693166293E+03  0.39764701174E+03  0.28290180058E+03  0.54248796080E+03  0.00000000000E+00 0.  1.
<mgrwt>
<rscale>  0 0.27422501E+04</rscale>
<asrwt>0</asrwt>
<pdfrwt beam="1">  1        2 0.45793259E+00 0.27422501E+04</pdfrwt>
<pdfrwt beam="2">  1       -2 0.97168586E-01 0.27422501E+04</pdfrwt>
<totfact> 0.13913451E+00</totfact>
</mgrwt>
</event>
<event>
12    1  0.1960998E-007  0.3146703E+04  0.7818608E-02  0.8203036E-01
          2   -1    0    0  501    0  0.00000000000E+00  0.00000000000E+00  0.20642147045E+04  0.20642147045E+04  0.00000000000E+00 0. -1.
         -2   -1    0    0    0  501 -0.00000000000E+00 -0.00000000000E+00 -0.11992140551E+04  0.11992140551E+04  0.00000000000E+00 0.  1.
         23    2    1    2    0    0  0.13325427854E+04 -0.21258612213E+03  0.92752465068E+03  0.16401165353E+04  0.93899614564E+02 0.  0.
        254    2    1    2    0    0 -0.13325427854E+04  0.21258612213E+03 -0.62524001235E+02  0.16233122243E+04  0.90020563900E+03 0.  0.
        -24    2    4    4    0    0 -0.63163505829E+03 -0.33653323853E+03  0.54637439576E+02  0.72230940947E+03  0.80797064994E+02 0.  0.
         24    2    4    4    0    0 -0.70090772710E+03  0.54911936067E+03 -0.11716144081E+03  0.90100281479E+03  0.72633015066E+02 0.  0.
         11    1    3    3    0    0  0.85435238502E+03 -0.15455685407E+03  0.64599351409E+03  0.10821799477E+04  0.00000000000E+00 0.  1.
        -11    1    3    3    0    0  0.47819040036E+03 -0.58029268069E+02  0.28153113659E+03  0.55793658764E+03  0.00000000000E+00 0. -1.
          4    1    6    6  502    0 -0.29992338322E+02  0.44857175104E+02 -0.10342771715E+02  0.54942510345E+02  0.00000000000E+00 0. -1.
          3    1    5    5  503    0 -0.30210998940E+03 -0.13436712700E+03 -0.76179396641E+01  0.33073101385E+03  0.00000000000E+00 0. -1.
         -4    1    5    5    0  503 -0.32952506888E+03 -0.20216611153E+03  0.62255379241E+02  0.39157839562E+03  0.00000000000E+00 0.  1.
         -3    1    6    6    0  502 -0.67091538878E+03  0.50426218556E+03 -0.10681866910E+03  0.84606030444E+03  0.00000000000E+00 0.  1.
<mgrwt>
<rscale>  0 0.31467032E+04</rscale>
<asrwt>0</asrwt>
<pdfrwt beam="1">  1        2 0.31757149E+00 0.31467032E+04</pdfrwt>
<pdfrwt beam="2">  1       -2 0.18449447E+00 0.31467032E+04</pdfrwt>
<totfact> 0.87889062E-01</totfact>
</mgrwt>
</event>
<event>
12    1  0.1960998E-007  0.3069859E+04  0.7818608E-02  0.8224059E-01
         -1   -1    0    0    0  501 -0.00000000000E+00  0.00000000000E+00  0.16414659928E+04  0.16414659928E+04  0.00000000000E+00 0.  1.
          1   -1    0    0  501    0  0.00000000000E+00 -0.00000000000E+00 -0.14353078628E+04  0.14353078628E+04  0.00000000000E+00 0. -1.
         23    2    1    2    0    0 -0.90879354626E+03  0.65664067149E+03 -0.74852977120E+03  0.13511376566E+04  0.90517774110E+02 0.  0.
        254    2    1    2    0    0  0.90879354626E+03 -0.65664067149E+03  0.95468790116E+03  0.17256361990E+04  0.89961581878E+03 0.  0.
        -24    2    4    4    0    0  0.98606793259E+03 -0.25874511111E+03  0.63017638632E+03  0.12008890329E+04  0.75717839278E+02 0.  0.
         24    2    4    4    0    0 -0.77274386327E+02 -0.39789556038E+03  0.32451151484E+03  0.52474716610E+03  0.75892406175E+02 0.  0.
         13    1    3    3    0    0 -0.55599731281E+03  0.35392873860E+03 -0.46530973307E+03  0.80679099620E+03  0.00000000000E+00 0. -1.
        -13    1    3    3    0    0 -0.35279623346E+03  0.30271193289E+03 -0.28322003813E+03  0.54434666037E+03  0.00000000000E+00 0.  1.
          2    1    6    6  502    0  0.91279326081E+00 -0.15421690535E+02  0.36449420724E+02  0.39588154814E+02  0.00000000000E+00 0. -1.
          1    1    5    5  503    0  0.24859863405E+03 -0.76797955114E+02  0.12502669297E+03  0.28867088650E+03  0.00000000000E+00 0. -1.
         -2    1    5    5    0  503  0.73746929855E+03 -0.18194715599E+03  0.50514969335E+03  0.91221814637E+03  0.00000000000E+00 0.  1.
         -1    1    6    6    0  502 -0.78187179588E+02 -0.38247386985E+03  0.28806209412E+03  0.48515901129E+03  0.00000000000E+00 0.  1.
<mgrwt>
<rscale>  0 0.30698593E+04</rscale>
<asrwt>0</asrwt>
<pdfrwt beam="1">  1        1 0.22081660E+00 0.30698593E+04</pdfrwt>
<pdfrwt beam="2">  1       -1 0.25253323E+00 0.30698593E+04</pdfrwt>
<totfact> 0.41202582E-01</totfact>
</mgrwt>
</event>
<event>
12    1  0.1960998E-007  0.1288444E+04  0.7818608E-02  0.9038780E-01
          1   -1    0    0  501    0  0.00000000000E+00  0.00000000000E+00  0.69117962242E+03  0.69117962242E+03  0.00000000000E+00 0. -1.
         -1   -1    0    0    0  501 -0.00000000000E+00 -0.00000000000E+00 -0.60045470430E+03  0.60045470430E+03  0.00000000000E+00 0.  1.
         23    2    1    2    0    0 -0.13182696418E+03 -0.27444796733E+03 -0.69661781147E+02  0.32479724512E+03  0.89109210675E+02 0.  0.
        254    2    1    2    0    0  0.13182696418E+03  0.27444796733E+03  0.16038669927E+03  0.96683708160E+03  0.90352089837E+03 0.  0.
        -24    2    4    4    0    0  0.44067071736E+03  0.18449559227E+03  0.33788984238E+03  0.59062270703E+03  0.80226752198E+02 0.  0.
         24    2    4    4    0    0 -0.30884375318E+03  0.89952375060E+02 -0.17750314311E+03  0.37621437457E+03  0.80956754879E+02 0.  0.
         13    1    3    3    0    0 -0.10915305933E+03 -0.14356980870E+03 -0.65586861534E+02  0.19190705234E+03  0.00000000000E+00 0.  1.
        -13    1    3    3    0    0 -0.22673904852E+02 -0.13087815863E+03 -0.40749196126E+01  0.13289019278E+03  0.00000000000E+00 0. -1.
          2    1    6    6  502    0 -0.12916851368E+03  0.75252064173E+01 -0.40053984827E+02  0.13544539622E+03  0.00000000000E+00 0. -1.
          1    1    5    5  503    0  0.21392654308E+02  0.28708686244E+02  0.37397958875E+02  0.51772981875E+02  0.00000000000E+00 0. -1.
         -2    1    5    5    0  503  0.41927806305E+03  0.15578690603E+03  0.30049188350E+03  0.53884972515E+03  0.00000000000E+00 0.  1.
         -1    1    6    6    0  502 -0.17967523950E+03  0.82427168643E+02 -0.13744915829E+03  0.24076897835E+03  0.00000000000E+00 0.  1.
<mgrwt>
<rscale>  0 0.12884441E+04</rscale>
<asrwt>0</asrwt>
<pdfrwt beam="1">  1        1 0.10633533E+00 0.12884441E+04</pdfrwt>
<pdfrwt beam="2">  1       -1 0.92377647E-01 0.12884441E+04</pdfrwt>
<totfact> 0.31152598E+01</totfact>
</mgrwt>
</event>
<event>
12    1  0.1960998E-007  0.1703778E+04  0.7818608E-02  0.8759213E-01
         -2   -1    0    0    0  501 -0.00000000000E+00  0.00000000000E+00  0.24320070445E+03  0.24320070445E+03  0.00000000000E+00 0.  1.
          2   -1    0    0  501    0  0.00000000000E+00 -0.00000000000E+00 -0.29840152569E+04  0.29840152569E+04  0.00000000000E+00 0. -1.
         23    2    1    2    0    0  0.57958256011E+03 -0.83700189426E+01 -0.63001776626E+03  0.86062836695E+03  0.88163478802E+02 0.  0.
        254    2    1    2    0    0 -0.57958256011E+03  0.83700189426E+01 -0.21107967862E+04  0.23665875944E+04  0.89960422865E+03 0.  0.
        -24    2    4    4    0    0 -0.50952002749E+01  0.30724338695E+03 -0.12297712741E+04  0.12701086343E+04  0.80088055447E+02 0.  0.
         24    2    4    4    0    0 -0.57448735984E+03 -0.29887336800E+03 -0.88102551209E+03  0.10964789600E+04  0.81848275012E+02 0.  0.
         11    1    3    3    0    0  0.10863111876E+03 -0.36284796984E+02 -0.12256127400E+03  0.16774555833E+03  0.00000000000E+00 0. -1.
        -11    1    3    3    0    0  0.47095144135E+03  0.27914778041E+02 -0.50745649227E+03  0.69288280862E+03  0.00000000000E+00 0.  1.
          2    1    6    6  502    0 -0.20950368649E+03 -0.15301520859E+03 -0.33550196427E+03  0.42410731748E+03  0.00000000000E+00 0. -1.
          1    1    5    5  503    0 -0.37943258130E+02  0.20464213026E+03 -0.87032592040E+03  0.89486607939E+03  0.00000000000E+00 0. -1.
         -2    1    5    5    0  503  0.32848057855E+02  0.10260125669E+03 -0.35944535367E+03  0.37524255496E+03  0.00000000000E+00 0.  1.
         -1    1    6    6    0  502 -0.36498367335E+03 -0.14585815941E+03 -0.54552354782E+03  0.67237164255E+03  0.00000000000E+00 0.  1.
<mgrwt>
<rscale>  0 0.17037777E+04</rscale>
<asrwt>0</asrwt>
<pdfrwt beam="1">  1        2 0.45907927E+00 0.17037777E+04</pdfrwt>
<pdfrwt beam="2">  1       -2 0.37415493E-01 0.17037777E+04</pdfrwt>
<totfact> 0.11471517E+01</totfact>
</mgrwt>
</event>
<event>
12    1  0.1960998E-007  0.2395323E+04  0.7818608E-02  0.8441257E-01
          1   -1    0    0  501    0  0.00000000000E+00  0.00000000000E+00  0.17814416562E+04  0.17814416562E+04  0.00000000000E+00 0. -1.
         -1   -1    0    0    0  501 -0.00000000000E+00 -0.00000000000E+00 -0.80518660203E+03  0.80518660203E+03  0.00000000000E+00 0.  1.
         23    2    1    2    0    0  0.50361110604E+03 -0.86831888017E+02 -0.54091158894E+03  0.74962564414E+03  0.90494952367E+02 0.  0.
        254    2    1    2    0    0 -0.50361110604E+03  0.86831888017E+02  0.15171666431E+04  0.18370026141E+04  0.90089958281E+03 0.  0.
        -24    2    4    4    0    0 -0.69692075563E+03  0.23607321912E+03  0.87946084059E+03  0.11495134732E+04  0.80627232407E+02 0.  0.
         24    2    4    4    0    0  0.19330964959E+03 -0.14924133110E+03  0.63770580248E+03  0.68748914082E+03  0.79567786808E+02 0.  0.
         13    1    3    3    0    0  0.53936136498E+02 -0.26053280862E+02 -0.32423763532E+02  0.68111531370E+02  0.00000000000E+00 0. -1.
        -13    1    3    3    0    0  0.44967496954E+03 -0.60778607155E+02 -0.50848782541E+03  0.68151411277E+03  0.00000000000E+00 0.  1.
          2    1    6    6  502    0  0.20069064080E+03 -0.14475378793E+03  0.62418898541E+03  0.67144789964E+03  0.00000000000E+00 0. -1.
          1    1    5    5  503    0 -0.64242309943E+03  0.19554120751E+03  0.78264120502E+03  0.10312473313E+04  0.00000000000E+00 0. -1.
         -2    1    5    5    0  503 -0.54497656193E+02  0.40532011609E+02  0.96819635575E+02  0.11826614194E+03  0.00000000000E+00 0.  1.
         -1    1    6    6    0  502 -0.73809912077E+01 -0.44875431749E+01  0.13516817065E+02  0.16041241178E+02  0.00000000000E+00 0.  1.
<mgrwt>
<rscale>  0 0.23953229E+04</rscale>
<asrwt>0</asrwt>
<pdfrwt beam="1">  1        1 0.27406795E+00 0.23953229E+04</pdfrwt>
<pdfrwt beam="2">  1       -1 0.12387486E+00 0.23953229E+04</pdfrwt>
<totfact> 0.21518999E+00</totfact>
</mgrwt>
</event>
<event>
12    1  0.1960998E-007  0.2292954E+04  0.7818608E-02  0.8480705E-01
         -2   -1    0    0    0  501 -0.00000000000E+00  0.00000000000E+00  0.14620343929E+04  0.14620343929E+04  0.00000000000E+00 0.  1.
          2   -1    0    0  501    0  0.00000000000E+00 -0.00000000000E+00 -0.89902757344E+03  0.89902757344E+03  0.00000000000E+00 0. -1.
         23    2    1    2    0    0  0.46538706041E+03  0.38587769519E+03 -0.54026797903E+03  0.81578129297E+03  0.90127227636E+02 0.  0.
        254    2    1    2    0    0 -0.46538706041E+03 -0.38587769519E+03  0.11032747985E+04  0.15452806734E+04  0.89732400331E+03 0.  0.
        -24    2    4    4    0    0  0.24531962009E+03 -0.38531287368E+02  0.43142535009E+03  0.50449734264E+03  0.81996097025E+02 0.  0.
         24    2    4    4    0    0 -0.71070668050E+03 -0.34734640782E+03  0.67184944842E+03  0.10407833308E+04  0.78068863934E+02 0.  0.
         13    1    3    3    0    0  0.18715018210E+03  0.20871837226E+03 -0.22447632653E+03  0.35913530981E+03  0.00000000000E+00 0. -1.
        -13    1    3    3    0    0  0.27823687831E+03  0.17715932292E+03 -0.31579165250E+03  0.45664598316E+03  0.00000000000E+00 0.  1.
          4    1    6    6  502    0 -0.49452348648E+02 -0.26206610586E+02  0.76737474472E+02  0.94978740851E+02  0.00000000000E+00 0. -1.
          1    1    5    5  503    0  0.70729397959E+02 -0.18257971897E+02  0.63681264351E+02  0.96908744201E+02  0.00000000000E+00 0. -1.
         -2    1    5    5    0  503  0.17459022213E+03 -0.20273315472E+02  0.36774408574E+03  0.40758859844E+03  0.00000000000E+00 0.  1.
         -3    1    6    6    0  502 -0.66125433185E+03 -0.32113979723E+03  0.59511197395E+03  0.94580458991E+03  0.00000000000E+00 0.  1.
<mgrwt>
<rscale>  0 0.22929538E+04</rscale>
<asrwt>0</asrwt>
<pdfrwt beam="1">  1        2 0.13831193E+00 0.22929538E+04</pdfrwt>
<pdfrwt beam="2">  1       -2 0.22492837E+00 0.22929538E+04</pdfrwt>
<totfact> 0.24500806E+00</totfact>
</mgrwt>
</event>
<event>
12    1  0.1960998E-007  0.2507244E+04  0.7818608E-02  0.8400409E-01
          1   -1    0    0  501    0  0.00000000000E+00  0.00000000000E+00  0.91503256365E+03  0.91503256365E+03  0.00000000000E+00 0. -1.
         -1   -1    0    0    0  501 -0.00000000000E+00 -0.00000000000E+00 -0.17174997779E+04  0.17174997779E+04  0.00000000000E+00 0.  1.
         23    2    1    2    0    0 -0.43309139599E+03  0.96195566057E+03 -0.54867065077E+02  0.10603394080E+04  0.91555530272E+02 0.  0.
        254    2    1    2    0    0  0.43309139599E+03 -0.96195566057E+03 -0.74760014916E+03  0.15721929335E+04  0.89440359293E+03 0.  0.
        -24    2    4    4    0    0  0.30412593118E+03 -0.11199033232E+04 -0.62691321553E+03  0.13218968852E+04  0.87835983323E+02 0.  0.
         24    2    4    4    0    0  0.12896546481E+03  0.15794766266E+03 -0.12068693363E+03  0.25029604831E+03  0.80642548299E+02 0.  0.
         11    1    3    3    0    0 -0.31202457172E+03  0.60408577684E+03 -0.10924033082E+02  0.67999874532E+03  0.00000000000E+00 0. -1.
        -11    1    3    3    0    0 -0.12106682427E+03  0.35786988373E+03 -0.43943031995E+02  0.38034066267E+03  0.00000000000E+00 0.  1.
          4    1    6    6  502    0  0.74324845489E+02  0.60469869632E+02 -0.96443333162E+02  0.13594890328E+03  0.00000000000E+00 0. -1.
          3    1    5    5  503    0  0.15192722519E+03 -0.68766353596E+03 -0.34930393634E+03  0.78611466109E+03  0.00000000000E+00 0. -1.
         -4    1    5    5    0  503  0.15219870599E+03 -0.43223978727E+03 -0.27760927919E+03  0.53578222413E+03  0.00000000000E+00 0.  1.
         -3    1    6    6    0  502  0.54640619325E+02  0.97477793028E+02 -0.24243600466E+02  0.11434714503E+03  0.00000000000E+00 0.  1.
<mgrwt>
<rscale>  0 0.25072441E+04</rscale>
<asrwt>0</asrwt>
<pdfrwt beam="1">  1        1 0.14077424E+00 0.25072441E+04</pdfrwt>
<pdfrwt beam="2">  1       -1 0.26423073E+00 0.25072441E+04</pdfrwt>
<totfact> 0.88449314E-01</totfact>
</mgrwt>
</event>
<event>
12    1  0.1960998E-007  0.2685179E+04  0.7818608E-02  0.8339830E-01
         -2   -1    0    0    0  501 -0.00000000000E+00  0.00000000000E+00  0.43037872093E+03  0.43037872093E+03  0.00000000000E+00 0.  1.
          2   -1    0    0  501    0  0.00000000000E+00 -0.00000000000E+00 -0.41882807653E+04  0.41882807653E+04  0.00000000000E+00 0. -1.
         23    2    1    2    0    0 -0.83934163262E+03 -0.82187149439E+03 -0.19947534551E+04  0.23170563750E+04  0.98700399903E+02 0.  0.
        254    2    1    2    0    0  0.83934163262E+03  0.82187149439E+03 -0.17631485893E+04  0.23016031112E+04  0.89928683079E+03 0.  0.
        -24    2    4    4    0    0 -0.95160312987E+02  0.45605957964E+03 -0.58348402717E+03  0.75080602563E+03  0.78805157217E+02 0.  0.
         24    2    4    4    0    0  0.93450194560E+03  0.36581191476E+03 -0.11796645621E+04  0.15507970856E+04  0.79062495517E+02 0.  0.
         11    1    3    3    0    0 -0.46785481777E+03 -0.46985622910E+03 -0.12197081963E+04  0.13882871067E+04  0.00000000000E+00 0. -1.
        -11    1    3    3    0    0 -0.37148681485E+03 -0.35201526529E+03 -0.77504525877E+03  0.92876926831E+03  0.00000000000E+00 0.  1.
          2    1    6    6  502    0  0.30697497934E+03  0.15989176273E+03 -0.41553475236E+03  0.54080323977E+03  0.00000000000E+00 0. -1.
          1    1    5    5  503    0 -0.99581701282E+01  0.15429858687E+02 -0.52206900641E+02  0.55342625217E+02  0.00000000000E+00 0. -1.
         -2    1    5    5    0  503 -0.85202142858E+02  0.44062972095E+03 -0.53127712653E+03  0.69546340041E+03  0.00000000000E+00 0.  1.
         -1    1    6    6    0  502  0.62752696626E+03  0.20592015203E+03 -0.76412980973E+03  0.10099938458E+04  0.00000000000E+00 0.  1.
<mgrwt>
<rscale>  0 0.26851793E+04</rscale>
<asrwt>0</asrwt>
<pdfrwt beam="1">  1        2 0.64435089E+00 0.26851793E+04</pdfrwt>
<pdfrwt beam="2">  1       -2 0.66212111E-01 0.26851793E+04</pdfrwt>
<totfact> 0.43954356E-01</totfact>
</mgrwt>
</event>
<event>
12    1  0.1960998E-007  0.1067181E+04  0.7818608E-02  0.9237783E-01
          1   -1    0    0  501    0  0.00000000000E+00  0.00000000000E+00  0.32318491924E+03  0.32318491924E+03  0.00000000000E+00 0. -1.
         -1   -1    0    0    0  501 -0.00000000000E+00 -0.00000000000E+00 -0.88097814252E+03  0.88097814252E+03  0.00000000000E+00 0.  1.
         23    2    1    2    0    0 -0.11856545995E+03 -0.18389227085E+02 -0.13395512497E+03  0.20155212144E+03  0.91012912184E+02 0.  0.
        254    2    1    2    0    0  0.11856545995E+03  0.18389227085E+02 -0.42383809831E+03  0.10026109403E+04  0.90066310688E+03 0.  0.
        -24    2    4    4    0    0 -0.30565894286E+02  0.58066224210E+02 -0.68221257736E+03  0.69010430810E+03  0.80771251477E+02 0.  0.
         24    2    4    4    0    0  0.14913135423E+03 -0.39676997124E+02  0.25837447904E+03  0.31250663222E+03  0.84193817127E+02 0.  0.
         13    1    3    3    0    0 -0.65165506506E+02  0.34717150258E+02 -0.52385640619E+02  0.90532199263E+02  0.00000000000E+00 0.  1.
        -13    1    3    3    0    0 -0.53399953442E+02 -0.53106377343E+02 -0.81569484349E+02  0.11101992217E+03  0.00000000000E+00 0. -1.
          2    1    6    6  502    0  0.66636462419E+02  0.26754340365E+01  0.46713017268E+02  0.81422859525E+02  0.00000000000E+00 0. -1.
          3    1    5    5  503    0  0.27748465134E+02  0.14869082652E+02 -0.20109600026E+03  0.20354524867E+03  0.00000000000E+00 0. -1.
         -4    1    5    5    0  503 -0.58314359420E+02  0.43197141558E+02 -0.48111657710E+03  0.48655905943E+03  0.00000000000E+00 0.  1.
         -1    1    6    6    0  502  0.82494891816E+02 -0.42352431161E+02  0.21166146178E+03  0.23108377269E+03  0.00000000000E+00 0.  1.
<mgrwt>
<rscale>  0 0.10671811E+04</rscale>
<asrwt>0</asrwt>
<pdfrwt beam="1">  1        1 0.49720757E-01 0.10671811E+04</pdfrwt>
<pdfrwt beam="2">  1       -1 0.13553510E+00 0.10671811E+04</pdfrwt>
<totfact> 0.36221752E+01</totfact>
</mgrwt>
</event>
<event>
12    1  0.1960998E-007  0.1809917E+04  0.7818608E-02  0.8701044E-01
         -2   -1    0    0    0  501 -0.00000000000E+00  0.00000000000E+00  0.76357668704E+03  0.76357668704E+03  0.00000000000E+00 0.  1.
          2   -1    0    0  501    0  0.00000000000E+00 -0.00000000000E+00 -0.10725177589E+04  0.10725177589E+04  0.00000000000E+00 0. -1.
         23    2    1    2    0    0 -0.55719003117E+03 -0.37663429987E+03 -0.19250957103E+03  0.70555700977E+03  0.91851142738E+02 0.  0.
        254    2    1    2    0    0  0.55719003117E+03  0.37663429987E+03 -0.11643150083E+03  0.11305374362E+04  0.90124606713E+03 0.  0.
        -24    2    4    4    0    0  0.59952119317E+03  0.27413702927E+03 -0.42730420682E+03  0.79031829672E+03  0.86240089747E+02 0.  0.
         24    2    4    4    0    0 -0.42331162001E+02  0.10249727060E+03  0.31087270599E+03  0.34021913945E+03  0.82520335438E+02 0.  0.
         11    1    3    3    0    0 -0.14621412245E+03 -0.14093381011E+03 -0.33538692432E+02  0.20582942532E+03  0.00000000000E+00 0.  1.
        -11    1    3    3    0    0 -0.41097590872E+03 -0.23570048976E+03 -0.15897087860E+03  0.49972758445E+03  0.00000000000E+00 0. -1.
          2    1    6    6  502    0 -0.34634696159E+02  0.84822414027E+02  0.30722953113E+03  0.32060004506E+03  0.00000000000E+00 0. -1.
          3    1    5    5  503    0  0.54055987414E+03  0.26937408022E+03 -0.37195483364E+03  0.70930795208E+03  0.00000000000E+00 0. -1.
         -4    1    5    5    0  503  0.58961319036E+02  0.47629490478E+01 -0.55349373180E+02  0.81010344633E+02  0.00000000000E+00 0.  1.
         -1    1    6    6    0  502 -0.76964658422E+01  0.17674856576E+02  0.36431748652E+01  0.19619094386E+02  0.00000000000E+00 0.  1.
<mgrwt>
<rscale>  0 0.18099166E+04</rscale>
<asrwt>0</asrwt>
<pdfrwt beam="1">  1        2 0.16500273E+00 0.18099166E+04</pdfrwt>
<pdfrwt beam="2">  1       -2 0.11747334E+00 0.18099166E+04</pdfrwt>
<totfact> 0.11965278E+01</totfact>
</mgrwt>
</event>
<event>
12    1  0.1960998E-007  0.1252986E+04  0.7818608E-02  0.9067701E-01
         -1   -1    0    0    0  501 -0.00000000000E+00  0.00000000000E+00  0.36979098444E+03  0.36979098444E+03  0.00000000000E+00 0.  1.
          1   -1    0    0  501    0  0.00000000000E+00 -0.00000000000E+00 -0.10613934038E+04  0.10613934038E+04  0.00000000000E+00 0. -1.
         23    2    1    2    0    0 -0.22549407715E+02  0.26985163841E+03 -0.29468782432E+03  0.41043381637E+03  0.91030880899E+02 0.  0.
        254    2    1    2    0    0  0.22549407715E+02 -0.26985163841E+03 -0.39691459506E+03  0.10207505719E+04  0.90058989096E+03 0.  0.
        -24    2    4    4    0    0 -0.30327721889E+03  0.19319728764E+03 -0.16433022831E+03  0.40343113365E+03  0.80311843553E+02 0.  0.
         24    2    4    4    0    0  0.32582662660E+03 -0.46304892605E+03 -0.23258436674E+03  0.61731943823E+03  0.80065614649E+02 0.  0.
         13    1    3    3    0    0  0.18553286854E+02  0.62122984488E+02 -0.29928934155E+02  0.71408898286E+02  0.00000000000E+00 0.  1.
        -13    1    3    3    0    0 -0.41102694569E+02  0.20772865392E+03 -0.26475889016E+03  0.33902491808E+03  0.00000000000E+00 0. -1.
          2    1    6    6  502    0  0.31802375533E+03 -0.46437566084E+03 -0.23350574710E+03  0.60935112805E+03  0.00000000000E+00 0. -1.
          3    1    5    5  503    0 -0.22789744920E+03  0.15989322167E+03 -0.15957443646E+03  0.32088485545E+03  0.00000000000E+00 0. -1.
         -4    1    5    5    0  503 -0.75379769688E+02  0.33304065968E+02 -0.47557918539E+01  0.82546278199E+02  0.00000000000E+00 0.  1.
         -1    1    6    6    0  502  0.78028712750E+01  0.13267347902E+01  0.92138035793E+00  0.79683101786E+01  0.00000000000E+00 0.  1.
<mgrwt>
<rscale>  0 0.12529864E+04</rscale>
<asrwt>0</asrwt>
<pdfrwt beam="1">  1        1 0.16329129E+00 0.12529864E+04</pdfrwt>
<pdfrwt beam="2">  1       -1 0.56890922E-01 0.12529864E+04</pdfrwt>
<totfact> 0.41826548E+01</totfact>
</mgrwt>
</event>
<event>
12    1  0.1960998E-007  0.1816447E+04  0.7818608E-02  0.8697602E-01
          1   -1    0    0  501    0  0.00000000000E+00  0.00000000000E+00  0.36248444024E+04  0.36248444024E+04  0.00000000000E+00 0. -1.
         -1   -1    0    0    0  501 -0.00000000000E+00 -0.00000000000E+00 -0.22755997783E+03  0.22755997783E+03  0.00000000000E+00 0.  1.
         23    2    1    2    0    0 -0.40555502448E+03 -0.51764078661E+03  0.16811893764E+04  0.18075198736E+04  0.91123609742E+02 0.  0.
        254    2    1    2    0    0  0.40555502448E+03  0.51764078661E+03  0.17160950482E+04  0.20448845067E+04  0.89674052506E+03 0.  0.
        -24    2    4    4    0    0  0.65751808717E+03  0.43381398530E+03  0.98826157816E+03  0.12663254670E+04  0.79966447513E+02 0.  0.
         24    2    4    4    0    0 -0.25196306268E+03  0.83826801314E+02  0.72783347003E+03  0.77855903965E+03  0.76813413838E+02 0.  0.
         11    1    3    3    0    0 -0.12993884142E+03 -0.10240594219E+03  0.42880605496E+03  0.45961474331E+03  0.00000000000E+00 0. -1.
        -11    1    3    3    0    0 -0.27561618306E+03 -0.41523484443E+03  0.12523833214E+04  0.13479051302E+04  0.00000000000E+00 0.  1.
          4    1    6    6  502    0 -0.21678782592E+03  0.75995889027E+02  0.68548224146E+03  0.72295106333E+03  0.00000000000E+00 0. -1.
          3    1    5    5  503    0  0.65144432831E+03  0.42336789522E+03  0.98346447054E+03  0.12533245599E+04  0.00000000000E+00 0. -1.
         -4    1    5    5    0  503  0.60737588612E+01  0.10446090076E+02  0.47971076232E+01  0.13000907127E+02  0.00000000000E+00 0.  1.
         -3    1    6    6    0  502 -0.35175236762E+02  0.78309122876E+01  0.42351228573E+02  0.55607976317E+02  0.00000000000E+00 0.  1.
<mgrwt>
<rscale>  0 0.18164465E+04</rscale>
<asrwt>0</asrwt>
<pdfrwt beam="1">  1        1 0.55766833E+00 0.18164465E+04</pdfrwt>
<pdfrwt beam="2">  1       -1 0.35009230E-01 0.18164465E+04</pdfrwt>
<totfact> 0.14626098E+00</totfact>
</mgrwt>
</event>
<event>
12    1  0.1960998E-007  0.1598236E+04  0.7818608E-02  0.8821632E-01
          1   -1    0    0  501    0  0.00000000000E+00  0.00000000000E+00  0.45159737068E+03  0.45159737068E+03  0.00000000000E+00 0. -1.
         -1   -1    0    0    0  501 -0.00000000000E+00 -0.00000000000E+00 -0.14140688991E+04  0.14140688991E+04  0.00000000000E+00 0.  1.
         23    2    1    2    0    0 -0.19947509599E+03 -0.14154140672E+03 -0.89209392935E+03  0.92931292670E+03  0.89256110210E+02 0.  0.
        254    2    1    2    0    0  0.19947509599E+03  0.14154140672E+03 -0.70377599077E+02  0.93635334308E+03  0.90109949112E+03 0.  0.
        -24    2    4    4    0    0 -0.15884201944E+03 -0.29958464558E+03  0.44041509160E+02  0.34983468500E+03  0.73911469266E+02 0.  0.
         24    2    4    4    0    0  0.35831711543E+03  0.44112605231E+03 -0.11441910824E+03  0.58651865808E+03  0.89045239675E+02 0.  0.
         13    1    3    3    0    0 -0.10437602577E+03 -0.60125759191E+02 -0.59240412869E+03  0.60452635456E+03  0.00000000000E+00 0.  1.
        -13    1    3    3    0    0 -0.95099070220E+02 -0.81415647532E+02 -0.29968980066E+03  0.32478657214E+03  0.00000000000E+00 0. -1.
          4    1    6    6  502    0  0.10754136383E+03  0.20033789667E+03 -0.53049377475E+02  0.23348373439E+03  0.00000000000E+00 0. -1.
          1    1    5    5  503    0  0.28763792265E+01 -0.29799721210E+02 -0.80657909344E+01  0.31005707943E+02  0.00000000000E+00 0. -1.
         -2    1    5    5    0  503 -0.16171839867E+03 -0.26978492437E+03  0.52107300094E+02  0.31882897706E+03  0.00000000000E+00 0.  1.
         -3    1    6    6    0  502  0.25077575160E+03  0.24078815564E+03 -0.61369730761E+02  0.35303492369E+03  0.00000000000E+00 0.  1.
<mgrwt>
<rscale>  0 0.15982363E+04</rscale>
<asrwt>0</asrwt>
<pdfrwt beam="1">  1        1 0.69476518E-01 0.15982363E+04</pdfrwt>
<pdfrwt beam="2">  1       -1 0.21754906E+00 0.15982363E+04</pdfrwt>
<totfact> 0.55891378E+00</totfact>
</mgrwt>
</event>
<event>
12    1  0.1960998E-007  0.3324739E+04  0.7818608E-02  0.8156629E-01
          1   -1    0    0  501    0  0.00000000000E+00  0.00000000000E+00  0.21526612105E+04  0.21526612105E+04  0.00000000000E+00 0. -1.
         -1   -1    0    0    0  501 -0.00000000000E+00 -0.00000000000E+00 -0.12837468085E+04  0.12837468085E+04  0.00000000000E+00 0.  1.
         23    2    1    2    0    0  0.12303763251E+03  0.15323282814E+04  0.32500418088E+03  0.15738304657E+04  0.90257389542E+02 0.  0.
        254    2    1    2    0    0 -0.12303763251E+03 -0.15323282814E+04  0.54391022113E+03  0.18625775532E+04  0.90010476723E+03 0.  0.
        -24    2    4    4    0    0 -0.19846466254E+03 -0.13393955210E+04  0.75767000761E+03  0.15540005912E+04  0.86518282143E+02 0.  0.
         24    2    4    4    0    0  0.75427030028E+02 -0.19293276040E+03 -0.21375978648E+03  0.30857696196E+03  0.81327782724E+02 0.  0.
         11    1    3    3    0    0  0.38385549134E+02  0.62194600268E+03  0.88089439801E+02  0.62932505912E+03  0.00000000000E+00 0.  1.
        -11    1    3    3    0    0  0.84652083377E+02  0.91038227870E+03  0.23691474108E+03  0.94450540662E+03  0.00000000000E+00 0. -1.
          4    1    6    6  502    0  0.42517183998E+01 -0.69592306616E+02 -0.29508723276E+02  0.75709517227E+02  0.00000000000E+00 0. -1.
          3    1    5    5  503    0 -0.20158968221E+02 -0.59651557954E+02  0.52580615361E+02  0.82033002370E+02  0.00000000000E+00 0. -1.
         -4    1    5    5    0  503 -0.17830569432E+03 -0.12797439630E+04  0.70508939225E+03  0.14719675888E+04  0.00000000000E+00 0.  1.
         -3    1    6    6    0  502  0.71175311629E+02 -0.12334045379E+03 -0.18425106320E+03  0.23286744473E+03  0.00000000000E+00 0.  1.
<mgrwt>
<rscale>  0 0.33247388E+04</rscale>
<asrwt>0</asrwt>
<pdfrwt beam="1">  1        1 0.33117865E+00 0.33247388E+04</pdfrwt>
<pdfrwt beam="2">  1       -1 0.19749951E+00 0.33247388E+04</pdfrwt>
<totfact> 0.30427903E-01</totfact>
</mgrwt>
</event>
<event>
12    1  0.1960998E-007  0.1856227E+04  0.7818608E-02  0.8676957E-01
         -1   -1    0    0    0  501 -0.00000000000E+00  0.00000000000E+00  0.12896116330E+04  0.12896116330E+04  0.00000000000E+00 0.  1.
          1   -1    0    0  501    0  0.00000000000E+00 -0.00000000000E+00 -0.66794868294E+03  0.66794868294E+03  0.00000000000E+00 0. -1.
         23    2    1    2    0    0  0.56330722748E+03 -0.25359951231E+03 -0.13080937663E+03  0.63815347951E+03  0.92201004440E+02 0.  0.
        254    2    1    2    0    0 -0.56330722748E+03  0.25359951231E+03  0.75247232669E+03  0.13194068364E+04  0.89050101200E+03 0.  0.
        -24    2    4    4    0    0 -0.13370752026E+03  0.20447655453E+03 -0.16244286425E+03  0.30404939483E+03  0.79812204733E+02 0.  0.
         24    2    4    4    0    0 -0.42959970722E+03  0.49122957777E+02  0.91491519093E+03  0.10153574416E+04  0.83138163080E+02 0.  0.
         13    1    3    3    0    0  0.10501111392E+03 -0.10683368363E+02 -0.14093462630E+02  0.10648987790E+03  0.00000000000E+00 0.  1.
        -13    1    3    3    0    0  0.45829611356E+03 -0.24291614395E+03 -0.11671591400E+03  0.53166360161E+03  0.00000000000E+00 0. -1.
          2    1    6    6  502    0 -0.28783208993E+03  0.62289434592E+02  0.67375030815E+03  0.73530045790E+03  0.00000000000E+00 0. -1.
          1    1    5    5  503    0 -0.11079398810E+03  0.17734720801E+03 -0.16783136976E+03  0.26813188670E+03  0.00000000000E+00 0. -1.
         -2    1    5    5    0  503 -0.22913532163E+02  0.27129346520E+02  0.53885055139E+01  0.35917508132E+02  0.00000000000E+00 0.  1.
         -1    1    6    6    0  502 -0.14176761729E+03 -0.13166476815E+02  0.24116488279E+03  0.28005698369E+03  0.00000000000E+00 0.  1.
<mgrwt>
<rscale>  0 0.18562267E+04</rscale>
<asrwt>0</asrwt>
<pdfrwt beam="1">  1        1 0.10276134E+00 0.18562267E+04</pdfrwt>
<pdfrwt beam="2">  1       -1 0.19840179E+00 0.18562267E+04</pdfrwt>
<totfact> 0.42390780E+00</totfact>
</mgrwt>
</event>
<event>
12    1  0.1960998E-007  0.2546418E+04  0.7818608E-02  0.8386633E-01
         -2   -1    0    0    0  501 -0.00000000000E+00  0.00000000000E+00  0.12647007905E+04  0.12647007905E+04  0.00000000000E+00 0.  1.
          2   -1    0    0  501    0  0.00000000000E+00 -0.00000000000E+00 -0.12817741135E+04  0.12817741135E+04  0.00000000000E+00 0. -1.
         23    2    1    2    0    0 -0.26831100594E+03 -0.58930425561E+03  0.89654649261E+03  0.11096182938E+04  0.90481174154E+02 0.  0.
        254    2    1    2    0    0  0.26831100594E+03  0.58930425561E+03 -0.91361981553E+03  0.14368566102E+04  0.90032519091E+03 0.  0.
        -24    2    4    4    0    0 -0.14858263588E+03  0.64176161285E+03 -0.67400901994E+03  0.94606697779E+03  0.82582080929E+02 0.  0.
         24    2    4    4    0    0  0.41689364182E+03 -0.52457357233E+02 -0.23961079558E+03  0.49078963242E+03  0.83120677412E+02 0.  0.
         11    1    3    3    0    0 -0.82252286559E+01 -0.88937593898E+02  0.10735230164E+03  0.13964980008E+03  0.00000000000E+00 0. -1.
        -11    1    3    3    0    0 -0.26008577728E+03 -0.50036666172E+03  0.78919419096E+03  0.96996849369E+03  0.00000000000E+00 0.  1.
          4    1    6    6  502    0  0.38692348234E+01  0.61105223937E+01 -0.15822209945E+02  0.17396890228E+02  0.00000000000E+00 0. -1.
          1    1    5    5  503    0 -0.31453054316E+02  0.60704850776E+02 -0.45417710287E+02  0.82080094671E+02  0.00000000000E+00 0. -1.
         -2    1    5    5    0  503 -0.11712958157E+03  0.58105676207E+03 -0.62859130966E+03  0.86398688312E+03  0.00000000000E+00 0.  1.
         -3    1    6    6    0  502  0.41302440700E+03 -0.58567879627E+02 -0.22378858564E+03  0.47339274219E+03  0.00000000000E+00 0.  1.
<mgrwt>
<rscale>  0 0.25464177E+04</rscale>
<asrwt>0</asrwt>
<pdfrwt beam="1">  1        2 0.19719602E+00 0.25464177E+04</pdfrwt>
<pdfrwt beam="2">  1       -2 0.19456935E+00 0.25464177E+04</pdfrwt>
<totfact> 0.21747408E+00</totfact>
</mgrwt>
</event>
<event>
12    1  0.1960998E-007  0.2103901E+04  0.7818608E-02  0.8559527E-01
          2   -1    0    0  501    0  0.00000000000E+00  0.00000000000E+00  0.71949172784E+03  0.71949172784E+03  0.00000000000E+00 0. -1.
         -2   -1    0    0    0  501 -0.00000000000E+00 -0.00000000000E+00 -0.15380296918E+04  0.15380296918E+04  0.00000000000E+00 0.  1.
         23    2    1    2    0    0  0.78987719951E+03 -0.16203611535E+03 -0.31733877483E+02  0.81221640141E+03  0.92340406940E+02 0.  0.
        254    2    1    2    0    0 -0.78987719951E+03  0.16203611535E+03 -0.78680408648E+03  0.14453050182E+04  0.90536414346E+03 0.  0.
        -24    2    4    4    0    0 -0.40313344376E+03 -0.36319456093E+03 -0.28540442398E+03  0.61883748794E+03  0.84126622889E+02 0.  0.
         24    2    4    4    0    0 -0.38674375575E+03  0.52523067628E+03 -0.50139966250E+03  0.82646753030E+03  0.78796961668E+02 0.  0.
         11    1    3    3    0    0  0.40363808465E+03 -0.66174003443E+02 -0.59311695614E+02  0.41330446326E+03  0.00000000000E+00 0.  1.
        -11    1    3    3    0    0  0.38623911486E+03 -0.95862111908E+02  0.27577818130E+02  0.39891193815E+03  0.00000000000E+00 0. -1.
          4    1    6    6  502    0 -0.22891611769E+03  0.24554595789E+03 -0.24731934889E+03  0.41696794446E+03  0.00000000000E+00 0. -1.
          3    1    5    5  503    0 -0.23937799333E+03 -0.26608091151E+03 -0.17031710227E+03  0.39636951256E+03  0.00000000000E+00 0. -1.
         -4    1    5    5    0  503 -0.16375545043E+03 -0.97113649421E+02 -0.11508732171E+03  0.22246797538E+03  0.00000000000E+00 0.  1.
         -3    1    6    6    0  502 -0.15782763806E+03  0.27968471839E+03 -0.25408031361E+03  0.40949958584E+03  0.00000000000E+00 0.  1.
<mgrwt>
<rscale>  0 0.21039008E+04</rscale>
<asrwt>0</asrwt>
<pdfrwt beam="1">  1        2 0.11069104E+00 0.21039008E+04</pdfrwt>
<pdfrwt beam="2">  1       -2 0.23661995E+00 0.21039008E+04</pdfrwt>
<totfact> 0.28325428E+00</totfact>
</mgrwt>
</event>
<event>
12    1  0.1960998E-007  0.1590782E+04  0.7818608E-02  0.8826231E-01
          1   -1    0    0  501    0  0.00000000000E+00  0.00000000000E+00  0.32211887244E+04  0.32211887244E+04  0.00000000000E+00 0. -1.
         -1   -1    0    0    0  501 -0.00000000000E+00 -0.00000000000E+00 -0.19640155063E+03  0.19640155063E+03  0.00000000000E+00 0.  1.
         23    2    1    2    0    0  0.35603940749E+03 -0.49507442306E+02  0.18805795053E+04  0.19166193984E+04  0.87381898063E+02 0.  0.
        254    2    1    2    0    0 -0.35603940749E+03  0.49507442306E+02  0.11442076684E+04  0.15009708766E+04  0.90248952200E+03 0.  0.
        -24    2    4    4    0    0  0.15278698507E+03 -0.27718816426E+03  0.60436117113E+03  0.68692831405E+03  0.80255481171E+02 0.  0.
         24    2    4    4    0    0 -0.50882639256E+03  0.32669560656E+03  0.53984649730E+03  0.81404256253E+03  0.74811335108E+02 0.  0.
         11    1    3    3    0    0  0.20175748708E+03 -0.48661475962E+02  0.12701320239E+04  0.12869768378E+04  0.00000000000E+00 0. -1.
        -11    1    3    3    0    0  0.15428192041E+03 -0.84596634356E+00  0.61044748142E+03  0.62964256066E+03  0.00000000000E+00 0.  1.
          2    1    6    6  502    0 -0.49985157289E+03  0.30709925700E+03  0.51076642746E+03  0.77784567364E+03  0.00000000000E+00 0. -1.
          1    1    5    5  503    0  0.12164948210E+03 -0.22358385604E+03  0.54302893316E+03  0.59972390266E+03  0.00000000000E+00 0. -1.
         -4    1    5    5    0  503  0.31137502966E+02 -0.53604308217E+02  0.61332237978E+02  0.87204411389E+02  0.00000000000E+00 0.  1.
         -1    1    6    6    0  502 -0.89748196681E+01  0.19596349567E+02  0.29080069833E+02  0.36196888899E+02  0.00000000000E+00 0.  1.
<mgrwt>
<rscale>  0 0.15907815E+04</rscale>
<asrwt>0</asrwt>
<pdfrwt beam="1">  1        1 0.49556746E+00 0.15907815E+04</pdfrwt>
<pdfrwt beam="2">  1       -1 0.30215626E-01 0.15907815E+04</pdfrwt>
<totfact> 0.39924651E+00</totfact>
</mgrwt>
</event>
<event>
12    1  0.1960998E-007  0.1476778E+04  0.7818608E-02  0.8900044E-01
          1   -1    0    0  501    0  0.00000000000E+00  0.00000000000E+00  0.19166656854E+04  0.19166656854E+04  0.00000000000E+00 0. -1.
         -1   -1    0    0    0  501 -0.00000000000E+00 -0.00000000000E+00 -0.28446172913E+03  0.28446172913E+03  0.00000000000E+00 0.  1.
         23    2    1    2    0    0  0.38329255932E+03 -0.19119351811E+03  0.27175668373E+03  0.51532964941E+03  0.90800908690E+02 0.  0.
        254    2    1    2    0    0 -0.38329255932E+03  0.19119351811E+03  0.13604472726E+04  0.16857977652E+04  0.89868191044E+03 0.  0.
        -24    2    4    4    0    0 -0.19564374735E+03 -0.10234409557E+03  0.13022038589E+04  0.13232272003E+04  0.80277915763E+02 0.  0.
         24    2    4    4    0    0 -0.18764881197E+03  0.29353761368E+03  0.58243413717E+02  0.36257056487E+03  0.81784546172E+02 0.  0.
         11    1    3    3    0    0  0.12572697043E+02  0.88131750779E+01  0.17627914490E+02  0.23377085685E+02  0.00000000000E+00 0. -1.
        -11    1    3    3    0    0  0.37071986227E+03 -0.20000669318E+03  0.25412876924E+03  0.49195256373E+03  0.00000000000E+00 0.  1.
          2    1    6    6  502    0 -0.68867418097E+02  0.10631094952E+03  0.61525138182E+02  0.14081932357E+03  0.00000000000E+00 0. -1.
          1    1    5    5  503    0 -0.14766677611E+02 -0.68717854051E+01  0.25591162087E+02  0.30334531137E+02  0.00000000000E+00 0. -1.
         -2    1    5    5    0  503 -0.18087706974E+03 -0.95472310168E+02  0.12766126968E+04  0.12928926692E+04  0.00000000000E+00 0.  1.
         -1    1    6    6    0  502 -0.11878139387E+03  0.18722666416E+03 -0.32817244650E+01  0.22175124130E+03  0.00000000000E+00 0.  1.
<mgrwt>
<rscale>  0 0.14767776E+04</rscale>
<asrwt>0</asrwt>
<pdfrwt beam="1">  1        1 0.29487164E+00 0.14767776E+04</pdfrwt>
<pdfrwt beam="2">  1       -1 0.43763344E-01 0.14767776E+04</pdfrwt>
<totfact> 0.16979619E+01</totfact>
</mgrwt>
</event>
<event>
12    1  0.2495318E-007  0.2756244E+04  0.7818608E-02  0.8316983E-01
         -1   -1    0    0    0  501 -0.00000000000E+00  0.00000000000E+00  0.79865389032E+03  0.79865389032E+03  0.00000000000E+00 0.  1.
          1   -1    0    0  501    0  0.00000000000E+00 -0.00000000000E+00 -0.23780260453E+04  0.23780260453E+04  0.00000000000E+00 0. -1.
         23    2    1    2    0    0  0.10099682126E+04 -0.67335778644E+03 -0.93689278625E+03  0.15360558105E+04  0.90845258398E+02 0.  0.
        254    2    1    2    0    0 -0.10099682126E+04  0.67335778644E+03 -0.64247936868E+03  0.16406241251E+04  0.89745266255E+03 0.  0.
        -24    2    4    4    0    0 -0.94245210054E+03  0.75150208786E+03 -0.25905052004E+03  0.12354634161E+04  0.79317909888E+02 0.  0.
         24    2    4    4    0    0 -0.67516112094E+02 -0.78144301427E+02 -0.38342884865E+03  0.40516070893E+03  0.80452227125E+02 0.  0.
         13    1    3    3    0    0  0.33256231529E+03 -0.27371276378E+03 -0.32667209585E+03  0.54058397018E+03  0.00000000000E+00 0. -1.
        -13    1    3    3    0    0  0.67740589735E+03 -0.39964502266E+03 -0.61022069040E+03  0.99547184033E+03  0.00000000000E+00 0.  1.
          2    1    6    6  502    0 -0.40120036111E+02 -0.41673879788E+02 -0.82297623015E+02  0.10059437513E+03  0.00000000000E+00 0. -1.
          3    1    5    5  503    0 -0.18444881673E+02  0.30131784191E+01 -0.67012106744E+01  0.19854448585E+02  0.00000000000E+00 0. -1.
         -4    1    5    5    0  503 -0.92400721887E+03  0.74848890944E+03 -0.25234930936E+03  0.12156089676E+04  0.00000000000E+00 0.  1.
         -1    1    6    6    0  502 -0.27396075983E+02 -0.36470421638E+02 -0.30113122563E+03  0.30456633380E+03  0.00000000000E+00 0.  1.
<mgrwt>
<rscale>  0 0.27562436E+04</rscale>
<asrwt>0</asrwt>
<pdfrwt beam="1">  1        1 0.36585016E+00 0.27562436E+04</pdfrwt>
<pdfrwt beam="2">  1       -1 0.12286983E+00 0.27562436E+04</pdfrwt>
<totfact> 0.83458865E-01</totfact>
</mgrwt>
</event>
<event>
12    1  0.1960998E-007  0.1909584E+04  0.7818608E-02  0.8650101E-01
          2   -1    0    0  501    0  0.00000000000E+00  0.00000000000E+00  0.86285526868E+03  0.86285526868E+03  0.00000000000E+00 0. -1.
         -2   -1    0    0    0  501 -0.00000000000E+00 -0.00000000000E+00 -0.10565241065E+04  0.10565241065E+04  0.00000000000E+00 0.  1.
         23    2    1    2    0    0 -0.56816219292E+03  0.75241691933E+02 -0.54658824885E+03  0.79593899748E+03  0.79313203561E+02 0.  0.
        254    2    1    2    0    0  0.56816219292E+03 -0.75241691933E+02  0.35291941100E+03  0.11234403777E+04  0.89949796108E+03 0.  0.
        -24    2    4    4    0    0  0.29086228655E+02 -0.23534002970E+03 -0.20801826858E+03  0.32519173650E+03  0.79038769894E+02 0.  0.
         24    2    4    4    0    0  0.53907596426E+03  0.16009833777E+03  0.56093767958E+03  0.79824864123E+03  0.79469741774E+02 0.  0.
         11    1    3    3    0    0 -0.44918853057E+03  0.37175402151E+02 -0.39326492659E+03  0.59817192262E+03  0.00000000000E+00 0. -1.
        -11    1    3    3    0    0 -0.11897366235E+03  0.38066289783E+02 -0.15332332226E+03  0.19776707486E+03  0.00000000000E+00 0.  1.
          2    1    6    6  502    0  0.47134327322E+03  0.11436666704E+03  0.49739006943E+03  0.69472375583E+03  0.00000000000E+00 0. -1.
          1    1    5    5  503    0  0.29169556203E+02 -0.21737601204E+03 -0.21382976388E+03  0.30631089034E+03  0.00000000000E+00 0. -1.
         -2    1    5    5    0  503 -0.83327548031E-01 -0.17964017661E+02  0.58114953011E+01  0.18880846157E+02  0.00000000000E+00 0.  1.
         -1    1    6    6    0  502  0.67732691044E+02  0.45731670723E+02  0.63547610146E+02  0.10352488541E+03  0.00000000000E+00 0.  1.
<mgrwt>
<rscale>  0 0.19095836E+04</rscale>
<asrwt>0</asrwt>
<pdfrwt beam="1">  1        2 0.13274696E+00 0.19095836E+04</pdfrwt>
<pdfrwt beam="2">  1       -2 0.16254217E+00 0.19095836E+04</pdfrwt>
<totfact> 0.70176299E+00</totfact>
</mgrwt>
</event>
<event>
12    1  0.1960998E-007  0.2101480E+04  0.7818608E-02  0.8560592E-01
          2   -1    0    0  501    0  0.00000000000E+00  0.00000000000E+00  0.20910242736E+04  0.20910242736E+04  0.00000000000E+00 0. -1.
         -2   -1    0    0    0  501 -0.00000000000E+00 -0.00000000000E+00 -0.52799683302E+03  0.52799683302E+03  0.00000000000E+00 0.  1.
         23    2    1    2    0    0 -0.39638856263E+03 -0.45973090129E+03  0.14016964243E+04  0.15301852856E+04  0.90762041801E+02 0.  0.
        254    2    1    2    0    0  0.39638856263E+03  0.45973090129E+03  0.16133101629E+03  0.10888358210E+04  0.88941517534E+03 0.  0.
        -24    2    4    4    0    0 -0.18753821589E+03  0.72519383777E+01 -0.18144197606E+03  0.27077338445E+03  0.71929562900E+02 0.  0.
         24    2    4    4    0    0  0.58392677852E+03  0.45247896292E+03  0.34277299235E+03  0.81806243657E+03  0.77621719121E+02 0.  0.
         11    1    3    3    0    0 -0.82930389992E+02 -0.13550304632E+03  0.44543182539E+03  0.47291440686E+03  0.00000000000E+00 0. -1.
        -11    1    3    3    0    0 -0.31345817263E+03 -0.32422785498E+03  0.95626459887E+03  0.10572708787E+04  0.00000000000E+00 0.  1.
          4    1    6    6  502    0  0.57802439706E+03  0.44657431308E+03  0.32716333843E+03  0.80036033804E+03  0.00000000000E+00 0. -1.
          3    1    5    5  503    0 -0.16697192712E+03  0.11951132414E+02 -0.18487260266E+03  0.24939994632E+03  0.00000000000E+00 0. -1.
         -4    1    5    5    0  503 -0.20566288775E+02 -0.46991940360E+01  0.34306265980E+01  0.21373438128E+02  0.00000000000E+00 0.  1.
         -3    1    6    6    0  502  0.59023814634E+01  0.59046498393E+01  0.15609653924E+02  0.17702098528E+02  0.00000000000E+00 0.  1.
<mgrwt>
<rscale>  0 0.21014797E+04</rscale>
<asrwt>0</asrwt>
<pdfrwt beam="1">  1        2 0.32169604E+00 0.21014797E+04</pdfrwt>
<pdfrwt beam="2">  1       -2 0.81230283E-01 0.21014797E+04</pdfrwt>
<totfact> 0.73142860E+00</totfact>
</mgrwt>
</event>
<event>
12    1  0.1960998E-007  0.2578070E+04  0.7818608E-02  0.8375689E-01
         -1   -1    0    0    0  501 -0.00000000000E+00  0.00000000000E+00  0.52713671846E+03  0.52713671846E+03  0.00000000000E+00 0.  1.
          1   -1    0    0  501    0  0.00000000000E+00 -0.00000000000E+00 -0.31521445326E+04  0.31521445326E+04  0.00000000000E+00 0. -1.
         23    2    1    2    0    0 -0.25125485886E+03 -0.10750161649E+04 -0.14880030976E+04  0.18553276754E+04  0.96430315039E+02 0.  0.
        254    2    1    2    0    0  0.25125485886E+03  0.10750161649E+04 -0.11370047166E+04  0.18239535757E+04  0.90290540043E+03 0.  0.
        -24    2    4    4    0    0  0.33826912533E+03  0.18246863385E+03 -0.74459032036E+03  0.84188340246E+03  0.81437796380E+02 0.  0.
         24    2    4    4    0    0 -0.87014266472E+02  0.89254753100E+03 -0.39241439620E+03  0.98207017326E+03  0.79121357371E+02 0.  0.
         11    1    3    3    0    0 -0.49968840895E+02 -0.40597507183E+03 -0.52307285797E+03  0.66401645970E+03  0.00000000000E+00 0. -1.
        -11    1    3    3    0    0 -0.20128601796E+03 -0.66904109302E+03 -0.96493023966E+03  0.11913112157E+04  0.00000000000E+00 0.  1.
          4    1    6    6  502    0 -0.28233314177E+02  0.53529605102E+03 -0.26744657429E+03  0.59905479914E+03  0.00000000000E+00 0. -1.
          3    1    5    5  503    0  0.64331369494E+02  0.59749145909E+01 -0.16091621040E+03  0.17340199386E+03  0.00000000000E+00 0. -1.
         -4    1    5    5    0  503  0.27393775583E+03  0.17649371926E+03 -0.58367410996E+03  0.66848140860E+03  0.00000000000E+00 0.  1.
         -1    1    6    6    0  502 -0.58780952295E+02  0.35725147998E+03 -0.12496782190E+03  0.38301537412E+03  0.00000000000E+00 0.  1.
<mgrwt>
<rscale>  0 0.25780699E+04</rscale>
<asrwt>0</asrwt>
<pdfrwt beam="1">  1        1 0.48494531E+00 0.25780699E+04</pdfrwt>
<pdfrwt beam="2">  1       -1 0.81097957E-01 0.25780699E+04</pdfrwt>
<totfact> 0.61711237E-01</totfact>
</mgrwt>
</event>
<event>
12    1  0.1960998E-007  0.1742046E+04  0.7818608E-02  0.8737741E-01
         -2   -1    0    0    0  501 -0.00000000000E+00  0.00000000000E+00  0.36655152752E+03  0.36655152752E+03  0.00000000000E+00 0.  1.
          2   -1    0    0  501    0  0.00000000000E+00 -0.00000000000E+00 -0.20697808785E+04  0.20697808785E+04  0.00000000000E+00 0. -1.
         23    2    1    2    0    0  0.14955035594E+03  0.55679001266E+03 -0.25838003778E+03  0.63899962057E+03  0.95811502463E+02 0.  0.
        254    2    1    2    0    0 -0.14955035594E+03 -0.55679001266E+03 -0.14448493132E+04  0.17973327854E+04  0.90024173233E+03 0.  0.
        -24    2    4    4    0    0 -0.85001350031E+02 -0.31594356882E+03 -0.87635004459E+01  0.33752867458E+03  0.82481749732E+02 0.  0.
         24    2    4    4    0    0 -0.64549005913E+02 -0.24084644384E+03 -0.14360858127E+04  0.14598041108E+04  0.80696944464E+02 0.  0.
         11    1    3    3    0    0  0.62542466727E+02  0.30031399920E+03 -0.18569035346E+03  0.35858188135E+03  0.00000000000E+00 0. -1.
        -11    1    3    3    0    0  0.87007889217E+02  0.25647601346E+03 -0.72689684322E+02  0.28041773922E+03  0.00000000000E+00 0.  1.
          4    1    6    6  502    0 -0.26966596457E+02 -0.22846682964E+02 -0.32457488895E+03  0.32649353253E+03  0.00000000000E+00 0. -1.
          1    1    5    5  503    0 -0.11582362808E+02 -0.19821810085E+03 -0.95062179461E+01  0.19878363819E+03  0.00000000000E+00 0. -1.
         -2    1    5    5    0  503 -0.73418987223E+02 -0.11772546797E+03  0.74271750011E+00  0.13874503639E+03  0.00000000000E+00 0.  1.
         -3    1    6    6    0  502 -0.37582409455E+02 -0.21799976088E+03 -0.11115109238E+04  0.11333105783E+04  0.00000000000E+00 0.  1.
<mgrwt>
<rscale>  0 0.17420463E+04</rscale>
<asrwt>0</asrwt>
<pdfrwt beam="1">  1        2 0.31842783E+00 0.17420463E+04</pdfrwt>
<pdfrwt beam="2">  1       -2 0.56392543E-01 0.17420463E+04</pdfrwt>
<totfact> 0.17099377E+01</totfact>
</mgrwt>
</event>
<event>
12    1  0.1960998E-007  0.1310199E+04  0.7818608E-02  0.9021516E-01
         -2   -1    0    0    0  501 -0.00000000000E+00  0.00000000000E+00  0.18505307960E+03  0.18505307960E+03  0.00000000000E+00 0.  1.
          2   -1    0    0  501    0  0.00000000000E+00 -0.00000000000E+00 -0.23190921194E+04  0.23190921194E+04  0.00000000000E+00 0. -1.
         23    2    1    2    0    0 -0.26149026137E+03 -0.17038651532E+03 -0.33001905918E+03  0.46373859185E+03  0.93446138280E+02 0.  0.
        254    2    1    2    0    0  0.26149026137E+03  0.17038651532E+03 -0.18040199807E+04  0.20404066072E+04  0.90075652130E+03 0.  0.
        -24    2    4    4    0    0  0.23236844862E+03  0.48069163280E+03 -0.15125056763E+04  0.16059256242E+04  0.79146370825E+02 0.  0.
         24    2    4    4    0    0  0.29121812746E+02 -0.31030511748E+03 -0.29151430439E+03  0.43448098297E+03  0.81583018981E+02 0.  0.
         13    1    3    3    0    0 -0.97127117472E+01  0.11193648499E+02 -0.21194893369E+02  0.25862289944E+02  0.00000000000E+00 0. -1.
        -13    1    3    3    0    0 -0.25177754962E+03 -0.18158016382E+03 -0.30882416581E+03  0.43787630191E+03  0.00000000000E+00 0.  1.
          4    1    6    6  502    0 -0.11545823354E+02 -0.84468144941E+02 -0.12354319711E+03  0.15010361455E+03  0.00000000000E+00 0. -1.
          1    1    5    5  503    0  0.14792129261E+03  0.21532313924E+03 -0.73996150641E+03  0.78472147547E+03  0.00000000000E+00 0. -1.
         -2    1    5    5    0  503  0.84447156010E+02  0.26536849356E+03 -0.77254416987E+03  0.82120414876E+03  0.00000000000E+00 0.  1.
         -3    1    6    6    0  502  0.40667636100E+02 -0.22583697254E+03 -0.16797110727E+03  0.28437736842E+03  0.00000000000E+00 0.  1.
<mgrwt>
<rscale>  0 0.13101987E+04</rscale>
<asrwt>0</asrwt>
<pdfrwt beam="1">  1        2 0.35678338E+00 0.13101987E+04</pdfrwt>
<pdfrwt beam="2">  1       -2 0.28469706E-01 0.13101987E+04</pdfrwt>
<totfact> 0.49102015E+01</totfact>
</mgrwt>
</event>
<event>
12    1  0.1960998E-007  0.2042227E+04  0.7818608E-02  0.8587129E-01
          2   -1    0    0  501    0  0.00000000000E+00  0.00000000000E+00  0.96138926407E+03  0.96138926407E+03  0.00000000000E+00 0. -1.
         -2   -1    0    0    0  501 -0.00000000000E+00 -0.00000000000E+00 -0.10845482998E+04  0.10845482998E+04  0.00000000000E+00 0.  1.
         23    2    1    2    0    0  0.48450270533E+03  0.58436985253E+03  0.26434896707E+03  0.80901626432E+03  0.91629381321E+02 0.  0.
        254    2    1    2    0    0 -0.48450270533E+03 -0.58436985253E+03 -0.38750800280E+03  0.12369212995E+04  0.89642671368E+03 0.  0.
        -24    2    4    4    0    0 -0.11459439052E+03  0.56550476869E+02 -0.46618262309E+03  0.48849051792E+03  0.70476359550E+02 0.  0.
         24    2    4    4    0    0 -0.36990831481E+03 -0.64092032940E+03  0.78674620286E+02  0.74843078162E+03  0.79673766040E+02 0.  0.
         11    1    3    3    0    0  0.45933911167E+03  0.57380547936E+03  0.26602366583E+03  0.78167367771E+03  0.00000000000E+00 0.  1.
        -11    1    3    3    0    0  0.25163593661E+02  0.10564373177E+02 -0.16746987534E+01  0.27342586609E+02  0.00000000000E+00 0. -1.
          4    1    6    6  502    0 -0.26915598293E+02 -0.10185040981E+03  0.10855399215E+02  0.10590465100E+03  0.00000000000E+00 0. -1.
          3    1    5    5  503    0 -0.84640394593E+02  0.33313726029E+02 -0.20115062041E+03  0.22076089515E+03  0.00000000000E+00 0. -1.
         -2    1    5    5    0  503 -0.29953995927E+02  0.23236750841E+02 -0.26503200268E+03  0.26772962276E+03  0.00000000000E+00 0.  1.
         -3    1    6    6    0  502 -0.34299271652E+03 -0.53906991959E+03  0.67819221071E+02  0.64252613063E+03  0.00000000000E+00 0.  1.
<mgrwt>
<rscale>  0 0.20422273E+04</rscale>
<asrwt>0</asrwt>
<pdfrwt beam="1">  1        2 0.14790604E+00 0.20422273E+04</pdfrwt>
<pdfrwt beam="2">  1       -2 0.16685358E+00 0.20422273E+04</pdfrwt>
<totfact> 0.55453002E+00</totfact>
</mgrwt>
</event>
<event>
12    1  0.1960998E-007  0.1818422E+04  0.7818608E-02  0.8696564E-01
          2   -1    0    0  501    0  0.00000000000E+00  0.00000000000E+00  0.40965821952E+03  0.40965821952E+03  0.00000000000E+00 0.  1.
         -2   -1    0    0    0  501 -0.00000000000E+00 -0.00000000000E+00 -0.20179363934E+04  0.20179363934E+04  0.00000000000E+00 0. -1.
         23    2    1    2    0    0  0.64886349292E+03 -0.19554273767E+03 -0.72430618567E+03  0.99619205936E+03  0.92295036846E+02 0.  0.
        254    2    1    2    0    0 -0.64886349292E+03  0.19554273767E+03 -0.88397198825E+03  0.14314025536E+04  0.89902502733E+03 0.  0.
        -24    2    4    4    0    0 -0.22480561859E+03 -0.21705840012E+03  0.45959561893E+02  0.32596894547E+03  0.80570198402E+02 0.  0.
         24    2    4    4    0    0 -0.42405787434E+03  0.41260113778E+03 -0.92993155014E+03  0.11054336081E+04  0.84533983513E+02 0.  0.
         13    1    3    3    0    0  0.44412530798E+03 -0.89436250732E+02 -0.46586711696E+03  0.64982944131E+03  0.00000000000E+00 0. -1.
        -13    1    3    3    0    0  0.20473818495E+03 -0.10610648694E+03 -0.25843906871E+03  0.34636261805E+03  0.00000000000E+00 0.  1.
          2    1    6    6  502    0 -0.12930001136E+03  0.96698451859E+02 -0.31389109421E+03  0.35298258109E+03  0.00000000000E+00 0. -1.
          3    1    5    5  503    0 -0.38728092090E+02 -0.52501642225E+02  0.41894099133E+02  0.77533238648E+02  0.00000000000E+00 0. -1.
         -4    1    5    5    0  503 -0.18607752650E+03 -0.16455675789E+03  0.40654627606E+01  0.24843570682E+03  0.00000000000E+00 0.  1.
         -1    1    6    6    0  502 -0.29475786298E+03  0.31590268592E+03 -0.61604045593E+03  0.75245102705E+03  0.00000000000E+00 0.  1.
<mgrwt>
<rscale>  0 0.18184215E+04</rscale>
<asrwt>0</asrwt>
<pdfrwt beam="1">  1        2 0.63024343E-01 0.18184215E+04</pdfrwt>
<pdfrwt beam="2">  1       -2 0.31045175E+00 0.18184215E+04</pdfrwt>
<totfact> 0.20047477E+00</totfact>
</mgrwt>
</event>
<event>
12    1  0.1960998E-007  0.2392148E+04  0.7818608E-02  0.8442449E-01
          1   -1    0    0  501    0  0.00000000000E+00  0.00000000000E+00  0.31475704527E+04  0.31475704527E+04  0.00000000000E+00 0. -1.
         -1   -1    0    0    0  501 -0.00000000000E+00 -0.00000000000E+00 -0.45450699940E+03  0.45450699940E+03  0.00000000000E+00 0.  1.
         23    2    1    2    0    0  0.67171871628E+03 -0.64134985349E+03  0.18038646502E+04  0.20309747439E+04  0.91624590225E+02 0.  0.
        254    2    1    2    0    0 -0.67171871628E+03  0.64134985349E+03  0.88919880310E+03  0.15711027082E+04  0.90285853822E+03 0.  0.
        -24    2    4    4    0    0 -0.69934990879E+03  0.53168114590E+03  0.24968510705E+03  0.91678015517E+03  0.79800152843E+02 0.  0.
         24    2    4    4    0    0  0.27631192507E+02  0.10966870759E+03  0.63951369605E+03  0.65432255308E+03  0.79809321557E+02 0.  0.
         11    1    3    3    0    0  0.56545915978E+03 -0.49984316871E+03  0.15055382690E+04  0.16841118532E+04  0.00000000000E+00 0. -1.
        -11    1    3    3    0    0  0.10625955650E+03 -0.14150668478E+03  0.29832638123E+03  0.34686289067E+03  0.00000000000E+00 0.  1.
          2    1    6    6  502    0  0.50943692890E+02  0.85560734124E+02  0.54531264592E+03  0.55433002883E+03  0.00000000000E+00 0. -1.
          3    1    5    5  503    0 -0.67719760198E+03  0.51422519807E+03  0.25573979796E+03  0.88793411396E+03  0.00000000000E+00 0. -1.
         -4    1    5    5    0  503 -0.22152306803E+02  0.17455947832E+02 -0.60546909138E+01  0.28846041210E+02  0.00000000000E+00 0.  1.
         -1    1    6    6    0  502 -0.23312500383E+02  0.24107973464E+02  0.94201050132E+02  0.99992524244E+02  0.00000000000E+00 0.  1.
<mgrwt>
<rscale>  0 0.23921478E+04</rscale>
<asrwt>0</asrwt>
<pdfrwt beam="1">  1        1 0.48424160E+00 0.23921478E+04</pdfrwt>
<pdfrwt beam="2">  1       -1 0.69924155E-01 0.23921478E+04</pdfrwt>
<totfact> 0.86317014E-01</totfact>
</mgrwt>
</event>
<event>
12    1  0.1960998E-007  0.1289738E+04  0.7818608E-02  0.9037743E-01
         -1   -1    0    0    0  501 -0.00000000000E+00  0.00000000000E+00  0.86107077637E+03  0.86107077637E+03  0.00000000000E+00 0.  1.
          1   -1    0    0  501    0  0.00000000000E+00 -0.00000000000E+00 -0.48295242869E+03  0.48295242869E+03  0.00000000000E+00 0. -1.
         23    2    1    2    0    0 -0.27843011944E+03 -0.92112320166E+02 -0.37069743815E+02  0.30952972641E+03  0.91795831539E+02 0.  0.
        254    2    1    2    0    0  0.27843011944E+03  0.92112320166E+02  0.41518809149E+03  0.10344934786E+04  0.90099256107E+03 0.  0.
        -24    2    4    4    0    0  0.39012701839E+03  0.41031763148E+03  0.13178962124E+03  0.58688478467E+03  0.80657281319E+02 0.  0.
         24    2    4    4    0    0 -0.11169689896E+03 -0.31820531131E+03  0.28339847025E+03  0.44760869398E+03  0.79423123852E+02 0.  0.
         13    1    3    3    0    0 -0.86314129562E+02  0.56252633466E+01 -0.36751050599E+02  0.93980914392E+02  0.00000000000E+00 0. -1.
        -13    1    3    3    0    0 -0.19211598987E+03 -0.97737583513E+02 -0.31869321647E+00  0.21554881202E+03  0.00000000000E+00 0.  1.
          2    1    6    6  502    0 -0.11623493377E+03 -0.30358019184E+03  0.28486413546E+03  0.43222571462E+03  0.00000000000E+00 0. -1.
          1    1    5    5  503    0  0.21526639509E+03  0.25720447732E+03  0.11206571708E+03  0.35362761340E+03  0.00000000000E+00 0. -1.
         -2    1    5    5    0  503  0.17486062330E+03  0.15311315415E+03  0.19723904159E+02  0.23325717127E+03  0.00000000000E+00 0.  1.
         -1    1    6    6    0  502  0.45380348152E+01 -0.14625119469E+02 -0.14656652087E+01  0.15382979359E+02  0.00000000000E+00 0.  1.
<mgrwt>
<rscale>  0 0.12897383E+04</rscale>
<asrwt>0</asrwt>
<pdfrwt beam="1">  1        1 0.74300374E-01 0.12897383E+04</pdfrwt>
<pdfrwt beam="2">  1       -1 0.13247243E+00 0.12897383E+04</pdfrwt>
<totfact> 0.22107594E+01</totfact>
</mgrwt>
</event>
<event>
12    1  0.1960998E-007  0.1152399E+04  0.7818608E-02  0.9155574E-01
         -2   -1    0    0    0  501 -0.00000000000E+00  0.00000000000E+00  0.10723555062E+03  0.10723555062E+03  0.00000000000E+00 0.  1.
          2   -1    0    0  501    0  0.00000000000E+00 -0.00000000000E+00 -0.30960402814E+04  0.30960402814E+04  0.00000000000E+00 0. -1.
         23    2    1    2    0    0 -0.67203434341E+02  0.19863178501E+03 -0.55462923114E+03  0.59958970674E+03  0.89013172039E+02 0.  0.
        254    2    1    2    0    0  0.67203434341E+02 -0.19863178501E+03 -0.24341754996E+04  0.26036861252E+04  0.90000010458E+03 0.  0.
        -24    2    4    4    0    0  0.43817174048E+03 -0.11117689611E+03 -0.78602225650E+03  0.91020116449E+03  0.79248947905E+02 0.  0.
         24    2    4    4    0    0 -0.37096830614E+03 -0.87454888900E+02 -0.16481532431E+04  0.16934849608E+04  0.78843882037E+02 0.  0.
         11    1    3    3    0    0 -0.59811741456E+02  0.58248680255E+02 -0.15660510750E+03  0.17746975197E+03  0.00000000000E+00 0. -1.
        -11    1    3    3    0    0 -0.73916928843E+01  0.14038310476E+03 -0.39802412363E+03  0.42211995477E+03  0.00000000000E+00 0.  1.
          2    1    6    6  502    0 -0.15569615503E+03 -0.56392982196E+02 -0.56777104313E+03  0.59142659608E+03  0.00000000000E+00 0. -1.
          3    1    5    5  503    0  0.20891392545E+03 -0.16169277166E+02 -0.32661920163E+03  0.38805486293E+03  0.00000000000E+00 0. -1.
         -4    1    5    5    0  503  0.22925781504E+03 -0.95007618944E+02 -0.45940305487E+03  0.52214630157E+03  0.00000000000E+00 0.  1.
         -1    1    6    6    0  502 -0.21527215111E+03 -0.31061906704E+02 -0.10803822000E+04  0.11020583647E+04  0.00000000000E+00 0.  1.
<mgrwt>
<rscale>  0 0.11523985E+04</rscale>
<asrwt>0</asrwt>
<pdfrwt beam="1">  1        2 0.47631384E+00 0.11523985E+04</pdfrwt>
<pdfrwt beam="2">  1       -2 0.16497779E-01 0.11523985E+04</pdfrwt>
<totfact> 0.45563726E+01</totfact>
</mgrwt>
</event>
<event>
12    1  0.1960998E-007  0.1386753E+04  0.7818608E-02  0.8963464E-01
          2   -1    0    0  501    0  0.00000000000E+00  0.00000000000E+00  0.39087170970E+03  0.39087170970E+03  0.00000000000E+00 0.  1.
         -2   -1    0    0    0  501 -0.00000000000E+00 -0.00000000000E+00 -0.12299964505E+04  0.12299964505E+04  0.00000000000E+00 0. -1.
         23    2    1    2    0    0 -0.28870612629E+03  0.17938281045E+03 -0.18536865316E+01  0.34659983768E+03  0.67812913886E+02 0.  0.
        254    2    1    2    0    0  0.28870612629E+03 -0.17938281045E+03 -0.83727105428E+03  0.12742683225E+04  0.89844728250E+03 0.  0.
        -24    2    4    4    0    0  0.26160527126E+03  0.70005235929E+02  0.10024765280E+03  0.30041200263E+03  0.82823477515E+02 0.  0.
         24    2    4    4    0    0  0.27100855030E+02 -0.24938804638E+03 -0.93751870708E+03  0.97385631990E+03  0.80783362590E+02 0.  0.
         11    1    3    3    0    0 -0.12435772700E+03  0.74789995632E+02 -0.34287038471E+02  0.14911065931E+03  0.00000000000E+00 0. -1.
        -11    1    3    3    0    0 -0.16434839928E+03  0.10459281482E+03  0.32433351939E+02  0.19748917838E+03  0.00000000000E+00 0.  1.
          4    1    6    6  502    0  0.34148630404E+02 -0.21426623623E+03 -0.87780326883E+03  0.90422050835E+03  0.00000000000E+00 0. -1.
          1    1    5    5  503    0  0.21995317986E+03  0.67645184004E+02  0.11356782117E+03  0.25661824225E+03  0.00000000000E+00 0. -1.
         -2    1    5    5    0  503  0.41652091393E+02  0.23600519257E+01 -0.13320168378E+02  0.43793760379E+02  0.00000000000E+00 0.  1.
         -3    1    6    6    0  502 -0.70477753741E+01 -0.35121810143E+02 -0.59715438242E+02  0.69635811547E+02  0.00000000000E+00 0.  1.
<mgrwt>
<rscale>  0 0.13867528E+04</rscale>
<asrwt>0</asrwt>
<pdfrwt beam="1">  1        2 0.60134110E-01 0.13867528E+04</pdfrwt>
<pdfrwt beam="2">  1       -2 0.18923022E+00 0.13867528E+04</pdfrwt>
<totfact> 0.12458830E+01</totfact>
</mgrwt>
</event>
<event>
12    1  0.1960998E-007  0.2440716E+04  0.7818608E-02  0.8424415E-01
          1   -1    0    0  501    0  0.00000000000E+00  0.00000000000E+00  0.21566084202E+04  0.21566084202E+04  0.00000000000E+00 0. -1.
         -1   -1    0    0    0  501 -0.00000000000E+00 -0.00000000000E+00 -0.69056288566E+03  0.69056288566E+03  0.00000000000E+00 0.  1.
         23    2    1    2    0    0 -0.66289480902E+03  0.70699117260E+03  0.11087456019E+04  0.14756979028E+04  0.95401492221E+02 0.  0.
        254    2    1    2    0    0  0.66289480902E+03 -0.70699117260E+03  0.35729993259E+03  0.13714734030E+04  0.90222503143E+03 0.  0.
        -24    2    4    4    0    0  0.86148889636E+03 -0.57926615149E+03  0.16066488883E+03  0.10535598765E+04  0.80391629658E+02 0.  0.
         24    2    4    4    0    0 -0.19859408734E+03 -0.12772502111E+03  0.19663504377E+03  0.31791352647E+03  0.81549845672E+02 0.  0.
         11    1    3    3    0    0 -0.55654716777E+03  0.60425639302E+03  0.88509130698E+03  0.12075831897E+04  0.00000000000E+00 0.  1.
        -11    1    3    3    0    0 -0.10634764124E+03  0.10273477957E+03  0.22365429494E+03  0.26811471309E+03  0.00000000000E+00 0. -1.
          4    1    6    6  502    0 -0.13532310602E+03 -0.11087479719E+03  0.17858162129E+03  0.24999391820E+03  0.00000000000E+00 0. -1.
          3    1    5    5  503    0  0.62702502258E+03 -0.43187067413E+03  0.82645911766E+02  0.76583484176E+03  0.00000000000E+00 0. -1.
         -4    1    5    5    0  503  0.23446387378E+03 -0.14739547735E+03  0.78018977063E+02  0.28772503477E+03  0.00000000000E+00 0.  1.
         -3    1    6    6    0  502 -0.63270981328E+02 -0.16850223917E+02  0.18053422477E+02  0.67919608269E+02  0.00000000000E+00 0.  1.
<mgrwt>
<rscale>  0 0.24407161E+04</rscale>
<asrwt>0</asrwt>
<pdfrwt beam="1">  1        1 0.33178591E+00 0.24407161E+04</pdfrwt>
<pdfrwt beam="2">  1       -1 0.10624045E+00 0.24407161E+04</pdfrwt>
<totfact> 0.17245269E+00</totfact>
</mgrwt>
</event>
<event>
12    1  0.1960998E-007  0.1609937E+04  0.7818608E-02  0.8814467E-01
          2   -1    0    0  501    0  0.00000000000E+00  0.00000000000E+00  0.11238464729E+04  0.11238464729E+04  0.00000000000E+00 0. -1.
         -2   -1    0    0    0  501 -0.00000000000E+00 -0.00000000000E+00 -0.57656811822E+03  0.57656811822E+03  0.00000000000E+00 0.  1.
         23    2    1    2    0    0  0.32366951410E+03 -0.29985573742E+03  0.53562351191E+03  0.69987567458E+03  0.90873515069E+02 0.  0.
        254    2    1    2    0    0 -0.32366951410E+03  0.29985573742E+03  0.11654842769E+02  0.10005389165E+04  0.89792364405E+03 0.  0.
        -24    2    4    4    0    0 -0.60661240714E+03  0.81841275621E+02  0.96103687327E+02  0.62483261050E+03  0.80642826931E+02 0.  0.
         24    2    4    4    0    0  0.28294289305E+03  0.21801446180E+03 -0.84448844558E+02  0.37570630604E+03  0.80228640602E+02 0.  0.
         13    1    3    3    0    0  0.23272054111E+03 -0.21464888701E+03  0.44344364507E+03  0.54486260773E+03  0.00000000000E+00 0. -1.
        -13    1    3    3    0    0  0.90948972988E+02 -0.85206850407E+02  0.92179866838E+02  0.15501306685E+03  0.00000000000E+00 0.  1.
          2    1    6    6  502    0 -0.35704046408E+01  0.10757526893E+02  0.23866411824E+01  0.11583101065E+02  0.00000000000E+00 0. -1.
          3    1    5    5  503    0 -0.18174013951E+03  0.60369091494E+02  0.18475900751E+02  0.19239351451E+03  0.00000000000E+00 0. -1.
         -4    1    5    5    0  503 -0.42487226764E+03  0.21472184127E+02  0.77627786576E+02  0.43243909600E+03  0.00000000000E+00 0.  1.
         -1    1    6    6    0  502  0.28651329769E+03  0.20725693490E+03 -0.86835485741E+02  0.36412320498E+03  0.00000000000E+00 0.  1.
<mgrwt>
<rscale>  0 0.16099367E+04</rscale>
<asrwt>0</asrwt>
<pdfrwt beam="1">  1        2 0.17289946E+00 0.16099367E+04</pdfrwt>
<pdfrwt beam="2">  1       -2 0.88702788E-01 0.16099367E+04</pdfrwt>
<totfact> 0.22058680E+01</totfact>
</mgrwt>
</event>
<event>
12    1  0.1960998E-007  0.2200351E+04  0.7818608E-02  0.8518282E-01
         -2   -1    0    0    0  501 -0.00000000000E+00  0.00000000000E+00  0.45339216726E+03  0.45339216726E+03  0.00000000000E+00 0.  1.
          2   -1    0    0  501    0  0.00000000000E+00 -0.00000000000E+00 -0.26696238506E+04  0.26696238506E+04  0.00000000000E+00 0. -1.
         23    2    1    2    0    0  0.75321869880E+03 -0.45637199943E+03 -0.12863189520E+04  0.15615161448E+04  0.90013411848E+02 0.  0.
        254    2    1    2    0    0 -0.75321869880E+03  0.45637199943E+03 -0.92991273134E+03  0.15614998730E+04  0.89326947523E+03 0.  0.
        -24    2    4    4    0    0 -0.84250964753E+03  0.12054952916E+03 -0.45442876148E+03  0.96804968976E+03  0.79120208665E+02 0.  0.
         24    2    4    4    0    0  0.89290948732E+02  0.33582247027E+03 -0.47548396986E+03  0.59345018324E+03  0.73133503460E+02 0.  0.
         13    1    3    3    0    0  0.22124728764E+03 -0.18326496012E+03 -0.41494188215E+03  0.50469116641E+03  0.00000000000E+00 0.  1.
        -13    1    3    3    0    0  0.53197141116E+03 -0.27310703931E+03 -0.87137706982E+03  0.10568249784E+04  0.00000000000E+00 0. -1.
          2    1    6    6  502    0  0.44054987249E+02  0.27634611337E+03 -0.38824337298E+03  0.47858221126E+03  0.00000000000E+00 0. -1.
          1    1    5    5  503    0 -0.39210557182E+03  0.19590257268E+02 -0.22673245141E+03  0.45336316806E+03  0.00000000000E+00 0. -1.
         -2    1    5    5    0  503 -0.45040407572E+03  0.10095927189E+03 -0.22769631007E+03  0.51468652170E+03  0.00000000000E+00 0.  1.
         -1    1    6    6    0  502  0.45235961483E+02  0.59476356899E+02 -0.87240596880E+02  0.11486797197E+03  0.00000000000E+00 0.  1.
<mgrwt>
<rscale>  0 0.22003514E+04</rscale>
<asrwt>0</asrwt>
<pdfrwt beam="1">  1        2 0.41071136E+00 0.22003514E+04</pdfrwt>
<pdfrwt beam="2">  1       -2 0.69752642E-01 0.22003514E+04</pdfrwt>
<totfact> 0.47418869E+00</totfact>
</mgrwt>
</event>
<event>
12    1  0.1960998E-007  0.1777654E+04  0.7818608E-02  0.8718274E-01
         -2   -1    0    0    0  501 -0.00000000000E+00  0.00000000000E+00  0.25484622992E+03  0.25484622992E+03  0.00000000000E+00 0.  1.
          2   -1    0    0  501    0  0.00000000000E+00 -0.00000000000E+00 -0.30999618681E+04  0.30999618681E+04  0.00000000000E+00 0. -1.
         23    2    1    2    0    0 -0.15168008699E+03 -0.46075233012E+03 -0.18973710055E+04  0.19605288714E+04  0.91417528599E+02 0.  0.
        254    2    1    2    0    0  0.15168008699E+03  0.46075233012E+03 -0.94774463264E+03  0.13942792266E+04  0.90027502159E+03 0.  0.
        -24    2    4    4    0    0  0.52301169198E+03  0.23167511667E+03 -0.50232245372E+03  0.76571773908E+03  0.82348155976E+02 0.  0.
         24    2    4    4    0    0 -0.37133160499E+03  0.22907721344E+03 -0.44542217892E+03  0.62856148750E+03  0.79530469133E+02 0.  0.
         11    1    3    3    0    0 -0.57951761625E+02 -0.24796009853E+03 -0.11484849303E+04  0.11763758975E+04  0.00000000000E+00 0. -1.
        -11    1    3    3    0    0 -0.93728325367E+02 -0.21279223158E+03 -0.74888607524E+03  0.78415297390E+03  0.00000000000E+00 0.  1.
          4    1    6    6  502    0 -0.11588413948E+03  0.32934157066E+02 -0.14008881299E+03  0.18476652297E+03  0.00000000000E+00 0. -1.
          3    1    5    5  503    0  0.43601507428E+03  0.20057571527E+03 -0.45739163568E+03  0.66298331122E+03  0.00000000000E+00 0. -1.
         -4    1    5    5    0  503  0.86996617698E+02  0.31099401407E+02 -0.44930818035E+02  0.10273442786E+03  0.00000000000E+00 0.  1.
         -3    1    6    6    0  502 -0.25544746551E+03  0.19614305638E+03 -0.30533336592E+03  0.44379496454E+03  0.00000000000E+00 0.  1.
<mgrwt>
<rscale>  0 0.17776542E+04</rscale>
<asrwt>0</asrwt>
<pdfrwt beam="1">  1        2 0.47691721E+00 0.17776542E+04</pdfrwt>
<pdfrwt beam="2">  1       -2 0.39207112E-01 0.17776542E+04</pdfrwt>
<totfact> 0.87964948E+00</totfact>
</mgrwt>
</event>
<event>
12    1  0.1960998E-007  0.1590396E+04  0.7818608E-02  0.8826470E-01
         -1   -1    0    0    0  501 -0.00000000000E+00  0.00000000000E+00  0.55792351141E+03  0.55792351141E+03  0.00000000000E+00 0.  1.
          1   -1    0    0  501    0  0.00000000000E+00 -0.00000000000E+00 -0.11333810785E+04  0.11333810785E+04  0.00000000000E+00 0. -1.
         23    2    1    2    0    0 -0.59196933363E+02  0.35390696809E+03 -0.62287602696E+03  0.72458467801E+03  0.91071354780E+02 0.  0.
        254    2    1    2    0    0  0.59196933363E+02 -0.35390696809E+03  0.47418459891E+02  0.96671991187E+03  0.89640641379E+03 0.  0.
        -24    2    4    4    0    0 -0.38204608527E+03  0.45656243415E+01 -0.94047663473E+01  0.39015418239E+03  0.78433285095E+02 0.  0.
         24    2    4    4    0    0  0.44124301863E+03 -0.35847259243E+03  0.56823226238E+02  0.57656572948E+03  0.77467156658E+02 0.  0.
         11    1    3    3    0    0  0.15452932400E+02  0.14235311912E+03 -0.28606318994E+03  0.31989897199E+03  0.00000000000E+00 0. -1.
        -11    1    3    3    0    0 -0.74649865763E+02  0.21155384897E+03 -0.33681283701E+03  0.40468570601E+03  0.00000000000E+00 0.  1.
          4    1    6    6  502    0  0.11155262999E+03 -0.77815852207E+02 -0.17930142844E+02  0.13718887030E+03  0.00000000000E+00 0. -1.
          3    1    5    5  503    0 -0.49118635298E+01 -0.11255170156E+02  0.23598886764E+01  0.12504972337E+02  0.00000000000E+00 0. -1.
         -4    1    5    5    0  503 -0.37713422174E+03  0.15820794498E+02 -0.11764655024E+02  0.37764921005E+03  0.00000000000E+00 0.  1.
         -1    1    6    6    0  502  0.32969038864E+03 -0.28065674022E+03  0.74753369082E+02  0.43937685918E+03  0.00000000000E+00 0.  1.
<mgrwt>
<rscale>  0 0.15903961E+04</rscale>
<asrwt>0</asrwt>
<pdfrwt beam="1">  1        1 0.17436632E+00 0.15903961E+04</pdfrwt>
<pdfrwt beam="2">  1       -1 0.85834387E-01 0.15903961E+04</pdfrwt>
<totfact> 0.15406539E+01</totfact>
</mgrwt>
</event>
<event>
12    1  0.1960998E-007  0.1110656E+04  0.7818608E-02  0.9194868E-01
          1   -1    0    0  501    0  0.00000000000E+00  0.00000000000E+00  0.24529281126E+03  0.24529281126E+03  0.00000000000E+00 0. -1.
         -1   -1    0    0    0  501 -0.00000000000E+00 -0.00000000000E+00 -0.12572281910E+04  0.12572281910E+04  0.00000000000E+00 0.  1.
         23    2    1    2    0    0 -0.13337060882E+03 -0.99919649240E+02 -0.13453498239E+03  0.23170377206E+03  0.88404303631E+02 0.  0.
        254    2    1    2    0    0  0.13337060882E+03  0.99919649240E+02 -0.87740039739E+03  0.12708172302E+04  0.90408700893E+03 0.  0.
        -24    2    4    4    0    0 -0.14877675951E+03 -0.21399866758E+03 -0.78665936338E+03  0.83197532205E+03  0.73620843531E+02 0.  0.
         24    2    4    4    0    0  0.28214736833E+03  0.31391831682E+03 -0.90741034009E+02  0.43884190818E+03  0.78717457004E+02 0.  0.
         11    1    3    3    0    0  0.94242294600E+01 -0.26225498427E+02 -0.17415686903E+02  0.32861817037E+02  0.00000000000E+00 0.  1.
        -11    1    3    3    0    0 -0.14279483828E+03 -0.73694150813E+02 -0.11711929548E+03  0.19884195502E+03  0.00000000000E+00 0. -1.
          2    1    6    6  502    0  0.27266313501E+03  0.31585187802E+03 -0.95507107987E+02  0.42805280248E+03  0.00000000000E+00 0. -1.
          1    1    5    5  503    0 -0.14927517762E+03 -0.18927408733E+03 -0.74973866080E+03  0.78753782022E+03  0.00000000000E+00 0. -1.
         -2    1    5    5    0  503  0.49841810807E+00 -0.24724580244E+02 -0.36920702584E+02  0.44437501822E+02  0.00000000000E+00 0.  1.
         -1    1    6    6    0  502  0.94842333251E+01 -0.19335611999E+01  0.47660739777E+01  0.10789105702E+02  0.00000000000E+00 0.  1.
<mgrwt>
<rscale>  0 0.11106557E+04</rscale>
<asrwt>0</asrwt>
<pdfrwt beam="1">  1        1 0.37737355E-01 0.11106557E+04</pdfrwt>
<pdfrwt beam="2">  1       -1 0.19341972E+00 0.11106557E+04</pdfrwt>
<totfact> 0.18992558E+01</totfact>
</mgrwt>
</event>
<event>
12    1  0.1960998E-007  0.1515115E+04  0.7818608E-02  0.8874463E-01
          2   -1    0    0  501    0  0.00000000000E+00  0.00000000000E+00  0.78170643093E+03  0.78170643093E+03  0.00000000000E+00 0. -1.
         -2   -1    0    0    0  501 -0.00000000000E+00 -0.00000000000E+00 -0.73415456605E+03  0.73415456605E+03  0.00000000000E+00 0.  1.
         23    2    1    2    0    0  0.33555311234E+03  0.25963944700E+03 -0.21211219317E+03  0.48400624854E+03  0.96238934387E+02 0.  0.
        254    2    1    2    0    0 -0.33555311234E+03 -0.25963944700E+03  0.25966405804E+03  0.10318547484E+04  0.90404107494E+03 0.  0.
        -24    2    4    4    0    0 -0.47963055445E+03 -0.28839734099E+03 -0.15367762754E+03  0.58590670501E+03  0.80320350593E+02 0.  0.
         24    2    4    4    0    0  0.14407744211E+03  0.28757893987E+02  0.41334168558E+03  0.44594804342E+03  0.80205876361E+02 0.  0.
         11    1    3    3    0    0  0.19996150090E+03  0.16976670959E+03 -0.18017992325E+03  0.31822970048E+03  0.00000000000E+00 0.  1.
        -11    1    3    3    0    0  0.13559161144E+03  0.89872737419E+02 -0.31932269921E+02  0.16577654806E+03  0.00000000000E+00 0. -1.
          2    1    6    6  502    0 -0.36468471686E+01 -0.62055756067E+01  0.72161202604E+02  0.72519292772E+02  0.00000000000E+00 0. -1.
          1    1    5    5  503    0 -0.20912895079E+03 -0.11310971557E+03 -0.25864868427E+02  0.23916044245E+03  0.00000000000E+00 0. -1.
         -2    1    5    5    0  503 -0.27050160366E+03 -0.17528762542E+03 -0.12781275911E+03  0.34674626256E+03  0.00000000000E+00 0.  1.
         -1    1    6    6    0  502  0.14772428928E+03  0.34963469593E+02  0.34118048298E+03  0.37342875065E+03  0.00000000000E+00 0.  1.
<mgrwt>
<rscale>  0 0.15151150E+04</rscale>
<asrwt>0</asrwt>
<pdfrwt beam="1">  1        2 0.12026253E+00 0.15151150E+04</pdfrwt>
<pdfrwt beam="2">  1       -2 0.11294686E+00 0.15151150E+04</pdfrwt>
<totfact> 0.21122429E+01</totfact>
</mgrwt>
</event>
<event>
12    1  0.1960998E-007  0.2163249E+04  0.7818608E-02  0.8533882E-01
          1   -1    0    0  501    0  0.00000000000E+00  0.00000000000E+00  0.11582519926E+04  0.11582519926E+04  0.00000000000E+00 0. -1.
         -1   -1    0    0    0  501 -0.00000000000E+00 -0.00000000000E+00 -0.10100666502E+04  0.10100666502E+04  0.00000000000E+00 0.  1.
         23    2    1    2    0    0 -0.64168110300E+03 -0.62032729236E+03  0.85584320048E+02  0.90095091205E+03  0.88471930521E+02 0.  0.
        254    2    1    2    0    0  0.64168110300E+03  0.62032729236E+03  0.62601022302E+02  0.12673677308E+04  0.89763104302E+03 0.  0.
        -24    2    4    4    0    0  0.50108016732E+03  0.68017533096E+03 -0.27183437770E+03  0.89110372882E+03  0.80325037711E+02 0.  0.
         24    2    4    4    0    0  0.14060093568E+03 -0.59848038608E+02  0.33443540000E+03  0.37626400194E+03  0.79857069460E+02 0.  0.
         13    1    3    3    0    0 -0.33586969161E+03 -0.38506692308E+03  0.42889179148E+02  0.51276160805E+03  0.00000000000E+00 0. -1.
        -13    1    3    3    0    0 -0.30581141138E+03 -0.23526036927E+03  0.42695140901E+02  0.38818930400E+03  0.00000000000E+00 0.  1.
          4    1    6    6  502    0  0.88331100916E+02  0.27659696353E+01  0.14196727955E+03  0.16722662001E+03  0.00000000000E+00 0. -1.
          1    1    5    5  503    0  0.27801149356E+03  0.43518677783E+03 -0.18545540543E+03  0.54869994492E+03  0.00000000000E+00 0. -1.
         -2    1    5    5    0  503  0.22306867376E+03  0.24498855313E+03 -0.86378972265E+02  0.34240378390E+03  0.00000000000E+00 0.  1.
         -3    1    6    6    0  502  0.52269834767E+02 -0.62614008244E+02  0.19246812045E+03  0.20903738193E+03  0.00000000000E+00 0.  1.
<mgrwt>
<rscale>  0 0.21632491E+04</rscale>
<asrwt>0</asrwt>
<pdfrwt beam="1">  1        1 0.17819261E+00 0.21632491E+04</pdfrwt>
<pdfrwt beam="2">  1       -1 0.15539487E+00 0.21632491E+04</pdfrwt>
<totfact> 0.33247317E+00</totfact>
</mgrwt>
</event>
<event>
12    1  0.1960998E-007  0.1324430E+04  0.7818608E-02  0.9010413E-01
          1   -1    0    0  501    0  0.00000000000E+00  0.00000000000E+00  0.17791717441E+04  0.17791717441E+04  0.00000000000E+00 0. -1.
         -1   -1    0    0    0  501 -0.00000000000E+00 -0.00000000000E+00 -0.24647902480E+03  0.24647902480E+03  0.00000000000E+00 0.  1.
         23    2    1    2    0    0 -0.10845209567E+02 -0.21301726831E+02  0.90684595308E+03  0.91178553700E+03  0.91716414778E+02 0.  0.
        254    2    1    2    0    0  0.10845209567E+02  0.21301726831E+02  0.62584676622E+03  0.11138652319E+04  0.92110813584E+03 0.  0.
        -24    2    4    4    0    0 -0.77585162225E+02 -0.42848211509E+03  0.21218425745E+03  0.49112120229E+03  0.81003060919E+02 0.  0.
         24    2    4    4    0    0  0.88430371792E+02  0.44978384192E+03  0.41366250878E+03  0.62274402961E+03  0.81043322617E+02 0.  0.
         11    1    3    3    0    0 -0.34948794770E+02 -0.38787799414E+02  0.76847861758E+03  0.77025015243E+03  0.00000000000E+00 0. -1.
        -11    1    3    3    0    0  0.24103585203E+02  0.17486072583E+02  0.13836733549E+03  0.14153538457E+03  0.00000000000E+00 0.  1.
          2    1    6    6  502    0  0.48153780456E+02  0.12594348159E+03  0.16116805600E+03  0.21013255198E+03  0.00000000000E+00 0. -1.
          1    1    5    5  503    0 -0.29349690693E+02 -0.31963576657E+03  0.12924409478E+03  0.34602379058E+03  0.00000000000E+00 0. -1.
         -2    1    5    5    0  503 -0.48235471532E+02 -0.10884634852E+03  0.82940162665E+02  0.14509741171E+03  0.00000000000E+00 0.  1.
         -1    1    6    6    0  502  0.40276591336E+02  0.32384036033E+03  0.25249445278E+03  0.41261147763E+03  0.00000000000E+00 0.  1.
<mgrwt>
<rscale>  0 0.13244297E+04</rscale>
<asrwt>0</asrwt>
<pdfrwt beam="1">  1        1 0.27371872E+00 0.13244297E+04</pdfrwt>
<pdfrwt beam="2">  1       -1 0.37919851E-01 0.13244297E+04</pdfrwt>
<totfact> 0.27727739E+01</totfact>
</mgrwt>
</event>
<event>
12    1  0.1960998E-007  0.1648612E+04  0.7818608E-02  0.8791228E-01
          1   -1    0    0  501    0  0.00000000000E+00  0.00000000000E+00  0.92344741827E+03  0.92344741827E+03  0.00000000000E+00 0. -1.
         -1   -1    0    0    0  501 -0.00000000000E+00 -0.00000000000E+00 -0.73580853257E+03  0.73580853257E+03  0.00000000000E+00 0.  1.
         23    2    1    2    0    0 -0.57541014336E+03  0.18174559036E+02  0.44883207196E+02  0.58431962215E+03  0.89374329985E+02 0.  0.
        254    2    1    2    0    0  0.57541014336E+03 -0.18174559036E+02  0.14275567850E+03  0.10749363287E+04  0.89648300558E+03 0.  0.
        -24    2    4    4    0    0  0.33444428561E+03  0.38993295825E+03  0.25877637144E+03  0.58066963563E+03  0.79443836898E+02 0.  0.
         24    2    4    4    0    0  0.24096585775E+03 -0.40810751729E+03 -0.11602069293E+03  0.49426669305E+03  0.78882649560E+02 0.  0.
         13    1    3    3    0    0 -0.27633201685E+03  0.20019682826E+02  0.64935961254E+02  0.28456431663E+03  0.00000000000E+00 0. -1.
        -13    1    3    3    0    0 -0.29907812652E+03 -0.18451237902E+01 -0.20052754058E+02  0.29975530552E+03  0.00000000000E+00 0.  1.
          2    1    6    6  502    0  0.11032452090E+03 -0.16736001579E+03 -0.88033235046E+02  0.21893086870E+03  0.00000000000E+00 0. -1.
          3    1    5    5  503    0  0.13420525511E+03  0.15255295122E+03  0.14629584597E+03  0.25037157980E+03  0.00000000000E+00 0. -1.
         -4    1    5    5    0  503  0.20023903050E+03  0.23738000703E+03  0.11248052547E+03  0.33029805583E+03  0.00000000000E+00 0.  1.
         -1    1    6    6    0  502  0.13064133686E+03 -0.24074750150E+03 -0.27987457886E+02  0.27533582435E+03  0.00000000000E+00 0.  1.
<mgrwt>
<rscale>  0 0.16486121E+04</rscale>
<asrwt>0</asrwt>
<pdfrwt beam="1">  1        1 0.14206883E+00 0.16486121E+04</pdfrwt>
<pdfrwt beam="2">  1       -1 0.11320131E+00 0.16486121E+04</pdfrwt>
<totfact> 0.11864795E+01</totfact>
</mgrwt>
</event>
<event>
12    1  0.1960998E-007  0.1204332E+04  0.7818608E-02  0.9109073E-01
         -1   -1    0    0    0  501 -0.00000000000E+00  0.00000000000E+00  0.44899280565E+03  0.44899280565E+03  0.00000000000E+00 0.  1.
          1   -1    0    0  501    0  0.00000000000E+00 -0.00000000000E+00 -0.80759380711E+03  0.80759380711E+03  0.00000000000E+00 0. -1.
         23    2    1    2    0    0 -0.14447447485E+03  0.10834951369E+03  0.10392370739E+03  0.22527884737E+03  0.85661724906E+02 0.  0.
        254    2    1    2    0    0  0.14447447485E+03 -0.10834951369E+03 -0.46252470885E+03  0.10313077654E+04  0.90391045445E+03 0.  0.
        -24    2    4    4    0    0  0.17636209788E+03 -0.36012219622E+03  0.88792946379E+02  0.41845807727E+03  0.80195943300E+02 0.  0.
         24    2    4    4    0    0 -0.31887623031E+02  0.25177268254E+03 -0.55131765523E+03  0.61284968812E+03  0.85013405384E+02 0.  0.
         13    1    3    3    0    0 -0.11503935073E+03  0.48707147370E+02  0.35534742421E+02  0.12988131637E+03  0.00000000000E+00 0. -1.
        -13    1    3    3    0    0 -0.29435124118E+02  0.59642366317E+02  0.68388964967E+02  0.95397531001E+02  0.00000000000E+00 0.  1.
          4    1    6    6  502    0 -0.89891348573E+01  0.53477211893E+02 -0.21519911307E+03  0.22192628281E+03  0.00000000000E+00 0. -1.
          3    1    5    5  503    0  0.99986926116E+02 -0.20320617629E+03  0.90625330270E+02  0.24393254388E+03  0.00000000000E+00 0. -1.
         -4    1    5    5    0  503  0.76375171768E+02 -0.15691601993E+03 -0.18323838910E+01  0.17452553339E+03  0.00000000000E+00 0.  1.
         -3    1    6    6    0  502 -0.22898488174E+02  0.19829547064E+03 -0.33611854216E+03  0.39092340532E+03  0.00000000000E+00 0.  1.
<mgrwt>
<rscale>  0 0.12043319E+04</rscale>
<asrwt>0</asrwt>
<pdfrwt beam="1">  1        1 0.12424520E+00 0.12043319E+04</pdfrwt>
<pdfrwt beam="2">  1       -1 0.69075817E-01 0.12043319E+04</pdfrwt>
<totfact> 0.45695156E+01</totfact>
</mgrwt>
</event>
<event>
12    1  0.2247409E-007  0.2605516E+04  0.7818608E-02  0.8366330E-01
         -1   -1    0    0    0  501 -0.00000000000E+00  0.00000000000E+00  0.13782992023E+04  0.13782992023E+04  0.00000000000E+00 0.  1.
          1   -1    0    0  501    0  0.00000000000E+00 -0.00000000000E+00 -0.12313566883E+04  0.12313566883E+04  0.00000000000E+00 0. -1.
         23    2    1    2    0    0 -0.82380894718E+03  0.29212222175E+03  0.80568618430E+03  0.11923334138E+04  0.92369735953E+02 0.  0.
        254    2    1    2    0    0  0.82380894718E+03 -0.29212222175E+03 -0.65874367038E+03  0.14173224768E+04  0.90047943128E+03 0.  0.
        -24    2    4    4    0    0  0.73950641804E+03  0.18244409867E+03 -0.40082121731E+03  0.86479293809E+03  0.83985630054E+02 0.  0.
         24    2    4    4    0    0  0.84302529140E+02 -0.47456632043E+03 -0.25792245307E+03  0.55252953874E+03  0.80279452403E+02 0.  0.
         11    1    3    3    0    0 -0.36292719269E+03  0.11068332838E+03  0.40766332910E+03  0.55691681270E+03  0.00000000000E+00 0.  1.
        -11    1    3    3    0    0 -0.46088175449E+03  0.18143889338E+03  0.39802285520E+03  0.63541660107E+03  0.00000000000E+00 0. -1.
          2    1    6    6  502    0  0.17252587376E+02 -0.10067470255E+03 -0.94000737989E+02  0.13881349447E+03  0.00000000000E+00 0. -1.
          3    1    5    5  503    0  0.49711381500E+02  0.82679581942E+01 -0.49789280600E+01  0.50639612044E+02  0.00000000000E+00 0. -1.
         -4    1    5    5    0  503  0.68979503654E+03  0.17417614048E+03 -0.39584228925E+03  0.81415332604E+03  0.00000000000E+00 0.  1.
         -1    1    6    6    0  502  0.67049941765E+02 -0.37389161788E+03 -0.16392171508E+03  0.41371604427E+03  0.00000000000E+00 0.  1.
<mgrwt>
<rscale>  0 0.26055156E+04</rscale>
<asrwt>0</asrwt>
<pdfrwt beam="1">  1        1 0.18943949E+00 0.26055156E+04</pdfrwt>
<pdfrwt beam="2">  1       -1 0.21204603E+00 0.26055156E+04</pdfrwt>
<totfact> 0.11112003E+00</totfact>
</mgrwt>
</event>
<event>
12    1  0.1960998E-007  0.1551983E+04  0.7818608E-02  0.8850602E-01
         -2   -1    0    0    0  501 -0.00000000000E+00  0.00000000000E+00  0.14188632669E+04  0.14188632669E+04  0.00000000000E+00 0.  1.
          2   -1    0    0  501    0  0.00000000000E+00 -0.00000000000E+00 -0.42439831370E+03  0.42439831370E+03  0.00000000000E+00 0. -1.
         23    2    1    2    0    0 -0.54089127571E+02 -0.48678654360E+03  0.50000359886E+03  0.70604874254E+03  0.92814089587E+02 0.  0.
        254    2    1    2    0    0  0.54089127571E+02  0.48678654360E+03  0.49446135435E+03  0.11372128381E+04  0.89937435773E+03 0.  0.
        -24    2    4    4    0    0 -0.38204951981E+03  0.39868758909E+03  0.36356857557E+03  0.66642025581E+03  0.83786746731E+02 0.  0.
         24    2    4    4    0    0  0.43613864738E+03  0.88098954517E+02  0.13089277878E+03  0.47079258225E+03  0.80835576547E+02 0.  0.
         13    1    3    3    0    0 -0.57232883172E+02 -0.40079960305E+03  0.36028466457E+03  0.54196029767E+03  0.00000000000E+00 0. -1.
        -13    1    3    3    0    0  0.31437556005E+01 -0.85986940552E+02  0.13971893429E+03  0.16408844488E+03  0.00000000000E+00 0.  1.
          4    1    6    6  502    0  0.15117111837E+02 -0.75585379408E+01  0.17649120460E+02  0.24436653190E+02  0.00000000000E+00 0. -1.
          3    1    5    5  503    0 -0.18806805923E+03  0.25321620043E+03  0.22112722834E+03  0.38520811281E+03  0.00000000000E+00 0. -1.
         -4    1    5    5    0  503 -0.19398146058E+03  0.14547138865E+03  0.14244134723E+03  0.28121214300E+03  0.00000000000E+00 0.  1.
         -3    1    6    6    0  502  0.42102153554E+03  0.95657492457E+02  0.11324365832E+03  0.44635592906E+03  0.00000000000E+00 0.  1.
<mgrwt>
<rscale>  0 0.15519835E+04</rscale>
<asrwt>0</asrwt>
<pdfrwt beam="1">  1        2 0.65292049E-01 0.15519835E+04</pdfrwt>
<pdfrwt beam="2">  1       -2 0.21828665E+00 0.15519835E+04</pdfrwt>
<totfact> 0.72473541E+00</totfact>
</mgrwt>
</event>
<event>
12    1  0.1960998E-007  0.2069865E+04  0.7818608E-02  0.8574636E-01
          1   -1    0    0  501    0  0.00000000000E+00  0.00000000000E+00  0.13403436513E+04  0.13403436513E+04  0.00000000000E+00 0. -1.
         -1   -1    0    0    0  501 -0.00000000000E+00 -0.00000000000E+00 -0.79911211420E+03  0.79911211420E+03  0.00000000000E+00 0.  1.
         23    2    1    2    0    0  0.76326961791E+03 -0.31426445920E+03  0.34561311374E+03  0.90070291999E+03  0.10234581451E+03 0.  0.
        254    2    1    2    0    0 -0.76326961791E+03  0.31426445920E+03  0.19561842334E+03  0.12387528455E+04  0.90271777689E+03 0.  0.
        -24    2    4    4    0    0 -0.66117320271E+03  0.52770174260E+03 -0.95187656250E+02  0.85496597572E+03  0.79290583440E+02 0.  0.
         24    2    4    4    0    0 -0.10209641520E+03 -0.21343728340E+03  0.29080607959E+03  0.38378686976E+03  0.82128153099E+02 0.  0.
         13    1    3    3    0    0  0.72309001335E+03 -0.26969285510E+03  0.32063163578E+03  0.83570212956E+03  0.00000000000E+00 0. -1.
        -13    1    3    3    0    0  0.40179604565E+02 -0.44571604102E+02  0.24981477959E+02  0.65000790428E+02  0.00000000000E+00 0.  1.
          2    1    6    6  502    0 -0.52202310544E+02 -0.68635003069E+02  0.16260701103E+03  0.18405674372E+03  0.00000000000E+00 0. -1.
          1    1    5    5  503    0 -0.18467314049E+03  0.15553854987E+03 -0.62827510163E+02  0.24948688412E+03  0.00000000000E+00 0. -1.
         -2    1    5    5    0  503 -0.47650006222E+03  0.37216319273E+03 -0.32360146087E+02  0.60547909161E+03  0.00000000000E+00 0.  1.
         -1    1    6    6    0  502 -0.49894104661E+02 -0.14480228033E+03  0.12819906856E+03  0.19973012605E+03  0.00000000000E+00 0.  1.
<mgrwt>
<rscale>  0 0.20698646E+04</rscale>
<asrwt>0</asrwt>
<pdfrwt beam="1">  1        1 0.20620672E+00 0.20698646E+04</pdfrwt>
<pdfrwt beam="2">  1       -1 0.12294033E+00 0.20698646E+04</pdfrwt>
<totfact> 0.45529791E+00</totfact>
</mgrwt>
</event>
<event>
12    1  0.1960998E-007  0.2411883E+04  0.7818608E-02  0.8435068E-01
          2   -1    0    0  501    0  0.00000000000E+00  0.00000000000E+00  0.67242243670E+03  0.67242243670E+03  0.00000000000E+00 0.  1.
         -2   -1    0    0    0  501 -0.00000000000E+00 -0.00000000000E+00 -0.21627704872E+04  0.21627704872E+04  0.00000000000E+00 0. -1.
         23    2    1    2    0    0  0.92912012897E+03  0.41325114446E+03 -0.42765935111E+03  0.11093242625E+04  0.11690627122E+03 0.  0.
        254    2    1    2    0    0 -0.92912012897E+03 -0.41325114446E+03 -0.10626886994E+04  0.17258686615E+04  0.90292560176E+03 0.  0.
        -24    2    4    4    0    0 -0.34652065463E+03 -0.36549319726E+03  0.12673571885E+01  0.50923836517E+03  0.75234732944E+02 0.  0.
         24    2    4    4    0    0 -0.58259947434E+03 -0.47757947199E+02 -0.10639560566E+04  0.12166302963E+04  0.80522161153E+02 0.  0.
         11    1    3    3    0    0  0.33712485471E+03  0.13283711024E+03 -0.94762707783E+02  0.37453816401E+03  0.00000000000E+00 0.  1.
        -11    1    3    3    0    0  0.59199527426E+03  0.28041403422E+03 -0.33289664333E+03  0.73478609845E+03  0.00000000000E+00 0. -1.
          2    1    6    6  502    0 -0.45552212376E+02 -0.26188310647E+02 -0.99320016283E+02  0.11236234824E+03  0.00000000000E+00 0. -1.
          1    1    5    5  503    0 -0.24896834804E+01 -0.99900563147E+01 -0.10063206217E+02  0.14396800630E+02  0.00000000000E+00 0. -1.
         -2    1    5    5    0  503 -0.34403097115E+03 -0.35550314094E+03  0.11330563406E+02  0.49484156454E+03  0.00000000000E+00 0.  1.
         -1    1    6    6    0  502 -0.53704726196E+03 -0.21569636552E+02 -0.96463604034E+03  0.11042679481E+04  0.00000000000E+00 0.  1.
<mgrwt>
<rscale>  0 0.24118834E+04</rscale>
<asrwt>0</asrwt>
<pdfrwt beam="1">  1        2 0.10344961E+00 0.24118834E+04</pdfrwt>
<pdfrwt beam="2">  1       -2 0.33273391E+00 0.24118834E+04</pdfrwt>
<totfact> 0.77337400E-01</totfact>
</mgrwt>
</event>
<event>
12    1  0.1960998E-007  0.1963482E+04  0.7818608E-02  0.8623887E-01
         -2   -1    0    0    0  501 -0.00000000000E+00  0.00000000000E+00  0.15397561959E+04  0.15397561959E+04  0.00000000000E+00 0.  1.
          2   -1    0    0  501    0  0.00000000000E+00 -0.00000000000E+00 -0.62595328862E+03  0.62595328862E+03  0.00000000000E+00 0. -1.
         23    2    1    2    0    0  0.62165249380E+03 -0.45212326747E+03  0.40084919097E+03  0.87563240663E+03  0.12322648090E+03 0.  0.
        254    2    1    2    0    0 -0.62165249380E+03  0.45212326747E+03  0.51295371633E+03  0.12900770779E+04  0.90017225008E+03 0.  0.
        -24    2    4    4    0    0 -0.51598709162E+03 -0.44545014696E+02  0.56839743629E+03  0.77310282003E+03  0.79908620985E+02 0.  0.
         24    2    4    4    0    0 -0.10566540218E+03  0.49666828217E+03 -0.55443719955E+02  0.51697425788E+03  0.79648085327E+02 0.  0.
         13    1    3    3    0    0  0.41112229583E+03 -0.29316095767E+03  0.32740580605E+03  0.60179685199E+03  0.00000000000E+00 0.  1.
        -13    1    3    3    0    0  0.21053019797E+03 -0.15896230980E+03  0.73443384924E+02  0.27383555464E+03  0.00000000000E+00 0. -1.
          2    1    6    6  502    0 -0.42020285151E+02  0.35072718590E+03 -0.19628226083E+02  0.35378034223E+03  0.00000000000E+00 0. -1.
          3    1    5    5  503    0 -0.48900945946E+03 -0.45355782155E+02  0.50611175370E+03  0.70522089139E+03  0.00000000000E+00 0. -1.
         -4    1    5    5    0  503 -0.26977632161E+02  0.81076745889E+00  0.62285682589E+02  0.67881928645E+02  0.00000000000E+00 0.  1.
         -1    1    6    6    0  502 -0.63645117026E+02  0.14594109627E+03 -0.35815493872E+02  0.16319391565E+03  0.00000000000E+00 0.  1.
<mgrwt>
<rscale>  0 0.19634821E+04</rscale>
<asrwt>0</asrwt>
<pdfrwt beam="1">  1        2 0.96300506E-01 0.19634821E+04</pdfrwt>
<pdfrwt beam="2">  1       -2 0.23688557E+00 0.19634821E+04</pdfrwt>
<totfact> 0.33976964E+00</totfact>
</mgrwt>
</event>
<event>
12    1  0.1960998E-007  0.1334157E+04  0.7818608E-02  0.9002908E-01
         -2   -1    0    0    0  501 -0.00000000000E+00  0.00000000000E+00  0.65594612192E+03  0.65594612192E+03  0.00000000000E+00 0.  1.
          2   -1    0    0  501    0  0.00000000000E+00 -0.00000000000E+00 -0.67840012654E+03  0.67840012654E+03  0.00000000000E+00 0. -1.
         23    2    1    2    0    0 -0.21688960667E+03 -0.85278299853E+02 -0.27282181495E+03  0.37062973823E+03  0.92850257081E+02 0.  0.
        254    2    1    2    0    0  0.21688960667E+03  0.85278299853E+02  0.25036781033E+03  0.96371651023E+03  0.90097279744E+03 0.  0.
        -24    2    4    4    0    0  0.30949821477E+03  0.21037277414E+03 -0.23388763317E+03  0.44852590597E+03  0.80163672111E+02 0.  0.
         24    2    4    4    0    0 -0.92608608097E+02 -0.12509447429E+03  0.48425544351E+03  0.51519060427E+03  0.81811016171E+02 0.  0.
         11    1    3    3    0    0 -0.93897746691E+02 -0.69522704774E+02 -0.80799452834E+02  0.14205190914E+03  0.00000000000E+00 0.  1.
        -11    1    3    3    0    0 -0.12299185998E+03 -0.15755595079E+02 -0.19202236212E+03  0.22857782909E+03  0.00000000000E+00 0. -1.
          4    1    6    6  502    0 -0.91684147744E+02 -0.64401898654E+02  0.35758967264E+03  0.37473185277E+03  0.00000000000E+00 0. -1.
          3    1    5    5  503    0  0.17134830103E+03  0.16282927658E+03 -0.15220733827E+03  0.28114175677E+03  0.00000000000E+00 0. -1.
         -2    1    5    5    0  503  0.13814991374E+03  0.47543497564E+02 -0.81680294905E+02  0.16738414920E+03  0.00000000000E+00 0.  1.
         -3    1    6    6    0  502 -0.92446035218E+00 -0.60692575633E+02  0.12666577087E+03  0.14045875150E+03  0.00000000000E+00 0.  1.
<mgrwt>
<rscale>  0 0.13341573E+04</rscale>
<asrwt>0</asrwt>
<pdfrwt beam="1">  1        2 0.10436925E+00 0.13341573E+04</pdfrwt>
<pdfrwt beam="2">  1       -2 0.10091479E+00 0.13341573E+04</pdfrwt>
<totfact> 0.33699928E+01</totfact>
</mgrwt>
</event>
<event>
12    1  0.1960998E-007  0.1705192E+04  0.7818608E-02  0.8758409E-01
         -1   -1    0    0    0  501 -0.00000000000E+00  0.00000000000E+00  0.53701832749E+03  0.53701832749E+03  0.00000000000E+00 0.  1.
          1   -1    0    0  501    0  0.00000000000E+00 -0.00000000000E+00 -0.13536220529E+04  0.13536220529E+04  0.00000000000E+00 0. -1.
         23    2    1    2    0    0  0.44128595815E+03  0.29829506457E+03  0.41040247632E+02  0.54195743488E+03  0.91215771077E+02 0.  0.
        254    2    1    2    0    0 -0.44128595815E+03 -0.29829506457E+03 -0.85764397305E+03  0.13486829455E+04  0.89424787425E+03 0.  0.
        -24    2    4    4    0    0  0.10889012002E+03  0.23231185484E+03 -0.17349376744E+03  0.31968134536E+03  0.79184714994E+02 0.  0.
         24    2    4    4    0    0 -0.55017607817E+03 -0.53060691941E+03 -0.68415020560E+03  0.10290016002E+04  0.80903457090E+02 0.  0.
         11    1    3    3    0    0  0.19178399754E+03  0.12403625421E+03 -0.27367579823E+02  0.23003277700E+03  0.00000000000E+00 0. -1.
        -11    1    3    3    0    0  0.24950196061E+03  0.17425881036E+03  0.68407827455E+02  0.31192465788E+03  0.00000000000E+00 0.  1.
          4    1    6    6  502    0 -0.35187728816E+02 -0.14257537660E+02 -0.48493804866E+02  0.61588170534E+02  0.00000000000E+00 0. -1.
          3    1    5    5  503    0  0.10441151451E+02  0.11126114904E+03 -0.84071460818E+02  0.13984302433E+03  0.00000000000E+00 0. -1.
         -4    1    5    5    0  503  0.98448968570E+02  0.12105070580E+03 -0.89422306623E+02  0.17983832103E+03  0.00000000000E+00 0.  1.
         -3    1    6    6    0  502 -0.51498834935E+03 -0.51634938175E+03 -0.63565640074E+03  0.96741342962E+03  0.00000000000E+00 0.  1.
<mgrwt>
<rscale>  0 0.17051919E+04</rscale>
<asrwt>0</asrwt>
<pdfrwt beam="1">  1        1 0.20824955E+00 0.17051919E+04</pdfrwt>
<pdfrwt beam="2">  1       -1 0.82618204E-01 0.17051919E+04</pdfrwt>
<totfact> 0.11472565E+01</totfact>
</mgrwt>
</event>
<event>
12    1  0.1960998E-007  0.1388132E+04  0.7818608E-02  0.8962454E-01
          2   -1    0    0  501    0  0.00000000000E+00  0.00000000000E+00  0.85010436670E+03  0.85010436670E+03  0.00000000000E+00 0. -1.
         -2   -1    0    0    0  501 -0.00000000000E+00 -0.00000000000E+00 -0.56666865634E+03  0.56666865634E+03  0.00000000000E+00 0.  1.
         23    2    1    2    0    0  0.23600805362E+03  0.31241893376E+03  0.23493671648E+02  0.40233822417E+03  0.89547208050E+02 0.  0.
        254    2    1    2    0    0 -0.23600805362E+03 -0.31241893376E+03  0.25994203871E+03  0.10144347989E+04  0.89900094891E+03 0.  0.
        -24    2    4    4    0    0  0.17588515828E+03 -0.83911631279E+01  0.42764283009E+03  0.46988145702E+03  0.83091473693E+02 0.  0.
         24    2    4    4    0    0 -0.41189321190E+03 -0.30402777064E+03 -0.16770079138E+03  0.54455334186E+03  0.79535422150E+02 0.  0.
         11    1    3    3    0    0  0.32773750143E+02  0.58052617439E+02  0.37429520576E+02  0.76453869101E+02  0.00000000000E+00 0. -1.
        -11    1    3    3    0    0  0.20323430348E+03  0.25436631632E+03 -0.13935848928E+02  0.32588435506E+03  0.00000000000E+00 0.  1.
          4    1    6    6  502    0 -0.63989709789E+02 -0.58137242370E+02 -0.59652668195E+02  0.10503838694E+03  0.00000000000E+00 0. -1.
          1    1    5    5  503    0  0.16230937635E+03 -0.75561753282E+01  0.29707774733E+03  0.33860983063E+03  0.00000000000E+00 0. -1.
         -4    1    5    5    0  503  0.13575781926E+02 -0.83498779973E+00  0.13056508276E+03  0.13127162640E+03  0.00000000000E+00 0.  1.
         -3    1    6    6    0  502 -0.34790350211E+03 -0.24589052827E+03 -0.10804812319E+03  0.43951495491E+03  0.00000000000E+00 0.  1.
<mgrwt>
<rscale>  0 0.13881318E+04</rscale>
<asrwt>0</asrwt>
<pdfrwt beam="1">  1        2 0.13078529E+00 0.13881318E+04</pdfrwt>
<pdfrwt beam="2">  1       -2 0.87179793E-01 0.13881318E+04</pdfrwt>
<totfact> 0.35163729E+01</totfact>
</mgrwt>
</event>
<event>
12    1  0.1960998E-007  0.1155542E+04  0.7818608E-02  0.9152686E-01
         -1   -1    0    0    0  501 -0.00000000000E+00  0.00000000000E+00  0.37273306699E+03  0.37273306699E+03  0.00000000000E+00 0.  1.
          1   -1    0    0  501    0  0.00000000000E+00 -0.00000000000E+00 -0.89559912661E+03  0.89559912661E+03  0.00000000000E+00 0. -1.
         23    2    1    2    0    0  0.17662198897E+03  0.69004269312E+02 -0.19426232859E+00  0.21065666332E+03  0.91756612253E+02 0.  0.
        254    2    1    2    0    0 -0.17662198897E+03 -0.69004269312E+02 -0.52267179730E+03  0.10576755303E+04  0.89974152039E+03 0.  0.
        -24    2    4    4    0    0 -0.44622015584E+03  0.20770825506E+03 -0.41666242535E+03  0.64968729595E+03  0.78935791148E+02 0.  0.
         24    2    4    4    0    0  0.26959816688E+03 -0.27671252437E+03 -0.10600937195E+03  0.40798823433E+03  0.77223181011E+02 0.  0.
         13    1    3    3    0    0  0.11852739795E+03  0.84646653060E+02 -0.20659589402E+02  0.14710750685E+03  0.00000000000E+00 0. -1.
        -13    1    3    3    0    0  0.58094591017E+02 -0.15642383748E+02  0.20465327073E+02  0.63549156461E+02  0.00000000000E+00 0.  1.
          2    1    6    6  502    0  0.17053980034E+03 -0.13432738435E+03 -0.32119714891E+02  0.21945237700E+03  0.00000000000E+00 0. -1.
          1    1    5    5  503    0 -0.26920801636E+03  0.11360058853E+03 -0.29484635721E+03  0.41510531693E+03  0.00000000000E+00 0. -1.
         -2    1    5    5    0  503 -0.17701213948E+03  0.94107666528E+02 -0.12181606814E+03  0.23458197902E+03  0.00000000000E+00 0.  1.
         -1    1    6    6    0  502  0.99058366535E+02 -0.14238514002E+03 -0.73889657055E+02  0.18853585733E+03  0.00000000000E+00 0.  1.
<mgrwt>
<rscale>  0 0.11555421E+04</rscale>
<asrwt>0</asrwt>
<pdfrwt beam="1">  1        1 0.13778448E+00 0.11555421E+04</pdfrwt>
<pdfrwt beam="2">  1       -1 0.57343549E-01 0.11555421E+04</pdfrwt>
<totfact> 0.56099486E+01</totfact>
</mgrwt>
</event>
<event>
12    1  0.1960998E-007  0.1121704E+04  0.7818608E-02  0.9184292E-01
          3   -1    0    0  501    0  0.00000000000E+00  0.00000000000E+00  0.13705690907E+03  0.13705690907E+03  0.00000000000E+00 0. -1.
         -3   -1    0    0    0  501 -0.00000000000E+00 -0.00000000000E+00 -0.22950688868E+04  0.22950688868E+04  0.00000000000E+00 0.  1.
         23    2    1    2    0    0  0.14172533789E+03  0.86877709532E+02 -0.53344220147E+03  0.56627856077E+03  0.92070724269E+02 0.  0.
        254    2    1    2    0    0 -0.14172533789E+03 -0.86877709532E+02 -0.16245697763E+04  0.18658472351E+04  0.90251046476E+03 0.  0.
        -24    2    4    4    0    0 -0.16254424822E+03  0.34347854990E+03 -0.36729242774E+03  0.53446043192E+03  0.79662280547E+02 0.  0.
         24    2    4    4    0    0  0.20818910335E+02 -0.43035625943E+03 -0.12572773485E+04  0.13313868032E+04  0.78768975618E+02 0.  0.
         11    1    3    3    0    0  0.38990140761E+02 -0.15099208942E+01 -0.45866486129E+02  0.60218315217E+02  0.00000000000E+00 0. -1.
        -11    1    3    3    0    0  0.10273519713E+03  0.88387630426E+02 -0.48757571534E+03  0.50606024556E+03  0.00000000000E+00 0.  1.
          4    1    6    6  502    0  0.28257585988E+02 -0.42941104457E+03 -0.12400209476E+04  0.13125716311E+04  0.00000000000E+00 0. -1.
          3    1    5    5  503    0 -0.15260586857E+03  0.33289200483E+03 -0.36896131406E+03  0.51984429330E+03  0.00000000000E+00 0. -1.
         -4    1    5    5    0  503 -0.99383796537E+01  0.10586545076E+02  0.16688863207E+01  0.14616138626E+02  0.00000000000E+00 0.  1.
         -3    1    6    6    0  502 -0.74386756527E+01 -0.94521486904E+00 -0.17256400957E+02  0.18815172085E+02  0.00000000000E+00 0.  1.
<mgrwt>
<rscale>  0 0.11217041E+04</rscale>
<asrwt>0</asrwt>
<pdfrwt beam="1">  1        3 0.21085679E-01 0.11217041E+04</pdfrwt>
<pdfrwt beam="2">  1       -3 0.35308751E+00 0.11217041E+04</pdfrwt>
<totfact> 0.10623396E+00</totfact>
</mgrwt>
</event>
<event>
12    1  0.1960998E-007  0.1230914E+04  0.7818608E-02  0.9086220E-01
          2   -1    0    0  501    0  0.00000000000E+00  0.00000000000E+00  0.12970591089E+04  0.12970591089E+04  0.00000000000E+00 0. -1.
         -2   -1    0    0    0  501 -0.00000000000E+00 -0.00000000000E+00 -0.29203550183E+03  0.29203550183E+03  0.00000000000E+00 0.  1.
         23    2    1    2    0    0  0.15198794144E+03  0.17496901380E+03  0.72940321427E+02  0.25824968816E+03  0.87510689696E+02 0.  0.
        254    2    1    2    0    0 -0.15198794144E+03 -0.17496901380E+03  0.93208328564E+03  0.13308449226E+04  0.92122443869E+03 0.  0.
        -24    2    4    4    0    0  0.16443874715E+03 -0.47341266214E+03  0.52661561481E+03  0.73127499446E+03  0.79243053489E+02 0.  0.
         24    2    4    4    0    0 -0.31642668859E+03  0.29844364834E+03  0.40546767082E+03  0.59956992811E+03  0.76717704121E+02 0.  0.
         11    1    3    3    0    0  0.10361441666E+03  0.12312814398E+03  0.64600091029E+01  0.16105346596E+03  0.00000000000E+00 0.  1.
        -11    1    3    3    0    0  0.48373524782E+02  0.51840869820E+02  0.66480312324E+02  0.97196222201E+02  0.00000000000E+00 0. -1.
          2    1    6    6  502    0 -0.14107575333E+03  0.10114096748E+03  0.20167635430E+03  0.26609249400E+03  0.00000000000E+00 0. -1.
          1    1    5    5  503    0  0.15828265262E+03 -0.35461572033E+03  0.40895058987E+03  0.56395593106E+03  0.00000000000E+00 0. -1.
         -2    1    5    5    0  503  0.61560945322E+01 -0.11879694181E+03  0.11766502495E+03  0.16731906341E+03  0.00000000000E+00 0.  1.
         -1    1    6    6    0  502 -0.17535093526E+03  0.19730268085E+03  0.20379131653E+03  0.33347743411E+03  0.00000000000E+00 0.  1.
<mgrwt>
<rscale>  0 0.12309140E+04</rscale>
<asrwt>0</asrwt>
<pdfrwt beam="1">  1        2 0.19954755E+00 0.12309140E+04</pdfrwt>
<pdfrwt beam="2">  1       -2 0.44928539E-01 0.12309140E+04</pdfrwt>
<totfact> 0.76750395E+01</totfact>
</mgrwt>
</event>
<event>
12    1  0.1960998E-007  0.2203860E+04  0.7818608E-02  0.8516823E-01
          1   -1    0    0  501    0  0.00000000000E+00  0.00000000000E+00  0.19745731248E+04  0.19745731248E+04  0.00000000000E+00 0. -1.
         -1   -1    0    0    0  501 -0.00000000000E+00 -0.00000000000E+00 -0.61494316497E+03  0.61494316497E+03  0.00000000000E+00 0.  1.
         23    2    1    2    0    0 -0.18696302570E+03  0.82541184266E+03  0.15785770836E+03  0.86565644597E+03  0.90455200941E+02 0.  0.
        254    2    1    2    0    0  0.18696302570E+03 -0.82541184266E+03  0.12017722515E+04  0.17238598438E+04  0.90065328163E+03 0.  0.
        -24    2    4    4    0    0  0.23837780999E+03 -0.53481264793E+03  0.12460308275E+03  0.60413696031E+03  0.81283392563E+02 0.  0.
         24    2    4    4    0    0 -0.51414784291E+02 -0.29059919473E+03  0.10771691687E+04  0.11197228835E+04  0.79965903557E+02 0.  0.
         11    1    3    3    0    0 -0.68004609106E+02  0.18925519780E+03  0.67872706875E+02  0.21224716981E+03  0.00000000000E+00 0. -1.
        -11    1    3    3    0    0 -0.11895841660E+03  0.63615664486E+03  0.89985001482E+02  0.65340927616E+03  0.00000000000E+00 0.  1.
          4    1    6    6  502    0  0.53821962381E+01 -0.18656175337E+03  0.69204259900E+03  0.71676859214E+03  0.00000000000E+00 0. -1.
          3    1    5    5  503    0  0.22414326253E+03 -0.49570379951E+03  0.13642988894E+03  0.56087037146E+03  0.00000000000E+00 0. -1.
         -4    1    5    5    0  503  0.14234547467E+02 -0.39108848418E+02 -0.11826806198E+02  0.43266588853E+02  0.00000000000E+00 0.  1.
         -3    1    6    6    0  502 -0.56796980529E+02 -0.10403744137E+03  0.38512656975E+03  0.40295429137E+03  0.00000000000E+00 0.  1.
<mgrwt>
<rscale>  0 0.22038605E+04</rscale>
<asrwt>0</asrwt>
<pdfrwt beam="1">  1        1 0.30378048E+00 0.22038605E+04</pdfrwt>
<pdfrwt beam="2">  1       -1 0.94606642E-01 0.22038605E+04</pdfrwt>
<totfact> 0.30539381E+00</totfact>
</mgrwt>
</event>
<event>
12    1  0.1960998E-007  0.1949356E+04  0.7818608E-02  0.8630671E-01
          1   -1    0    0  501    0  0.00000000000E+00  0.00000000000E+00  0.16151554576E+04  0.16151554576E+04  0.00000000000E+00 0. -1.
         -1   -1    0    0    0  501 -0.00000000000E+00 -0.00000000000E+00 -0.58817711201E+03  0.58817711201E+03  0.00000000000E+00 0.  1.
         23    2    1    2    0    0 -0.65401674740E+03  0.38934235657E+03  0.35083632260E+03  0.84306766781E+03  0.91387038235E+02 0.  0.
        254    2    1    2    0    0  0.65401674740E+03 -0.38934235657E+03  0.67614202300E+03  0.13602649018E+04  0.90212371177E+03 0.  0.
        -24    2    4    4    0    0  0.49432353492E+03  0.44485206448E+02  0.73197746765E+03  0.88796771314E+03  0.79755599544E+02 0.  0.
         24    2    4    4    0    0  0.15969321247E+03 -0.43382756302E+03 -0.55835444654E+02  0.47229718867E+03  0.78985827846E+02 0.  0.
         13    1    3    3    0    0 -0.27007574804E+03  0.10961627132E+03  0.13981599633E+03  0.32327256217E+03  0.00000000000E+00 0.  1.
        -13    1    3    3    0    0 -0.38394099935E+03  0.27972608525E+03  0.21102032627E+03  0.51979510565E+03  0.00000000000E+00 0. -1.
          2    1    6    6  502    0  0.11361174565E+03 -0.37390077361E+03 -0.64994493116E+02  0.39614858500E+03  0.00000000000E+00 0. -1.
          1    1    5    5  503    0  0.29393749782E+03 -0.11328419421E+02  0.44851119020E+03  0.53636729342E+03  0.00000000000E+00 0. -1.
         -2    1    5    5    0  503  0.20038603710E+03  0.55813625869E+02  0.28346627745E+03  0.35160041972E+03  0.00000000000E+00 0.  1.
         -1    1    6    6    0  502  0.46081466820E+02 -0.59926789409E+02  0.91590484624E+01  0.76148603677E+02  0.00000000000E+00 0.  1.
<mgrwt>
<rscale>  0 0.19493563E+04</rscale>
<asrwt>0</asrwt>
<pdfrwt beam="1">  1        1 0.24848545E+00 0.19493563E+04</pdfrwt>
<pdfrwt beam="2">  1       -1 0.90488787E-01 0.19493563E+04</pdfrwt>
<totfact> 0.60577372E+00</totfact>
</mgrwt>
</event>
<event>
12    1  0.1960998E-007  0.2106703E+04  0.7818608E-02  0.8558296E-01
         -1   -1    0    0    0  501 -0.00000000000E+00  0.00000000000E+00  0.16775095577E+04  0.16775095577E+04  0.00000000000E+00 0.  1.
          1   -1    0    0  501    0  0.00000000000E+00 -0.00000000000E+00 -0.66142681016E+03  0.66142681016E+03  0.00000000000E+00 0. -1.
         23    2    1    2    0    0  0.61847053669E+03 -0.28319331408E+03 -0.16528256036E+03  0.70581092536E+03  0.90257851250E+02 0.  0.
        254    2    1    2    0    0 -0.61847053669E+03  0.28319331408E+03  0.11813653079E+04  0.16331254425E+04  0.89931666409E+03 0.  0.
        -24    2    4    4    0    0 -0.20617892330E+03  0.80106327139E+02  0.11407378128E+04  0.11647295089E+04  0.79908068268E+02 0.  0.
         24    2    4    4    0    0 -0.41229161339E+03  0.20308698694E+03  0.40627495125E+02  0.46839593358E+03  0.80718390122E+02 0.  0.
         11    1    3    3    0    0  0.33467533029E+03 -0.19832540037E+03 -0.11217056758E+03  0.40487377955E+03  0.00000000000E+00 0.  1.
        -11    1    3    3    0    0  0.28379520640E+03 -0.84867913705E+02 -0.53111992781E+02  0.30093714582E+03  0.00000000000E+00 0. -1.
          4    1    6    6  502    0 -0.10050715297E+03  0.20040195572E+02 -0.11430601971E+02  0.10312107398E+03  0.00000000000E+00 0. -1.
          1    1    5    5  503    0  0.64000921197E+01  0.57121780433E+01  0.72638177625E+02  0.73142976463E+02  0.00000000000E+00 0. -1.
         -2    1    5    5    0  503 -0.21257901542E+03  0.74394149095E+02  0.10680996351E+04  0.10915865324E+04  0.00000000000E+00 0.  1.
         -3    1    6    6    0  502 -0.31178446042E+03  0.18304679136E+03  0.52058097096E+02  0.36527485960E+03  0.00000000000E+00 0.  1.
<mgrwt>
<rscale>  0 0.21067034E+04</rscale>
<asrwt>0</asrwt>
<pdfrwt beam="1">  1        1 0.10175797E+00 0.21067034E+04</pdfrwt>
<pdfrwt beam="2">  1       -1 0.25807839E+00 0.21067034E+04</pdfrwt>
<totfact> 0.16844691E+00</totfact>
</mgrwt>
</event>
<event>
12    1  0.1960998E-007  0.3109695E+04  0.7818608E-02  0.8213082E-01
          1   -1    0    0  501    0  0.00000000000E+00  0.00000000000E+00  0.75643428636E+03  0.75643428636E+03  0.00000000000E+00 0. -1.
         -1   -1    0    0    0  501 -0.00000000000E+00 -0.00000000000E+00 -0.31959831733E+04  0.31959831733E+04  0.00000000000E+00 0.  1.
         23    2    1    2    0    0 -0.31169002643E+03  0.13643827256E+04 -0.14460110043E+04  0.20146406344E+04  0.95593758481E+02 0.  0.
        254    2    1    2    0    0  0.31169002643E+03 -0.13643827256E+04 -0.99353788255E+03  0.19377768252E+04  0.89953910755E+03 0.  0.
        -24    2    4    4    0    0  0.53100816162E+03 -0.12498959776E+04 -0.98149512983E+03  0.16774210428E+04  0.78733997408E+02 0.  0.
         24    2    4    4    0    0 -0.21931813519E+03 -0.11448674796E+03 -0.12042752724E+02  0.26035578247E+03  0.80202529198E+02 0.  0.
         11    1    3    3    0    0 -0.22724253908E+03  0.94308433537E+03 -0.10620783176E+04  0.14384219088E+04  0.00000000000E+00 0.  1.
        -11    1    3    3    0    0 -0.84447487350E+02  0.42129839019E+03 -0.38393268679E+03  0.57621872556E+03  0.00000000000E+00 0. -1.
          4    1    6    6  502    0 -0.17142219215E+03 -0.10749978819E+03 -0.37314559614E+02  0.20575263980E+03  0.00000000000E+00 0. -1.
          1    1    5    5  503    0  0.14011821341E+03 -0.27657622419E+03 -0.25611849592E+03  0.40214948150E+03  0.00000000000E+00 0. -1.
         -2    1    5    5    0  503  0.39088994821E+03 -0.97331975340E+03 -0.72537663391E+03  0.12752715613E+04  0.00000000000E+00 0.  1.
         -3    1    6    6    0  502 -0.47895943037E+02 -0.69869597678E+01  0.25271806889E+02  0.54603142672E+02  0.00000000000E+00 0.  1.
<mgrwt>
<rscale>  0 0.31096953E+04</rscale>
<asrwt>0</asrwt>
<pdfrwt beam="1">  1        1 0.11637451E+00 0.31096953E+04</pdfrwt>
<pdfrwt beam="2">  1       -1 0.49168972E+00 0.31096953E+04</pdfrwt>
<totfact> 0.34330035E-02</totfact>
</mgrwt>
</event>
<event>
12    1  0.1960998E-007  0.1824268E+04  0.7818608E-02  0.8693499E-01
         -2   -1    0    0    0  501 -0.00000000000E+00  0.00000000000E+00  0.26856082409E+03  0.26856082409E+03  0.00000000000E+00 0.  1.
          2   -1    0    0  501    0  0.00000000000E+00 -0.00000000000E+00 -0.30979530445E+04  0.30979530445E+04  0.00000000000E+00 0. -1.
         23    2    1    2    0    0 -0.59687441344E+03  0.52999989163E+02 -0.45558204340E+03  0.75824455717E+03  0.91168777161E+02 0.  0.
        254    2    1    2    0    0  0.59687441344E+03 -0.52999989163E+02 -0.23738101770E+04  0.26082693114E+04  0.89945871508E+03 0.  0.
        -24    2    4    4    0    0  0.31564765397E+03 -0.33747133335E+03 -0.20028403161E+04  0.20569766989E+04  0.79142061074E+02 0.  0.
         24    2    4    4    0    0  0.28122675947E+03  0.28447134419E+03 -0.37096986092E+03  0.55129261250E+03  0.79325096791E+02 0.  0.
         13    1    3    3    0    0 -0.58097002637E+03  0.60412337473E+02 -0.45547421422E+03  0.74069736187E+03  0.00000000000E+00 0.  1.
        -13    1    3    3    0    0 -0.15904387072E+02 -0.74123483101E+01 -0.10782917787E+00  0.17547195296E+02  0.00000000000E+00 0. -1.
          2    1    6    6  502    0  0.87356867661E+02  0.14373030325E+03 -0.15683646447E+03  0.22997238745E+03  0.00000000000E+00 0. -1.
          3    1    5    5  503    0  0.23927414567E+03 -0.21388621411E+03 -0.12743440281E+04  0.13141355072E+04  0.00000000000E+00 0. -1.
         -4    1    5    5    0  503  0.76373508300E+02 -0.12358511924E+03 -0.72849628802E+03  0.74284119172E+03  0.00000000000E+00 0.  1.
         -1    1    6    6    0  502  0.19386989181E+03  0.14074104094E+03 -0.21413339645E+03  0.32132022506E+03  0.00000000000E+00 0.  1.
<mgrwt>
<rscale>  0 0.18242684E+04</rscale>
<asrwt>0</asrwt>
<pdfrwt beam="1">  1        2 0.47660818E+00 0.18242684E+04</pdfrwt>
<pdfrwt beam="2">  1       -2 0.41317048E-01 0.18242684E+04</pdfrwt>
<totfact> 0.79265141E+00</totfact>
</mgrwt>
</event>
<event>
12    1  0.1960998E-007  0.2239219E+04  0.7818608E-02  0.8502280E-01
          1   -1    0    0  501    0  0.00000000000E+00  0.00000000000E+00  0.18075777126E+04  0.18075777126E+04  0.00000000000E+00 0. -1.
         -1   -1    0    0    0  501 -0.00000000000E+00 -0.00000000000E+00 -0.69348326266E+03  0.69348326266E+03  0.00000000000E+00 0.  1.
         23    2    1    2    0    0  0.88254673215E+03 -0.24833934595E+03  0.67762120050E+03  0.11437184534E+04  0.91434370977E+02 0.  0.
        254    2    1    2    0    0 -0.88254673215E+03  0.24833934595E+03  0.43647324943E+03  0.13573425218E+04  0.90072673930E+03 0.  0.
        -24    2    4    4    0    0 -0.10411226061E+03  0.26022527925E+03  0.49378147873E+03  0.57264010364E+03  0.74431047253E+02 0.  0.
         24    2    4    4    0    0 -0.77843447155E+03 -0.11885933303E+02 -0.57308229292E+02  0.78470241818E+03  0.79825748071E+02 0.  0.
         13    1    3    3    0    0  0.39551530648E+03 -0.15605153916E+03  0.33136765239E+03  0.53906304045E+03  0.00000000000E+00 0. -1.
        -13    1    3    3    0    0  0.48703142567E+03 -0.92287806783E+02  0.34625354812E+03  0.60465541299E+03  0.00000000000E+00 0.  1.
          4    1    6    6  502    0 -0.86168777547E+02  0.20496041449E+02  0.61150974073E+01  0.88783671671E+02  0.00000000000E+00 0. -1.
          3    1    5    5  503    0 -0.40271170821E+02  0.16316146626E+03  0.23431974107E+03  0.28835598195E+03  0.00000000000E+00 0. -1.
         -4    1    5    5    0  503 -0.63841089787E+02  0.97063812984E+02  0.25946173765E+03  0.28428412168E+03  0.00000000000E+00 0.  1.
         -3    1    6    6    0  502 -0.69226569400E+03 -0.32381974752E+02 -0.63423326699E+02  0.69591874651E+03  0.00000000000E+00 0.  1.
<mgrwt>
<rscale>  0 0.22392185E+04</rscale>
<asrwt>0</asrwt>
<pdfrwt beam="1">  1        1 0.27808888E+00 0.22392185E+04</pdfrwt>
<pdfrwt beam="2">  1       -1 0.10668973E+00 0.22392185E+04</pdfrwt>
<totfact> 0.29998241E+00</totfact>
</mgrwt>
</event>
<event>
12    1  0.1960998E-007  0.1449043E+04  0.7818608E-02  0.8919064E-01
          2   -1    0    0  501    0  0.00000000000E+00  0.00000000000E+00  0.31813107043E+03  0.31813107043E+03  0.00000000000E+00 0.  1.
         -2   -1    0    0    0  501 -0.00000000000E+00 -0.00000000000E+00 -0.16500471456E+04  0.16500471456E+04  0.00000000000E+00 0. -1.
         23    2    1    2    0    0  0.32753736445E+03  0.26334383265E+03 -0.23942212420E+03  0.49208482231E+03  0.90519718791E+02 0.  0.
        254    2    1    2    0    0 -0.32753736445E+03 -0.26334383265E+03 -0.10924939510E+04  0.14760933937E+04  0.89926524161E+03 0.  0.
        -24    2    4    4    0    0 -0.77442107440E+02 -0.24431187579E+03  0.75346198944E+02  0.27892176307E+03  0.80216753609E+02 0.  0.
         24    2    4    4    0    0 -0.25009525701E+03 -0.19031956852E+02 -0.11678401499E+04  0.11971716307E+04  0.80370669456E+02 0.  0.
         13    1    3    3    0    0  0.27069479479E+03  0.24505948838E+03 -0.23024137479E+03  0.43167223149E+03  0.00000000000E+00 0. -1.
        -13    1    3    3    0    0  0.56842569657E+02  0.18284344262E+02 -0.91807494166E+01  0.60412590825E+02  0.00000000000E+00 0.  1.
          2    1    6    6  502    0 -0.82055046770E+02  0.31169264593E+02 -0.41326342417E+03  0.42248220260E+03  0.00000000000E+00 0. -1.
          3    1    5    5  503    0 -0.68382736151E+02 -0.24649258486E+03  0.62985956040E+02  0.26344263826E+03  0.00000000000E+00 0. -1.
         -4    1    5    5    0  503 -0.90593712895E+01  0.21807090680E+01  0.12360242904E+02  0.15479124809E+02  0.00000000000E+00 0.  1.
         -1    1    6    6    0  502 -0.16804021024E+03 -0.50201221446E+02 -0.75457672577E+03  0.77468942807E+03  0.00000000000E+00 0.  1.
<mgrwt>
<rscale>  0 0.14490428E+04</rscale>
<asrwt>0</asrwt>
<pdfrwt beam="1">  1        2 0.48943241E-01 0.14490428E+04</pdfrwt>
<pdfrwt beam="2">  1       -2 0.25385341E+00 0.14490428E+04</pdfrwt>
<totfact> 0.60749157E+00</totfact>
</mgrwt>
</event>
<event>
12    1  0.1960998E-007  0.1974408E+04  0.7818608E-02  0.8618680E-01
         -2   -1    0    0    0  501 -0.00000000000E+00  0.00000000000E+00  0.33681186830E+03  0.33681186830E+03  0.00000000000E+00 0.  1.
          2   -1    0    0  501    0  0.00000000000E+00 -0.00000000000E+00 -0.28935205061E+04  0.28935205061E+04  0.00000000000E+00 0. -1.
         23    2    1    2    0    0 -0.67923371232E+03  0.38208259593E+03 -0.10735598169E+04  0.13295964292E+04  0.89165228544E+02 0.  0.
        254    2    1    2    0    0  0.67923371232E+03 -0.38208259593E+03 -0.14831488209E+04  0.19007359452E+04  0.89761972036E+03 0.  0.
        -24    2    4    4    0    0  0.22728510431E+03 -0.13951550294E+01  0.59250480579E+02  0.24728791159E+03  0.77331925299E+02 0.  0.
         24    2    4    4    0    0  0.45194860801E+03 -0.38068744090E+03 -0.15423993015E+04  0.16534480336E+04  0.75593139317E+02 0.  0.
         13    1    3    3    0    0 -0.42122864321E+03  0.18739231420E+03 -0.64418420344E+03  0.79216332738E+03  0.00000000000E+00 0. -1.
        -13    1    3    3    0    0 -0.25800506911E+03  0.19469028172E+03 -0.42937561346E+03  0.53743310180E+03  0.00000000000E+00 0.  1.
          2    1    6    6  502    0  0.28823504406E+03 -0.27048981539E+03 -0.94656449007E+03  0.10257819041E+04  0.00000000000E+00 0. -1.
          3    1    5    5  503    0  0.34268583348E+01  0.81964554919E+01 -0.94092265530E+01  0.12940586733E+02  0.00000000000E+00 0. -1.
         -4    1    5    5    0  503  0.22385824598E+03 -0.95916105213E+01  0.68659707132E+02  0.23434732486E+03  0.00000000000E+00 0.  1.
         -1    1    6    6    0  502  0.16371356395E+03 -0.11019762551E+03 -0.59583481140E+03  0.62766612953E+03  0.00000000000E+00 0.  1.
<mgrwt>
<rscale>  0 0.19744083E+04</rscale>
<asrwt>0</asrwt>
<pdfrwt beam="1">  1        2 0.44515700E+00 0.19744083E+04</pdfrwt>
<pdfrwt beam="2">  1       -2 0.51817210E-01 0.19744083E+04</pdfrwt>
<totfact> 0.66527585E+00</totfact>
</mgrwt>
</event>
<event>
12    1  0.1960998E-007  0.1445112E+04  0.7818608E-02  0.8921796E-01
          2   -1    0    0  501    0  0.00000000000E+00  0.00000000000E+00  0.13488896548E+04  0.13488896548E+04  0.00000000000E+00 0.  1.
         -2   -1    0    0    0  501 -0.00000000000E+00 -0.00000000000E+00 -0.38704952231E+03  0.38704952231E+03  0.00000000000E+00 0. -1.
         23    2    1    2    0    0  0.50108698235E+01  0.15173993343E+03 -0.19457425848E+03  0.26230565832E+03  0.88853813150E+02 0.  0.
        254    2    1    2    0    0 -0.50108698235E+01 -0.15173993343E+03  0.11564143909E+04  0.14736335187E+04  0.90069494713E+03 0.  0.
        -24    2    4    4    0    0 -0.25394957682E+03 -0.44467121992E+03  0.71255039393E+03  0.88108940270E+03  0.79797182083E+02 0.  0.
         24    2    4    4    0    0  0.24893870700E+03  0.29293128649E+03  0.44386399700E+03  0.59254411604E+03  0.79461079635E+02 0.  0.
         13    1    3    3    0    0 -0.36864048964E+02  0.45007430412E+02 -0.43453505292E+02  0.72614282482E+02  0.00000000000E+00 0.  1.
        -13    1    3    3    0    0  0.41874918787E+02  0.10673250302E+03 -0.15112075319E+03  0.18969137584E+03  0.00000000000E+00 0. -1.
          2    1    6    6  502    0  0.16283013068E+03  0.24030047792E+03  0.35016610177E+03  0.45483433245E+03  0.00000000000E+00 0. -1.
          1    1    5    5  503    0 -0.21528988401E+03 -0.42102515838E+03  0.64627966285E+03  0.80080542003E+03  0.00000000000E+00 0. -1.
         -2    1    5    5    0  503 -0.38659692806E+02 -0.23646061538E+02  0.66270731088E+02  0.80283982669E+02  0.00000000000E+00 0.  1.
         -1    1    6    6    0  502  0.86108576320E+02  0.52630808564E+02  0.93697895231E+02  0.13770978359E+03  0.00000000000E+00 0.  1.
<mgrwt>
<rscale>  0 0.14451119E+04</rscale>
<asrwt>0</asrwt>
<pdfrwt beam="1">  1        2 0.20752148E+00 0.14451119E+04</pdfrwt>
<pdfrwt beam="2">  1       -2 0.59546081E-01 0.14451119E+04</pdfrwt>
<totfact> 0.39533050E+01</totfact>
</mgrwt>
</event>
<event>
12    1  0.1960998E-007  0.2907674E+04  0.7818608E-02  0.8270598E-01
          1   -1    0    0  501    0  0.00000000000E+00  0.00000000000E+00  0.28033093082E+04  0.28033093082E+04  0.00000000000E+00 0. -1.
         -1   -1    0    0    0  501 -0.00000000000E+00 -0.00000000000E+00 -0.75398094856E+03  0.75398094856E+03  0.00000000000E+00 0.  1.
         23    2    1    2    0    0 -0.11894052205E+04 -0.11754902978E+03  0.15936745626E+04  0.19940807373E+04  0.89759805042E+02 0.  0.
        254    2    1    2    0    0  0.11894052205E+04  0.11754902978E+03  0.45565379707E+03  0.15632095195E+04  0.89861063090E+03 0.  0.
        -24    2    4    4    0    0  0.98164171263E+03  0.46018090367E+03  0.30277688930E+03  0.11285490017E+04  0.81006718471E+02 0.  0.
         24    2    4    4    0    0  0.20776350787E+03 -0.34263187389E+03  0.15287690777E+03  0.43466051776E+03  0.70683382535E+02 0.  0.
         13    1    3    3    0    0 -0.95864950371E+03 -0.61096710985E+02  0.12981731484E+04  0.16149288536E+04  0.00000000000E+00 0.  1.
        -13    1    3    3    0    0 -0.23075571679E+03 -0.56452318796E+02  0.29550141423E+03  0.37915188373E+03  0.00000000000E+00 0. -1.
          2    1    6    6  502    0  0.11467955837E+03 -0.22028312281E+03  0.12640439892E+03  0.27866490157E+03  0.00000000000E+00 0. -1.
          1    1    5    5  503    0  0.51604799307E+03  0.23881869592E+03  0.11686754542E+03  0.58051522275E+03  0.00000000000E+00 0. -1.
         -2    1    5    5    0  503  0.46559371956E+03  0.22136220775E+03  0.18590934388E+03  0.54803377894E+03  0.00000000000E+00 0.  1.
         -1    1    6    6    0  502  0.93083949504E+02 -0.12234875108E+03  0.26472508844E+02  0.15599561619E+03  0.00000000000E+00 0.  1.
<mgrwt>
<rscale>  0 0.29076739E+04</rscale>
<asrwt>0</asrwt>
<pdfrwt beam="1">  1        1 0.43127835E+00 0.29076739E+04</pdfrwt>
<pdfrwt beam="2">  1       -1 0.11599707E+00 0.29076739E+04</pdfrwt>
<totfact> 0.47771105E-01</totfact>
</mgrwt>
</event>
<event>
12    1  0.1960998E-007  0.3301835E+04  0.7818608E-02  0.8162429E-01
          4   -1    0    0  501    0  0.00000000000E+00  0.00000000000E+00  0.17016190904E+04  0.17016190904E+04  0.00000000000E+00 0. -1.
         -4   -1    0    0    0  501 -0.00000000000E+00 -0.00000000000E+00 -0.16017266573E+04  0.16017266573E+04  0.00000000000E+00 0.  1.
         23    2    1    2    0    0  0.59703124158E+03  0.13837332899E+04 -0.19754971521E+03  0.15226630781E+04  0.91174769352E+02 0.  0.
        254    2    1    2    0    0 -0.59703124158E+03 -0.13837332899E+04  0.29744214838E+03  0.17806826696E+04  0.90066354270E+03 0.  0.
        -24    2    4    4    0    0 -0.81330483750E+03 -0.11484918810E+04  0.33540989357E+03  0.14490731925E+04  0.82552778272E+02 0.  0.
         24    2    4    4    0    0  0.21627359591E+03 -0.23524140886E+03 -0.37967745192E+02  0.33160947703E+03  0.80065640862E+02 0.  0.
         13    1    3    3    0    0  0.36809795150E+03  0.95063145751E+03 -0.11508506172E+03  0.10258853939E+04  0.00000000000E+00 0. -1.
        -13    1    3    3    0    0  0.22893329008E+03  0.43310183236E+03 -0.82464653489E+02  0.49677768425E+03  0.00000000000E+00 0.  1.
          2    1    6    6  502    0  0.80562311885E+02 -0.13724475249E+03  0.34007377588E+01  0.15917906018E+03  0.00000000000E+00 0. -1.
          3    1    5    5  503    0 -0.44991960933E+03 -0.56554290752E+03  0.18087947793E+03  0.74497236234E+03  0.00000000000E+00 0. -1.
         -4    1    5    5    0  503 -0.36338522817E+03 -0.58294897348E+03  0.15453041564E+03  0.70410083020E+03  0.00000000000E+00 0.  1.
         -1    1    6    6    0  502  0.13571128403E+03 -0.97996656372E+02 -0.41368482950E+02  0.17243041685E+03  0.00000000000E+00 0.  1.
<mgrwt>
<rscale>  0 0.33018350E+04</rscale>
<asrwt>0</asrwt>
<pdfrwt beam="1">  1        4 0.26178755E+00 0.33018350E+04</pdfrwt>
<pdfrwt beam="2">  1       -4 0.24641949E+00 0.33018350E+04</pdfrwt>
<totfact> 0.58555517E-03</totfact>
</mgrwt>
</event>
<event>
12    1  0.1960998E-007  0.2785875E+04  0.7818608E-02  0.8307667E-01
          1   -1    0    0  501    0  0.00000000000E+00  0.00000000000E+00  0.29488256714E+04  0.29488256714E+04  0.00000000000E+00 0. -1.
         -1   -1    0    0    0  501 -0.00000000000E+00 -0.00000000000E+00 -0.65798202969E+03  0.65798202969E+03  0.00000000000E+00 0.  1.
         23    2    1    2    0    0 -0.36055912581E+03  0.84223926964E+03 -0.66151428766E+02  0.92271474797E+03  0.87502137514E+02 0.  0.
        254    2    1    2    0    0  0.36055912581E+03 -0.84223926964E+03  0.23569950704E+04  0.26840929531E+04  0.89975516015E+03 0.  0.
        -24    2    4    4    0    0  0.43053594445E+03 -0.73180806414E+03  0.98225277208E+03  0.13008518653E+04  0.80565657193E+02 0.  0.
         24    2    4    4    0    0 -0.69976818644E+02 -0.11043120550E+03  0.13747422984E+04  0.13832410877E+04  0.79672539947E+02 0.  0.
         13    1    3    3    0    0 -0.31566270148E+03  0.66346081717E+03 -0.72354938535E+02  0.73828072855E+03  0.00000000000E+00 0.  1.
        -13    1    3    3    0    0 -0.44896424332E+02  0.17877845247E+03  0.62035097693E+01  0.18443401942E+03  0.00000000000E+00 0. -1.
          2    1    6    6  502    0 -0.58134725553E+02 -0.93482094306E+02  0.13222322055E+04  0.13268069013E+04  0.00000000000E+00 0. -1.
          3    1    5    5  503    0  0.27110327067E+03 -0.49389404541E+03  0.59790210344E+03  0.82153224937E+03  0.00000000000E+00 0. -1.
         -4    1    5    5    0  503  0.15943267378E+03 -0.23791401873E+03  0.38435066863E+03  0.47931961597E+03  0.00000000000E+00 0.  1.
         -1    1    6    6    0  502 -0.11842093091E+02 -0.16949111197E+02  0.52510092889E+02  0.56434186398E+02  0.00000000000E+00 0.  1.
<mgrwt>
<rscale>  0 0.27858746E+04</rscale>
<asrwt>0</asrwt>
<pdfrwt beam="1">  1        1 0.45366548E+00 0.27858746E+04</pdfrwt>
<pdfrwt beam="2">  1       -1 0.10122801E+00 0.27858746E+04</pdfrwt>
<totfact> 0.52285998E-01</totfact>
</mgrwt>
</event>
<event>
12    1  0.1960998E-007  0.1869110E+04  0.7818608E-02  0.8670387E-01
          2   -1    0    0  501    0  0.00000000000E+00  0.00000000000E+00  0.27763970872E+04  0.27763970872E+04  0.00000000000E+00 0. -1.
         -2   -1    0    0    0  501 -0.00000000000E+00 -0.00000000000E+00 -0.31457802271E+03  0.31457802271E+03  0.00000000000E+00 0.  1.
         23    2    1    2    0    0 -0.61529445181E+03  0.32060779277E+03  0.12288227191E+04  0.14141058785E+04  0.91178624089E+02 0.  0.
        254    2    1    2    0    0  0.61529445181E+03 -0.32060779277E+03  0.12329963453E+04  0.16768692313E+04  0.90012988629E+03 0.  0.
        -24    2    4    4    0    0  0.36230614447E+03  0.93416347845E+02  0.37993858201E+02  0.38457903122E+03  0.80406104420E+02 0.  0.
         24    2    4    4    0    0  0.25298830734E+03 -0.41402414061E+03  0.11950024871E+04  0.12922902001E+04  0.81018173368E+02 0.  0.
         11    1    3    3    0    0 -0.38402109740E+03  0.24585965166E+03  0.83222256529E+03  0.94895393446E+03  0.00000000000E+00 0. -1.
        -11    1    3    3    0    0 -0.23127335441E+03  0.74748141108E+02  0.39660015383E+03  0.46515194407E+03  0.00000000000E+00 0.  1.
          2    1    6    6  502    0  0.53899176057E+02 -0.46128726793E+02  0.13031281938E+03  0.14837254298E+03  0.00000000000E+00 0. -1.
          3    1    5    5  503    0  0.25168340572E+03  0.62752340906E+02  0.63362298219E+02  0.26701530638E+03  0.00000000000E+00 0. -1.
         -4    1    5    5    0  503  0.11062273874E+03  0.30664006939E+02 -0.25368440018E+02  0.11756372484E+03  0.00000000000E+00 0.  1.
         -1    1    6    6    0  502  0.19908913129E+03 -0.36789541382E+03  0.10646896678E+04  0.11439176571E+04  0.00000000000E+00 0.  1.
<mgrwt>
<rscale>  0 0.18691105E+04</rscale>
<asrwt>0</asrwt>
<pdfrwt beam="1">  1        2 0.42713800E+00 0.18691105E+04</pdfrwt>
<pdfrwt beam="2">  1       -2 0.48396621E-01 0.18691105E+04</pdfrwt>
<totfact> 0.90916236E+00</totfact>
</mgrwt>
</event>
<event>
12    1  0.1960998E-007  0.1140292E+04  0.7818608E-02  0.9166786E-01
          1   -1    0    0  501    0  0.00000000000E+00  0.00000000000E+00  0.73095082400E+03  0.73095082400E+03  0.00000000000E+00 0. -1.
         -1   -1    0    0    0  501 -0.00000000000E+00 -0.00000000000E+00 -0.44471758801E+03  0.44471758801E+03  0.00000000000E+00 0.  1.
         23    2    1    2    0    0 -0.51155521250E+02 -0.13148886072E+03 -0.86057487125E+02  0.18861418004E+03  0.90902200041E+02 0.  0.
        254    2    1    2    0    0  0.51155521250E+02  0.13148886072E+03  0.37229072312E+03  0.98705423197E+03  0.90319957179E+03 0.  0.
        -24    2    4    4    0    0  0.51162378217E+02 -0.24845035569E+03 -0.17354908006E+03  0.31744590172E+03  0.79419450657E+02 0.  0.
         24    2    4    4    0    0 -0.68569668800E-02  0.37993921641E+03  0.54583980318E+03  0.66960833025E+03  0.77977028636E+02 0.  0.
         13    1    3    3    0    0 -0.39422658658E+02 -0.60289972857E+02  0.52611181768E+01  0.72226769325E+02  0.00000000000E+00 0. -1.
        -13    1    3    3    0    0 -0.11732862592E+02 -0.71198887867E+02 -0.91318605302E+02  0.11638741071E+03  0.00000000000E+00 0.  1.
          2    1    6    6  502    0  0.36937884952E+02  0.14775660381E+03  0.23049813913E+03  0.27627126789E+03  0.00000000000E+00 0. -1.
          1    1    5    5  503    0 -0.52917292420E+01 -0.38949623921E+02  0.46766653158E+00  0.39310231670E+02  0.00000000000E+00 0. -1.
         -2    1    5    5    0  503  0.56454107459E+02 -0.20950073177E+03 -0.17401674659E+03  0.27813567005E+03  0.00000000000E+00 0.  1.
         -1    1    6    6    0  502 -0.36944741919E+02  0.23218261260E+03  0.31534166404E+03  0.39333706236E+03  0.00000000000E+00 0.  1.
<mgrwt>
<rscale>  0 0.11402924E+04</rscale>
<asrwt>0</asrwt>
<pdfrwt beam="1">  1        1 0.11245397E+00 0.11402924E+04</pdfrwt>
<pdfrwt beam="2">  1       -1 0.68418090E-01 0.11402924E+04</pdfrwt>
<totfact> 0.54800025E+01</totfact>
</mgrwt>
</event>
<event>
12    1  0.3183164E-007  0.2295899E+04  0.7818608E-02  0.8479540E-01
          1   -1    0    0  501    0  0.00000000000E+00  0.00000000000E+00  0.13611869208E+04  0.13611869208E+04  0.00000000000E+00 0. -1.
         -1   -1    0    0    0  501 -0.00000000000E+00 -0.00000000000E+00 -0.96811709958E+03  0.96811709958E+03  0.00000000000E+00 0.  1.
         23    2    1    2    0    0 -0.25141266915E+03 -0.48859331185E+03 -0.64363634828E+03  0.85118601612E+03  0.91203786184E+02 0.  0.
        254    2    1    2    0    0  0.25141266915E+03  0.48859331185E+03  0.10367061695E+04  0.14781180043E+04  0.89896685036E+03 0.  0.
        -24    2    4    4    0    0  0.58445001035E+03  0.28388785713E+03  0.64116258791E+03  0.91636593930E+03  0.80392416036E+02 0.  0.
         24    2    4    4    0    0 -0.33303734120E+03  0.20470545472E+03  0.39554358160E+03  0.56175206497E+03  0.79325051047E+02 0.  0.
         11    1    3    3    0    0 -0.96152794340E+02 -0.28615127843E+03 -0.35009838376E+03  0.46227350380E+03  0.00000000000E+00 0.  1.
        -11    1    3    3    0    0 -0.15525987481E+03 -0.20244203342E+03 -0.29353796452E+03  0.38891251231E+03  0.00000000000E+00 0. -1.
          4    1    6    6  502    0 -0.18456638724E+02  0.39419342010E+02  0.43523527600E+02  0.61553468564E+02  0.00000000000E+00 0. -1.
          1    1    5    5  503    0  0.10278800812E+03  0.40947073782E+02  0.71117653780E+02  0.13152854498E+03  0.00000000000E+00 0. -1.
         -2    1    5    5    0  503  0.48166200223E+03  0.24294078335E+03  0.57004493413E+03  0.78483739433E+03  0.00000000000E+00 0.  1.
         -3    1    6    6    0  502 -0.31458070247E+03  0.16528611271E+03  0.35202005400E+03  0.50019859640E+03  0.00000000000E+00 0.  1.
<mgrwt>
<rscale>  0 0.22958992E+04</rscale>
<asrwt>0</asrwt>
<pdfrwt beam="1">  1        1 0.20941337E+00 0.22958992E+04</pdfrwt>
<pdfrwt beam="2">  1       -1 0.14894109E+00 0.22958992E+04</pdfrwt>
<totfact> 0.26314282E+00</totfact>
</mgrwt>
</event>
<event>
12    1  0.1960998E-007  0.1856228E+04  0.7818608E-02  0.8676956E-01
         -1   -1    0    0    0  501 -0.00000000000E+00  0.00000000000E+00  0.59672975613E+03  0.59672975613E+03  0.00000000000E+00 0.  1.
          1   -1    0    0  501    0  0.00000000000E+00 -0.00000000000E+00 -0.14435275324E+04  0.14435275324E+04  0.00000000000E+00 0. -1.
         23    2    1    2    0    0 -0.35850660955E+03  0.71790702682E+02 -0.98782477588E+03  0.10572076884E+04  0.90605819097E+02 0.  0.
        254    2    1    2    0    0  0.35850660955E+03 -0.71790702682E+02  0.14102699963E+03  0.98304960013E+03  0.90156364590E+03 0.  0.
        -24    2    4    4    0    0  0.50249830733E+02  0.25344833736E+03 -0.26099487667E+03  0.37558875516E+03  0.78660550206E+02 0.  0.
         24    2    4    4    0    0  0.30825677882E+03 -0.32523904004E+03  0.40202187630E+03  0.60746084497E+03  0.81144403937E+02 0.  0.
         11    1    3    3    0    0 -0.25895764824E+03  0.91118365510E+02 -0.75014970676E+03  0.79880298113E+03  0.00000000000E+00 0. -1.
        -11    1    3    3    0    0 -0.99548961314E+02 -0.19327662828E+02 -0.23767506912E+03  0.25840470725E+03  0.00000000000E+00 0.  1.
          4    1    6    6  502    0  0.42880473350E+02 -0.14893104523E+02  0.57080100660E+02  0.72929263320E+02  0.00000000000E+00 0. -1.
          3    1    5    5  503    0  0.23683653684E+02  0.58375816043E+02 -0.11270229931E+03  0.12911413409E+03  0.00000000000E+00 0. -1.
         -4    1    5    5    0  503  0.26566177049E+02  0.19507252132E+03 -0.14829257736E+03  0.24647462108E+03  0.00000000000E+00 0.  1.
         -3    1    6    6    0  502  0.26537630547E+03 -0.31034593552E+03  0.34494177564E+03  0.53453158165E+03  0.00000000000E+00 0.  1.
<mgrwt>
<rscale>  0 0.18562283E+04</rscale>
<asrwt>0</asrwt>
<pdfrwt beam="1">  1        1 0.22208116E+00 0.18562283E+04</pdfrwt>
<pdfrwt beam="2">  1       -1 0.91804579E-01 0.18562283E+04</pdfrwt>
<totfact> 0.77739588E+00</totfact>
</mgrwt>
</event>
<event>
12    1  0.1960998E-007  0.3733185E+04  0.7818608E-02  0.8060647E-01
          1   -1    0    0  501    0  0.00000000000E+00  0.00000000000E+00  0.20827478743E+04  0.20827478743E+04  0.00000000000E+00 0. -1.
         -1   -1    0    0    0  501 -0.00000000000E+00 -0.00000000000E+00 -0.16728706072E+04  0.16728706072E+04  0.00000000000E+00 0.  1.
         23    2    1    2    0    0 -0.90527635023E+02  0.17527851335E+04  0.21435178386E+03  0.17705272180E+04  0.91482049988E+02 0.  0.
        254    2    1    2    0    0  0.90527635023E+02 -0.17527851335E+04  0.19552548330E+03  0.19850912635E+04  0.90659038872E+03 0.  0.
        -24    2    4    4    0    0  0.39410749159E+03 -0.10803582211E+04 -0.15735495904E+03  0.11635140961E+04  0.80683751797E+02 0.  0.
         24    2    4    4    0    0 -0.30357985656E+03 -0.67242691235E+03  0.35288044234E+03  0.82157716739E+03  0.78394857129E+02 0.  0.
         13    1    3    3    0    0 -0.26356099652E+02  0.30193033156E+03  0.70318235850E+02  0.31112894979E+03  0.00000000000E+00 0. -1.
        -13    1    3    3    0    0 -0.64171535371E+02  0.14508548019E+04  0.14403354801E+03  0.14593982682E+04  0.00000000000E+00 0.  1.
          4    1    6    6  502    0 -0.25445132376E+03 -0.48509383624E+03  0.27366300959E+03  0.61233401746E+03  0.00000000000E+00 0. -1.
          1    1    5    5  503    0  0.37294590329E+03 -0.97443989031E+03 -0.15944050396E+03  0.10554823641E+04  0.00000000000E+00 0. -1.
         -4    1    5    5    0  503  0.21161588294E+02 -0.10591833083E+03  0.20855449208E+01  0.10803173201E+03  0.00000000000E+00 0.  1.
         -3    1    6    6    0  502 -0.49128532803E+02 -0.18733307611E+03  0.79217432748E+02  0.20924314993E+03  0.00000000000E+00 0.  1.
<mgrwt>
<rscale>  0 0.37331851E+04</rscale>
<asrwt>0</asrwt>
<pdfrwt beam="1">  1        1 0.32042275E+00 0.37331851E+04</pdfrwt>
<pdfrwt beam="2">  1       -1 0.25736471E+00 0.37331851E+04</pdfrwt>
<totfact> 0.13076686E-01</totfact>
</mgrwt>
</event>
<event>
12    1  0.1960998E-007  0.2083565E+04  0.7818608E-02  0.8568518E-01
          2   -1    0    0  501    0  0.00000000000E+00  0.00000000000E+00  0.31924210489E+04  0.31924210489E+04  0.00000000000E+00 0. -1.
         -2   -1    0    0    0  501 -0.00000000000E+00 -0.00000000000E+00 -0.33996493131E+03  0.33996493131E+03  0.00000000000E+00 0.  1.
         23    2    1    2    0    0 -0.26469749845E+03  0.80013164325E+03  0.10980258398E+04  0.13874869516E+04  0.95832582855E+02 0.  0.
        254    2    1    2    0    0  0.26469749845E+03 -0.80013164325E+03  0.17544302778E+04  0.21448990285E+04  0.90127178521E+03 0.  0.
        -24    2    4    4    0    0  0.48244160749E+03 -0.21517553068E+03  0.11694651859E+04  0.12858263137E+04  0.81547987623E+02 0.  0.
         24    2    4    4    0    0 -0.21774410904E+03 -0.58495611258E+03  0.58496509183E+03  0.85907271481E+03  0.78965942094E+02 0.  0.
         13    1    3    3    0    0 -0.67187204796E+02  0.35379809653E+03  0.46886297299E+03  0.59120191224E+03  0.00000000000E+00 0. -1.
        -13    1    3    3    0    0 -0.19751029365E+03  0.44633354673E+03  0.62916286680E+03  0.79628503941E+03  0.00000000000E+00 0.  1.
          4    1    6    6  502    0 -0.62462728831E+02 -0.17770674422E+03  0.22767165687E+03  0.29549223810E+03  0.00000000000E+00 0. -1.
          3    1    5    5  503    0  0.14966852960E+03 -0.27520024072E+02  0.31414323073E+03  0.34906158467E+03  0.00000000000E+00 0. -1.
         -4    1    5    5    0  503  0.33277307788E+03 -0.18765550661E+03  0.85532195521E+03  0.93676472905E+03  0.00000000000E+00 0.  1.
         -3    1    6    6    0  502 -0.15528138021E+03 -0.40724936835E+03  0.35729343496E+03  0.56358047671E+03  0.00000000000E+00 0.  1.
<mgrwt>
<rscale>  0 0.20835654E+04</rscale>
<asrwt>0</asrwt>
<pdfrwt beam="1">  1        2 0.49114168E+00 0.20835654E+04</pdfrwt>
<pdfrwt beam="2">  1       -2 0.52302299E-01 0.20835654E+04</pdfrwt>
<totfact> 0.41878032E+00</totfact>
</mgrwt>
</event>
<event>
12    1  0.1960998E-007  0.1314770E+04  0.7818608E-02  0.9017934E-01
         -2   -1    0    0    0  501 -0.00000000000E+00  0.00000000000E+00  0.24272994195E+03  0.24272994195E+03  0.00000000000E+00 0.  1.
          2   -1    0    0  501    0  0.00000000000E+00 -0.00000000000E+00 -0.17803934096E+04  0.17803934096E+04  0.00000000000E+00 0. -1.
         23    2    1    2    0    0 -0.10026483072E+03  0.28013011111E+03 -0.66139542030E+03  0.73091349895E+03  0.90910535827E+02 0.  0.
        254    2    1    2    0    0  0.10026483072E+03 -0.28013011111E+03 -0.87626804734E+03  0.12922098526E+04  0.90190614639E+03 0.  0.
        -24    2    4    4    0    0 -0.14126130342E+03 -0.44754208082E+03 -0.86540959861E+03  0.98734726390E+03  0.75313851464E+02 0.  0.
         24    2    4    4    0    0  0.24152613414E+03  0.16741196971E+03 -0.10858448735E+02  0.30486258868E+03  0.80384395223E+02 0.  0.
         13    1    3    3    0    0 -0.15868088705E+02  0.18343385779E+02 -0.13322127456E+03  0.13541116659E+03  0.00000000000E+00 0. -1.
        -13    1    3    3    0    0 -0.84396742018E+02  0.26178672534E+03 -0.52817414574E+03  0.59550233237E+03  0.00000000000E+00 0.  1.
          2    1    6    6  502    0  0.10507086348E+03  0.26176846320E+02 -0.35374423506E+01  0.10834033014E+03  0.00000000000E+00 0. -1.
          3    1    5    5  503    0 -0.62410629711E+01 -0.55930151413E+02 -0.15616333162E+03  0.16599433378E+03  0.00000000000E+00 0. -1.
         -4    1    5    5    0  503 -0.13502024045E+03 -0.39161192941E+03 -0.70924626699E+03  0.82135293012E+03  0.00000000000E+00 0.  1.
         -1    1    6    6    0  502  0.13645527066E+03  0.14123512339E+03 -0.73210063843E+01  0.19652225854E+03  0.00000000000E+00 0.  1.
<mgrwt>
<rscale>  0 0.13147696E+04</rscale>
<asrwt>0</asrwt>
<pdfrwt beam="1">  1        2 0.27390667E+00 0.13147696E+04</pdfrwt>
<pdfrwt beam="2">  1       -2 0.37343069E-01 0.13147696E+04</pdfrwt>
<totfact> 0.58583936E+01</totfact>
</mgrwt>
</event>
<event>
12    1  0.1960998E-007  0.3506635E+04  0.7818608E-02  0.8112219E-01
         -1   -1    0    0    0  501 -0.00000000000E+00  0.00000000000E+00  0.15710169251E+04  0.15710169251E+04  0.00000000000E+00 0.  1.
          1   -1    0    0  501    0  0.00000000000E+00 -0.00000000000E+00 -0.19567717975E+04  0.19567717975E+04  0.00000000000E+00 0. -1.
         23    2    1    2    0    0  0.15083458755E+04  0.63371788220E+03 -0.13299755019E+03  0.16438469636E+04  0.88537319489E+02 0.  0.
        254    2    1    2    0    0 -0.15083458755E+04 -0.63371788220E+03 -0.25275732224E+03  0.18839417591E+04  0.89924671432E+03 0.  0.
        -24    2    4    4    0    0 -0.19985480033E+03 -0.50631149032E+03 -0.63386841243E+02  0.55332240955E+03  0.76514905902E+02 0.  0.
         24    2    4    4    0    0 -0.13084910752E+04 -0.12740639188E+03 -0.18937048099E+03  0.13306193495E+04  0.79406496674E+02 0.  0.
         11    1    3    3    0    0  0.10593118763E+04  0.43553737428E+03 -0.53275010052E+02  0.11465917680E+04  0.00000000000E+00 0. -1.
        -11    1    3    3    0    0  0.44903399916E+03  0.19818050792E+03 -0.79722540133E+02  0.49725519558E+03  0.00000000000E+00 0.  1.
          2    1    6    6  502    0 -0.18050770993E+03 -0.22562978552E+02  0.85165685722E+00  0.18191439378E+03  0.00000000000E+00 0. -1.
          3    1    5    5  503    0  0.13294107321E+01 -0.24629378941E+02  0.91307287303E+01  0.26301023689E+02  0.00000000000E+00 0. -1.
         -4    1    5    5    0  503 -0.20118421106E+03 -0.48168211138E+03 -0.72517569973E+02  0.52702138586E+03  0.00000000000E+00 0.  1.
         -1    1    6    6    0  502 -0.11279833652E+04 -0.10484341333E+03 -0.19022213785E+03  0.11487049557E+04  0.00000000000E+00 0.  1.
<mgrwt>
<rscale>  0 0.35066346E+04</rscale>
<asrwt>0</asrwt>
<pdfrwt beam="1">  1        1 0.30104181E+00 0.35066346E+04</pdfrwt>
<pdfrwt beam="2">  1       -1 0.24169491E+00 0.35066346E+04</pdfrwt>
<totfact> 0.20544677E-01</totfact>
</mgrwt>
</event>
<event>
12    1  0.1960998E-007  0.2170264E+04  0.7818608E-02  0.8530908E-01
         -2   -1    0    0    0  501 -0.00000000000E+00  0.00000000000E+00  0.74432004606E+03  0.74432004606E+03  0.00000000000E+00 0.  1.
          2   -1    0    0  501    0  0.00000000000E+00 -0.00000000000E+00 -0.15819957058E+04  0.15819957058E+04  0.00000000000E+00 0. -1.
         23    2    1    2    0    0  0.62040834735E+03  0.21296068902E+03  0.30556289635E+03  0.73055001985E+03  0.10037865984E+03 0.  0.
        254    2    1    2    0    0 -0.62040834735E+03 -0.21296068902E+03 -0.11432385561E+04  0.15957657320E+04  0.89956384030E+03 0.  0.
        -24    2    4    4    0    0  0.35591756043E+01  0.17581267434E+03  0.42029778310E+02  0.19870122278E+03  0.82419108706E+02 0.  0.
         24    2    4    4    0    0 -0.62396752295E+03 -0.38877336335E+03 -0.11852683344E+04  0.13970645092E+04  0.80299568265E+02 0.  0.
         11    1    3    3    0    0  0.51734732935E+03  0.16098162531E+03  0.28859833362E+03  0.61388300274E+03  0.00000000000E+00 0.  1.
        -11    1    3    3    0    0  0.10306101799E+03  0.51979063703E+02  0.16964562721E+02  0.11666701711E+03  0.00000000000E+00 0. -1.
          2    1    6    6  502    0 -0.47617648927E+03 -0.27045489684E+03 -0.92999840965E+03  0.10792529556E+04  0.00000000000E+00 0. -1.
          1    1    5    5  503    0  0.95636065385E+01  0.16605995015E+03  0.60476706330E+02  0.17698813978E+03  0.00000000000E+00 0. -1.
         -2    1    5    5    0  503 -0.60044309342E+01  0.97527241853E+01 -0.18446928020E+02  0.21713082997E+02  0.00000000000E+00 0.  1.
         -1    1    6    6    0  502 -0.14779103368E+03 -0.11831846652E+03 -0.25526992471E+03  0.31781155362E+03  0.00000000000E+00 0.  1.
<mgrwt>
<rscale>  0 0.21702637E+04</rscale>
<asrwt>0</asrwt>
<pdfrwt beam="1">  1        2 0.24338395E+00 0.21702637E+04</pdfrwt>
<pdfrwt beam="2">  1       -2 0.11451078E+00 0.21702637E+04</pdfrwt>
<totfact> 0.62321461E+00</totfact>
</mgrwt>
</event>
<event>
12    1  0.1960998E-007  0.1185450E+04  0.7818608E-02  0.9125688E-01
          2   -1    0    0  501    0  0.00000000000E+00  0.00000000000E+00  0.11140531703E+04  0.11140531703E+04  0.00000000000E+00 0. -1.
         -2   -1    0    0    0  501 -0.00000000000E+00 -0.00000000000E+00 -0.31535559196E+03  0.31535559196E+03  0.00000000000E+00 0.  1.
         23    2    1    2    0    0 -0.42906403222E+02 -0.24828297489E+03  0.17383640527E+03  0.31935044134E+03  0.90995678601E+02 0.  0.
        254    2    1    2    0    0  0.42906403222E+02  0.24828297489E+03  0.62486117303E+03  0.11100583209E+04  0.88220892941E+03 0.  0.
        -24    2    4    4    0    0  0.30814527116E+03 -0.20728185034E+03  0.20586934065E+03  0.43197022123E+03  0.79352460512E+02 0.  0.
         24    2    4    4    0    0 -0.26523886794E+03  0.45556482523E+03  0.41899183238E+03  0.67808809965E+03  0.79739251493E+02 0.  0.
         13    1    3    3    0    0 -0.68983416489E+02 -0.14044811536E+03  0.11101237328E+03  0.19185445494E+03  0.00000000000E+00 0.  1.
        -13    1    3    3    0    0  0.26077013267E+02 -0.10783485953E+03  0.62824031992E+02  0.12749598640E+03  0.00000000000E+00 0. -1.
          4    1    6    6  502    0 -0.25591490431E+03  0.44086881647E+03  0.42022355832E+03  0.66064028832E+03  0.00000000000E+00 0. -1.
          1    1    5    5  503    0  0.10973067709E+03 -0.99965219690E+02  0.45703918941E+02  0.15531488933E+03  0.00000000000E+00 0. -1.
         -2    1    5    5    0  503  0.19841459407E+03 -0.10731663065E+03  0.16016542171E+03  0.27665533190E+03  0.00000000000E+00 0.  1.
         -3    1    6    6    0  502 -0.93239636289E+01  0.14696008766E+02 -0.12317259421E+01  0.17447811330E+02  0.00000000000E+00 0.  1.
<mgrwt>
<rscale>  0 0.11854500E+04</rscale>
<asrwt>0</asrwt>
<pdfrwt beam="1">  1        2 0.17139279E+00 0.11854500E+04</pdfrwt>
<pdfrwt beam="2">  1       -2 0.48516245E-01 0.11854500E+04</pdfrwt>
<totfact> 0.84845374E+01</totfact>
</mgrwt>
</event>
<event>
12    1  0.1960998E-007  0.1306824E+04  0.7818608E-02  0.9024171E-01
          2   -1    0    0  501    0  0.00000000000E+00  0.00000000000E+00  0.20408306288E+04  0.20408306288E+04  0.00000000000E+00 0. -1.
         -2   -1    0    0    0  501 -0.00000000000E+00 -0.00000000000E+00 -0.20920276230E+03  0.20920276230E+03  0.00000000000E+00 0.  1.
         23    2    1    2    0    0 -0.10443600457E+03  0.18568676889E+02 -0.60215142483E+02  0.15194115175E+03  0.90601188739E+02 0.  0.
        254    2    1    2    0    0  0.10443600457E+03 -0.18568676889E+02  0.18918430090E+04  0.20980922393E+04  0.90092696669E+03 0.  0.
        -24    2    4    4    0    0  0.34110966161E+03 -0.72206095182E+02  0.24969644913E+03  0.43629871725E+03  0.80241713210E+02 0.  0.
         24    2    4    4    0    0 -0.23667365705E+03  0.53637418293E+02  0.16421465598E+04  0.16617935221E+04  0.77595060532E+02 0.  0.
         11    1    3    3    0    0 -0.98812831807E+02  0.45649540762E+02 -0.34524458031E+02  0.11419191961E+03  0.00000000000E+00 0. -1.
        -11    1    3    3    0    0 -0.56231727599E+01 -0.27080863873E+02 -0.25690684452E+02  0.37749232146E+02  0.00000000000E+00 0.  1.
          4    1    6    6  502    0 -0.10238249618E+03  0.24594858089E+02  0.47164823518E+03  0.48325887506E+03  0.00000000000E+00 0. -1.
          3    1    5    5  503    0  0.19013204980E+02 -0.20055015128E+02  0.39344014252E+02  0.48079694808E+02  0.00000000000E+00 0. -1.
         -4    1    5    5    0  503  0.32209645663E+03 -0.52151080054E+02  0.21035243487E+03  0.38821902244E+03  0.00000000000E+00 0.  1.
         -3    1    6    6    0  502 -0.13429116087E+03  0.29042560205E+02  0.11704983247E+04  0.11785346470E+04  0.00000000000E+00 0.  1.
<mgrwt>
<rscale>  0 0.13068242E+04</rscale>
<asrwt>0</asrwt>
<pdfrwt beam="1">  1        2 0.31397393E+00 0.13068242E+04</pdfrwt>
<pdfrwt beam="2">  1       -2 0.32185042E-01 0.13068242E+04</pdfrwt>
<totfact> 0.55876550E+01</totfact>
</mgrwt>
</event>
<event>
12    1  0.1960998E-007  0.1353306E+04  0.7818608E-02  0.8988330E-01
          1   -1    0    0  501    0  0.00000000000E+00  0.00000000000E+00  0.16585521954E+04  0.16585521954E+04  0.00000000000E+00 0. -1.
         -1   -1    0    0    0  501 -0.00000000000E+00 -0.00000000000E+00 -0.27605944313E+03  0.27605944313E+03  0.00000000000E+00 0.  1.
         23    2    1    2    0    0  0.26363511328E+03 -0.55391380208E+02  0.76016262689E+03  0.81153901815E+03  0.90425000416E+02 0.  0.
        254    2    1    2    0    0 -0.26363511328E+03  0.55391380208E+02  0.62233012536E+03  0.11230726204E+04  0.89522379756E+03 0.  0.
        -24    2    4    4    0    0 -0.15992418454E+03 -0.16535420213E+03 -0.16516548498E+03  0.29475796181E+03  0.81761003283E+02 0.  0.
         24    2    4    4    0    0 -0.10371092874E+03  0.22074558234E+03  0.78749561034E+03  0.82831465855E+03  0.80444194325E+02 0.  0.
         13    1    3    3    0    0  0.14187643623E+03 -0.73204234632E+01  0.50709615923E+03  0.52662038174E+03  0.00000000000E+00 0. -1.
        -13    1    3    3    0    0  0.12175867705E+03 -0.48070956744E+02  0.25306646766E+03  0.28491863641E+03  0.00000000000E+00 0.  1.
          2    1    6    6  502    0 -0.94297080661E+02  0.21753943807E+03  0.78156228116E+03  0.81673431780E+03  0.00000000000E+00 0. -1.
          3    1    5    5  503    0 -0.14054385391E+03 -0.12057400354E+03 -0.16170077211E+03  0.24584101550E+03  0.00000000000E+00 0. -1.
         -4    1    5    5    0  503 -0.19380330629E+02 -0.44780198590E+02 -0.34647128758E+01  0.48916946311E+02  0.00000000000E+00 0.  1.
         -1    1    6    6    0  502 -0.94138480787E+01  0.32061442718E+01  0.59333291768E+01  0.11580340749E+02  0.00000000000E+00 0.  1.
<mgrwt>
<rscale>  0 0.13533056E+04</rscale>
<asrwt>0</asrwt>
<pdfrwt beam="1">  1        1 0.25516187E+00 0.13533056E+04</pdfrwt>
<pdfrwt beam="2">  1       -1 0.42470685E-01 0.13533056E+04</pdfrwt>
<totfact> 0.27154618E+01</totfact>
</mgrwt>
</event>
<event>
12    1  0.1960998E-007  0.1713160E+04  0.7818608E-02  0.8753894E-01
         -2   -1    0    0    0  501 -0.00000000000E+00  0.00000000000E+00  0.28248221630E+03  0.28248221630E+03  0.00000000000E+00 0.  1.
          2   -1    0    0  501    0  0.00000000000E+00 -0.00000000000E+00 -0.25974367274E+04  0.25974367274E+04  0.00000000000E+00 0. -1.
         23    2    1    2    0    0 -0.29304433482E+03  0.41575696239E+03 -0.14226629726E+04  0.15134614724E+04  0.88695326011E+02 0.  0.
        254    2    1    2    0    0  0.29304433482E+03 -0.41575696239E+03 -0.89229153848E+03  0.13664574713E+04  0.90127298710E+03 0.  0.
        -24    2    4    4    0    0 -0.21320748763E+03 -0.84158439976E+01 -0.61321861040E+03  0.65478152246E+03  0.84696628038E+02 0.  0.
         24    2    4    4    0    0  0.50625182245E+03 -0.40734111840E+03 -0.27907292808E+03  0.71167594884E+03  0.79895322147E+02 0.  0.
         11    1    3    3    0    0 -0.15936759817E+02  0.27623850224E+02 -0.41877210658E+02  0.52637991861E+02  0.00000000000E+00 0.  1.
        -11    1    3    3    0    0 -0.27710757500E+03  0.38813311217E+03 -0.13807857619E+04  0.14608234805E+04  0.00000000000E+00 0. -1.
          2    1    6    6  502    0  0.42011200542E+02 -0.54781019225E+02 -0.50462942102E+02  0.85512628096E+02  0.00000000000E+00 0. -1.
          1    1    5    5  503    0 -0.42666808549E+01  0.14418049372E+02 -0.17508021026E+02  0.23078464278E+02  0.00000000000E+00 0. -1.
         -2    1    5    5    0  503 -0.20894080678E+03 -0.22833893369E+02 -0.59571058938E+03  0.63170305818E+03  0.00000000000E+00 0.  1.
         -1    1    6    6    0  502  0.46424062191E+03 -0.35256009917E+03 -0.22860998598E+03  0.62616332075E+03  0.00000000000E+00 0.  1.
<mgrwt>
<rscale>  0 0.17131605E+04</rscale>
<asrwt>0</asrwt>
<pdfrwt beam="1">  1        2 0.39960566E+00 0.17131605E+04</pdfrwt>
<pdfrwt beam="2">  1       -2 0.43458802E-01 0.17131605E+04</pdfrwt>
<totfact> 0.14604037E+01</totfact>
</mgrwt>
</event>
<event>
12    1  0.1960998E-007  0.2131020E+04  0.7818608E-02  0.8547701E-01
         -1   -1    0    0    0  501 -0.00000000000E+00  0.00000000000E+00  0.81471708033E+03  0.81471708033E+03  0.00000000000E+00 0.  1.
          1   -1    0    0  501    0  0.00000000000E+00 -0.00000000000E+00 -0.13935034939E+04  0.13935034939E+04  0.00000000000E+00 0. -1.
         23    2    1    2    0    0  0.23474176853E+03 -0.70945951815E+03 -0.70647468506E+03  0.10322796833E+04  0.89768357883E+02 0.  0.
        254    2    1    2    0    0 -0.23474176853E+03  0.70945951815E+03  0.12768827153E+03  0.11759408909E+04  0.89894169915E+03 0.  0.
        -24    2    4    4    0    0 -0.53235229875E+03  0.28613353501E+03  0.21183413314E+03  0.64540724408E+03  0.80033998411E+02 0.  0.
         24    2    4    4    0    0  0.29761053022E+03  0.42332598313E+03 -0.84145861609E+02  0.53053364684E+03  0.81292734681E+02 0.  0.
         13    1    3    3    0    0  0.16336387700E+03 -0.46355474579E+03 -0.51998962101E+03  0.71551377668E+03  0.00000000000E+00 0. -1.
        -13    1    3    3    0    0  0.71377891529E+02 -0.24590477235E+03 -0.18648506405E+03  0.31676590659E+03  0.00000000000E+00 0.  1.
          2    1    6    6  502    0  0.22897690974E+03  0.27310119332E+03 -0.80313154937E+02  0.36532846843E+03  0.00000000000E+00 0. -1.
          1    1    5    5  503    0 -0.53472423037E+03  0.28714934418E+03  0.21003319582E+03  0.64226061046E+03  0.00000000000E+00 0. -1.
         -2    1    5    5    0  503  0.23719316221E+01 -0.10158091607E+01  0.18009373219E+01  0.31466336152E+01  0.00000000000E+00 0.  1.
         -1    1    6    6    0  502  0.68633620476E+02  0.15022478981E+03 -0.38327066719E+01  0.16520517841E+03  0.00000000000E+00 0.  1.
<mgrwt>
<rscale>  0 0.21310196E+04</rscale>
<asrwt>0</asrwt>
<pdfrwt beam="1">  1        1 0.21438515E+00 0.21310196E+04</pdfrwt>
<pdfrwt beam="2">  1       -1 0.12534109E+00 0.21310196E+04</pdfrwt>
<totfact> 0.39584626E+00</totfact>
</mgrwt>
</event>
<event>
12    1  0.1960998E-007  0.1608457E+04  0.7818608E-02  0.8815369E-01
          1   -1    0    0  501    0  0.00000000000E+00  0.00000000000E+00  0.24450082168E+04  0.24450082168E+04  0.00000000000E+00 0. -1.
         -1   -1    0    0    0  501 -0.00000000000E+00 -0.00000000000E+00 -0.26453237749E+03  0.26453237749E+03  0.00000000000E+00 0.  1.
         23    2    1    2    0    0 -0.52154843983E+03  0.14879102474E+03  0.63417197661E+03  0.83996164135E+03  0.95968322336E+02 0.  0.
        254    2    1    2    0    0  0.52154843983E+03 -0.14879102474E+03  0.15463038627E+04  0.18695789530E+04  0.90006570947E+03 0.  0.
        -24    2    4    4    0    0  0.46827727376E+02 -0.79268189590E+02  0.13329987133E+04  0.13383880905E+04  0.76946924177E+02 0.  0.
         24    2    4    4    0    0  0.47472071246E+03 -0.69522835154E+02  0.21330514940E+03  0.53119086247E+03  0.80445423500E+02 0.  0.
         11    1    3    3    0    0 -0.45827819346E+03  0.15636777872E+03  0.53041173596E+03  0.71819662661E+03  0.00000000000E+00 0.  1.
        -11    1    3    3    0    0 -0.63270246370E+02 -0.75767539781E+01  0.10376024065E+03  0.12176501474E+03  0.00000000000E+00 0. -1.
          4    1    6    6  502    0  0.14810879132E+03 -0.76862991282E+01  0.29050387739E+02  0.15112649764E+03  0.00000000000E+00 0. -1.
          3    1    5    5  503    0  0.23936519211E+02 -0.26571210862E+02  0.15848400194E+03  0.16246896648E+03  0.00000000000E+00 0. -1.
         -4    1    5    5    0  503  0.22891208165E+02 -0.52696978728E+02  0.11745147114E+04  0.11759191240E+04  0.00000000000E+00 0.  1.
         -3    1    6    6    0  502  0.32661192114E+03 -0.61836536026E+02  0.18425476166E+03  0.38006436483E+03  0.00000000000E+00 0.  1.
<mgrwt>
<rscale>  0 0.16084574E+04</rscale>
<asrwt>0</asrwt>
<pdfrwt beam="1">  1        1 0.37615510E+00 0.16084574E+04</pdfrwt>
<pdfrwt beam="2">  1       -1 0.40697290E-01 0.16084574E+04</pdfrwt>
<totfact> 0.83826493E+00</totfact>
</mgrwt>
</event>
<event>
12    1  0.1960998E-007  0.2762829E+04  0.7818608E-02  0.8314902E-01
         -1   -1    0    0    0  501 -0.00000000000E+00  0.00000000000E+00  0.65744023275E+03  0.65744023275E+03  0.00000000000E+00 0.  1.
          1   -1    0    0  501    0  0.00000000000E+00 -0.00000000000E+00 -0.29026306153E+04  0.29026306153E+04  0.00000000000E+00 0. -1.
         23    2    1    2    0    0 -0.92083554799E+03 -0.59726831617E+03 -0.28126380294E+03  0.11367831675E+04  0.92190536931E+02 0.  0.
        254    2    1    2    0    0  0.92083554799E+03  0.59726831617E+03 -0.19639265796E+04  0.24232876806E+04  0.90035994176E+03 0.  0.
        -24    2    4    4    0    0  0.31844945142E+03  0.67645563952E+03 -0.14057567326E+04  0.15943406826E+04  0.82267464298E+02 0.  0.
         24    2    4    4    0    0  0.60238609658E+03 -0.79187323347E+02 -0.55816984702E+03  0.82894699795E+03  0.80373538906E+02 0.  0.
         13    1    3    3    0    0 -0.43523455041E+03 -0.22769334053E+03 -0.12641189226E+03  0.50720147643E+03  0.00000000000E+00 0.  1.
        -13    1    3    3    0    0 -0.48560099758E+03 -0.36957497564E+03 -0.15485191068E+03  0.62958169106E+03  0.00000000000E+00 0. -1.
          2    1    6    6  502    0  0.40865781088E+03 -0.90233148664E+02 -0.39366186295E+03  0.57455451425E+03  0.00000000000E+00 0. -1.
          3    1    5    5  503    0  0.16861944431E+03  0.43854376284E+03 -0.83584104491E+03  0.95884482648E+03  0.00000000000E+00 0. -1.
         -4    1    5    5    0  503  0.14983000711E+03  0.23791187668E+03 -0.56991568769E+03  0.63549585614E+03  0.00000000000E+00 0.  1.
         -1    1    6    6    0  502  0.19372828570E+03  0.11045825317E+02 -0.16450798408E+03  0.25439248370E+03  0.00000000000E+00 0.  1.
<mgrwt>
<rscale>  0 0.27628291E+04</rscale>
<asrwt>0</asrwt>
<pdfrwt beam="1">  1        1 0.44655855E+00 0.27628291E+04</pdfrwt>
<pdfrwt beam="2">  1       -1 0.10114465E+00 0.27628291E+04</pdfrwt>
<totfact> 0.56690188E-01</totfact>
</mgrwt>
</event>
<event>
12    1  0.1960998E-007  0.2251019E+04  0.7818608E-02  0.8497488E-01
          2   -1    0    0  501    0  0.00000000000E+00  0.00000000000E+00  0.11350950846E+04  0.11350950846E+04  0.00000000000E+00 0.  1.
         -2   -1    0    0    0  501 -0.00000000000E+00 -0.00000000000E+00 -0.11160048203E+04  0.11160048203E+04  0.00000000000E+00 0. -1.
         23    2    1    2    0    0  0.41327393762E+03 -0.46894204029E+03  0.71558147916E+03  0.95432137708E+03  0.89277392195E+02 0.  0.
        254    2    1    2    0    0 -0.41327393762E+03  0.46894204029E+03 -0.69649121483E+03  0.12967785278E+04  0.89768176611E+03 0.  0.
        -24    2    4    4    0    0  0.74068147928E+02  0.53899165086E+03 -0.17897919201E+03  0.57806441112E+03  0.78274018687E+02 0.  0.
         24    2    4    4    0    0 -0.48734208555E+03 -0.70049610571E+02 -0.51751202281E+03  0.71871411669E+03  0.79511203520E+02 0.  0.
         11    1    3    3    0    0  0.74909943162E+02 -0.14343302731E+03  0.17717165753E+03  0.23994651309E+03  0.00000000000E+00 0. -1.
        -11    1    3    3    0    0  0.33836399446E+03 -0.32550901297E+03  0.53840982163E+03  0.71437486399E+03  0.00000000000E+00 0.  1.
          4    1    6    6  502    0 -0.32416134631E+03 -0.83373196462E+02 -0.33581605029E+03  0.47413509463E+03  0.00000000000E+00 0. -1.
          3    1    5    5  503    0  0.79032416832E+02  0.53428103375E+03 -0.18284340381E+03  0.57020527554E+03  0.00000000000E+00 0. -1.
         -4    1    5    5    0  503 -0.49642689037E+01  0.47106171032E+01  0.38642117979E+01  0.78591355797E+01  0.00000000000E+00 0.  1.
         -3    1    6    6    0  502 -0.16318073925E+03  0.13323585891E+02 -0.18169597253E+03  0.24457902206E+03  0.00000000000E+00 0.  1.
<mgrwt>
<rscale>  0 0.22510190E+04</rscale>
<asrwt>0</asrwt>
<pdfrwt beam="1">  1        2 0.17463001E+00 0.22510190E+04</pdfrwt>
<pdfrwt beam="2">  1       -2 0.17169305E+00 0.22510190E+04</pdfrwt>
<totfact> 0.39119944E+00</totfact>
</mgrwt>
</event>
<event>
12    1  0.1960998E-007  0.1356606E+04  0.7818608E-02  0.8985842E-01
          2   -1    0    0  501    0  0.00000000000E+00  0.00000000000E+00  0.86095847096E+03  0.86095847096E+03  0.00000000000E+00 0. -1.
         -2   -1    0    0    0  501 -0.00000000000E+00 -0.00000000000E+00 -0.53439884305E+03  0.53439884305E+03  0.00000000000E+00 0.  1.
         23    2    1    2    0    0 -0.12929440716E+03  0.30620769065E+03  0.26437483490E+03  0.43449714482E+03  0.91725252787E+02 0.  0.
        254    2    1    2    0    0  0.12929440716E+03 -0.30620769065E+03  0.62184793014E+02  0.96086016920E+03  0.89939152916E+03 0.  0.
        -24    2    4    4    0    0  0.38417062161E+03 -0.45349347265E+03 -0.10991769178E+03  0.61005867820E+03  0.82742344863E+02 0.  0.
         24    2    4    4    0    0 -0.25487621446E+03  0.14728578200E+03  0.17210248480E+03  0.35080149100E+03  0.82385887973E+02 0.  0.
         13    1    3    3    0    0 -0.10060282444E+03  0.23666886363E+03  0.24850902095E+03  0.35761685194E+03  0.00000000000E+00 0. -1.
        -13    1    3    3    0    0 -0.28691582721E+02  0.69538827014E+02  0.15865813947E+02  0.76880292883E+02  0.00000000000E+00 0.  1.
          2    1    6    6  502    0 -0.22649190629E+03  0.15664152813E+03  0.16051111397E+03  0.31874593277E+03  0.00000000000E+00 0. -1.
          3    1    5    5  503    0  0.21373895687E+03 -0.31209860879E+03 -0.59202140583E+02  0.38287697338E+03  0.00000000000E+00 0. -1.
         -4    1    5    5    0  503  0.17043166474E+03 -0.14139486386E+03 -0.50715551200E+02  0.22718170482E+03  0.00000000000E+00 0.  1.
         -1    1    6    6    0  502 -0.28384308161E+02 -0.93557461273E+01  0.11591370828E+02  0.32055558224E+02  0.00000000000E+00 0.  1.
<mgrwt>
<rscale>  0 0.13566064E+04</rscale>
<asrwt>0</asrwt>
<pdfrwt beam="1">  1        2 0.13245515E+00 0.13566064E+04</pdfrwt>
<pdfrwt beam="2">  1       -2 0.82215207E-01 0.13566064E+04</pdfrwt>
<totfact> 0.39584248E+01</totfact>
</mgrwt>
</event>
<event>
12    1  0.1960998E-007  0.1353021E+04  0.7818608E-02  0.8988544E-01
         -2   -1    0    0    0  501 -0.00000000000E+00  0.00000000000E+00  0.35037421924E+03  0.35037421924E+03  0.00000000000E+00 0.  1.
          2   -1    0    0  501    0  0.00000000000E+00 -0.00000000000E+00 -0.13062219861E+04  0.13062219861E+04  0.00000000000E+00 0. -1.
         23    2    1    2    0    0 -0.16949179550E+03 -0.28232991455E+03 -0.51238788632E+03  0.61572576976E+03  0.90217670755E+02 0.  0.
        254    2    1    2    0    0  0.16949179550E+03  0.28232991455E+03 -0.44345988051E+03  0.10408704355E+04  0.88222273184E+03 0.  0.
        -24    2    4    4    0    0  0.21771892934E+03  0.53196122247E+03 -0.50306743976E+03  0.76798324120E+03  0.79606126785E+02 0.  0.
         24    2    4    4    0    0 -0.48227133839E+02 -0.24963130792E+03  0.59607559251E+02  0.27288719434E+03  0.79200463259E+02 0.  0.
         11    1    3    3    0    0 -0.15390689191E+03 -0.20365736940E+03 -0.33609269814E+03  0.42204497063E+03  0.00000000000E+00 0. -1.
        -11    1    3    3    0    0 -0.15584903587E+02 -0.78672545144E+02 -0.17629518817E+03  0.19368079913E+03  0.00000000000E+00 0.  1.
          2    1    6    6  502    0 -0.60818535335E+02 -0.20600738704E+03  0.70724526206E+02  0.22614131945E+03  0.00000000000E+00 0. -1.
          1    1    5    5  503    0  0.95488539233E+02  0.15625732721E+03 -0.19011816372E+03  0.26396842540E+03  0.00000000000E+00 0. -1.
         -2    1    5    5    0  503  0.12223039010E+03  0.37570389525E+03 -0.31294927605E+03  0.50401481581E+03  0.00000000000E+00 0.  1.
         -3    1    6    6    0  502  0.12591401496E+02 -0.43623920882E+02 -0.11116966955E+02  0.46745874887E+02  0.00000000000E+00 0.  1.
<mgrwt>
<rscale>  0 0.13530211E+04</rscale>
<asrwt>0</asrwt>
<pdfrwt beam="1">  1        2 0.20095723E+00 0.13530211E+04</pdfrwt>
<pdfrwt beam="2">  1       -2 0.53903726E-01 0.13530211E+04</pdfrwt>
<totfact> 0.51890937E+01</totfact>
</mgrwt>
</event>
<event>
12    1  0.1960998E-007  0.1292676E+04  0.7818608E-02  0.9035393E-01
         -1   -1    0    0    0  501 -0.00000000000E+00  0.00000000000E+00  0.46651628311E+03  0.46651628311E+03  0.00000000000E+00 0.  1.
          1   -1    0    0  501    0  0.00000000000E+00 -0.00000000000E+00 -0.89547363336E+03  0.89547363336E+03  0.00000000000E+00 0. -1.
         23    2    1    2    0    0 -0.95756036700E+02  0.10055558456E+03  0.19656688266E+03  0.25750597530E+03  0.91597728187E+02 0.  0.
        254    2    1    2    0    0  0.95756036700E+02 -0.10055558456E+03 -0.62552423291E+03  0.11044839412E+04  0.89962412494E+03 0.  0.
        -24    2    4    4    0    0  0.13671609965E+03  0.32597727135E+03 -0.55422849961E+03  0.66275916065E+03  0.84427494948E+02 0.  0.
         24    2    4    4    0    0 -0.40960062947E+02 -0.42653285591E+03 -0.71295733299E+02  0.44172478051E+03  0.80185386495E+02 0.  0.
         13    1    3    3    0    0 -0.80052727916E+02  0.50985877575E+02  0.62323109820E+02  0.11354368752E+03  0.00000000000E+00 0. -1.
        -13    1    3    3    0    0 -0.15703308784E+02  0.49569706982E+02  0.13424377284E+03  0.14396228778E+03  0.00000000000E+00 0.  1.
          4    1    6    6  502    0 -0.33672119119E+02 -0.41645343019E+03 -0.81438487730E+02  0.42567534390E+03  0.00000000000E+00 0. -1.
          1    1    5    5  503    0  0.42788425060E+02  0.15699019995E+03 -0.18805538375E+03  0.24867971279E+03  0.00000000000E+00 0. -1.
         -2    1    5    5    0  503  0.93927674587E+02  0.16898707140E+03 -0.36617311586E+03  0.41407944785E+03  0.00000000000E+00 0.  1.
         -1    1    6    6    0  502 -0.72879438276E+01 -0.10079425717E+02  0.10142754432E+02  0.16049436609E+02  0.00000000000E+00 0.  1.
<mgrwt>
<rscale>  0 0.12926763E+04</rscale>
<asrwt>0</asrwt>
<pdfrwt beam="1">  1        1 0.13776517E+00 0.12926763E+04</pdfrwt>
<pdfrwt beam="2">  1       -1 0.71771736E-01 0.12926763E+04</pdfrwt>
<totfact> 0.35363074E+01</totfact>
</mgrwt>
</event>
<event>
12    1  0.1960998E-007  0.2461891E+04  0.7818608E-02  0.8416689E-01
          2   -1    0    0  501    0  0.00000000000E+00  0.00000000000E+00  0.36751827699E+03  0.36751827699E+03  0.00000000000E+00 0. -1.
         -2   -1    0    0    0  501 -0.00000000000E+00 -0.00000000000E+00 -0.41228622330E+04  0.41228622330E+04  0.00000000000E+00 0.  1.
         23    2    1    2    0    0  0.64597936055E+03  0.83193307804E+03 -0.13502627328E+04  0.17149378944E+04  0.91654532625E+02 0.  0.
        254    2    1    2    0    0 -0.64597936055E+03 -0.83193307804E+03 -0.24050812232E+04  0.27754426156E+04  0.89959104140E+03 0.  0.
        -24    2    4    4    0    0 -0.66904529678E+03 -0.17590551002E+03 -0.15056615919E+04  0.16590435563E+04  0.82730493500E+02 0.  0.
         24    2    4    4    0    0  0.23065936221E+02 -0.65602756802E+03 -0.89941963128E+03  0.11163990594E+04  0.80541785411E+02 0.  0.
         11    1    3    3    0    0  0.32701971412E+03  0.35227796627E+03 -0.64229419809E+03  0.80223655853E+03  0.00000000000E+00 0. -1.
        -11    1    3    3    0    0  0.31895964644E+03  0.47965511177E+03 -0.70796853473E+03  0.91270133585E+03  0.00000000000E+00 0.  1.
          4    1    6    6  502    0  0.23902984902E+01 -0.45979562436E+03 -0.68494389665E+03  0.82496416362E+03  0.00000000000E+00 0. -1.
          3    1    5    5  503    0 -0.47570164362E+03 -0.13931151674E+03 -0.11565287797E+04  0.12582760312E+04  0.00000000000E+00 0. -1.
         -4    1    5    5    0  503 -0.19334365316E+03 -0.36593993275E+02 -0.34913281227E+03  0.40076752509E+03  0.00000000000E+00 0.  1.
         -3    1    6    6    0  502  0.20675637730E+02 -0.19623194367E+03 -0.21447573464E+03  0.29143489575E+03  0.00000000000E+00 0.  1.
<mgrwt>
<rscale>  0 0.24618913E+04</rscale>
<asrwt>0</asrwt>
<pdfrwt beam="1">  1        2 0.56541276E-01 0.24618913E+04</pdfrwt>
<pdfrwt beam="2">  1       -2 0.63428647E+00 0.24618913E+04</pdfrwt>
<totfact> 0.29211119E-02</totfact>
</mgrwt>
</event>
<event>
12    1  0.1960998E-007  0.2467953E+04  0.7818608E-02  0.8414492E-01
          2   -1    0    0  501    0  0.00000000000E+00  0.00000000000E+00  0.18300837094E+04  0.18300837094E+04  0.00000000000E+00 0. -1.
         -2   -1    0    0    0  501 -0.00000000000E+00 -0.00000000000E+00 -0.83203741370E+03  0.83203741370E+03  0.00000000000E+00 0.  1.
         23    2    1    2    0    0  0.25727558497E+03 -0.10367824847E+04  0.60640537899E+03  0.12316363768E+04  0.89955732212E+02 0.  0.
        254    2    1    2    0    0 -0.25727558497E+03  0.10367824847E+04  0.39164091674E+03  0.14304847463E+04  0.86706133261E+03 0.  0.
        -24    2    4    4    0    0 -0.21552179897E+03  0.34225108075E+03 -0.24872740363E+03  0.48130387179E+03  0.78756889088E+02 0.  0.
         24    2    4    4    0    0 -0.41753785993E+02  0.69453140398E+03  0.64036832037E+03  0.94918087452E+03  0.82191830897E+02 0.  0.
         11    1    3    3    0    0  0.14996466313E+03 -0.47249564870E+03  0.31739041188E+03  0.58862399864E+03  0.00000000000E+00 0.  1.
        -11    1    3    3    0    0  0.10731092183E+03 -0.56428683604E+03  0.28901496711E+03  0.64301237817E+03  0.00000000000E+00 0. -1.
          2    1    6    6  502    0 -0.30064501344E+02  0.32960381066E+03  0.25082791139E+03  0.41527964960E+03  0.00000000000E+00 0. -1.
          1    1    5    5  503    0 -0.79037818077E+02  0.83575729877E+02 -0.10358777191E+03  0.15479762853E+03  0.00000000000E+00 0. -1.
         -2    1    5    5    0  503 -0.13648398090E+03  0.25867535087E+03 -0.14513963172E+03  0.32650624326E+03  0.00000000000E+00 0.  1.
         -1    1    6    6    0  502 -0.11689284649E+02  0.36492759333E+03  0.38954040898E+03  0.53390122492E+03  0.00000000000E+00 0.  1.
<mgrwt>
<rscale>  0 0.24679531E+04</rscale>
<asrwt>0</asrwt>
<pdfrwt beam="1">  1        2 0.28155134E+00 0.24679531E+04</pdfrwt>
<pdfrwt beam="2">  1       -2 0.12800576E+00 0.24679531E+04</pdfrwt>
<totfact> 0.33536440E+00</totfact>
</mgrwt>
</event>
<event>
12    1  0.1960998E-007  0.4215561E+04  0.7818608E-02  0.7962419E-01
         -1   -1    0    0    0  501 -0.00000000000E+00  0.00000000000E+00  0.18689558801E+04  0.18689558801E+04  0.00000000000E+00 0.  1.
          1   -1    0    0  501    0  0.00000000000E+00 -0.00000000000E+00 -0.23771230828E+04  0.23771230828E+04  0.00000000000E+00 0. -1.
         23    2    1    2    0    0  0.81647359621E+03  0.14258082537E+04  0.92533239098E+03  0.18878946439E+04  0.91366530856E+02 0.  0.
        254    2    1    2    0    0 -0.81647359621E+03 -0.14258082537E+04 -0.14334995937E+04  0.23581843189E+04  0.89808345226E+03 0.  0.
        -24    2    4    4    0    0 -0.40869665293E+03 -0.12784255454E+04 -0.13574736940E+04  0.19108033434E+04  0.83843651376E+02 0.  0.
         24    2    4    4    0    0 -0.40777694329E+03 -0.14738270833E+03 -0.76025899706E+02  0.44738097557E+03  0.79787854248E+02 0.  0.
         11    1    3    3    0    0  0.30304236165E+03  0.45344929616E+03  0.33076693330E+03  0.63785398118E+03  0.00000000000E+00 0. -1.
        -11    1    3    3    0    0  0.51343123456E+03  0.97235895759E+03  0.59456545767E+03  0.12500406627E+04  0.00000000000E+00 0.  1.
          2    1    6    6  502    0 -0.35092807284E+03 -0.12366370992E+03 -0.92922064712E+02  0.38350715191E+03  0.00000000000E+00 0. -1.
          3    1    5    5  503    0 -0.33852755820E+03 -0.11371252221E+04 -0.12156315108E+04  0.16986508319E+04  0.00000000000E+00 0. -1.
         -4    1    5    5    0  503 -0.70169094724E+02 -0.14130032332E+03 -0.14184218315E+03  0.21215251152E+03  0.00000000000E+00 0.  1.
         -1    1    6    6    0  502 -0.56848870450E+02 -0.23718998414E+02  0.16896165007E+02  0.63873823661E+02  0.00000000000E+00 0.  1.
<mgrwt>
<rscale>  0 0.42155608E+04</rscale>
<asrwt>0</asrwt>
<pdfrwt beam="1">  1        1 0.36571124E+00 0.42155608E+04</pdfrwt>
<pdfrwt beam="2">  1       -1 0.28753167E+00 0.42155608E+04</pdfrwt>
<totfact> 0.50397686E-02</totfact>
</mgrwt>
</event>
<event>
12    1  0.1960998E-007  0.1529935E+04  0.7818608E-02  0.8864787E-01
         -1   -1    0    0    0  501 -0.00000000000E+00  0.00000000000E+00  0.94014853380E+03  0.94014853380E+03  0.00000000000E+00 0.  1.
          1   -1    0    0  501    0  0.00000000000E+00 -0.00000000000E+00 -0.62242823633E+03  0.62242823633E+03  0.00000000000E+00 0. -1.
         23    2    1    2    0    0 -0.42071040076E+03  0.18642354605E+03 -0.80269163913E+02  0.47568403085E+03  0.89895376423E+02 0.  0.
        254    2    1    2    0    0  0.42071040076E+03 -0.18642354605E+03  0.39798946138E+03  0.10868927393E+04  0.90066044407E+03 0.  0.
        -24    2    4    4    0    0  0.23463758284E+03  0.31999537214E+03  0.35712733778E+03  0.53999538355E+03  0.81260355618E+02 0.  0.
         24    2    4    4    0    0  0.18607281792E+03 -0.50641891819E+03  0.40862123605E+02  0.54689735574E+03  0.79647914634E+02 0.  0.
         13    1    3    3    0    0 -0.13249476484E+03  0.83389603124E+02 -0.64134780933E+02  0.16918025518E+03  0.00000000000E+00 0. -1.
        -13    1    3    3    0    0 -0.28821563592E+03  0.10303394293E+03 -0.16134382980E+02  0.30650377566E+03  0.00000000000E+00 0.  1.
          2    1    6    6  502    0  0.30912984092E+02 -0.11165084002E+03  0.40515923082E+02  0.12273166945E+03  0.00000000000E+00 0. -1.
          1    1    5    5  503    0  0.58856505005E+02  0.38801500197E+02  0.39515225826E+02  0.80815206929E+02  0.00000000000E+00 0. -1.
         -2    1    5    5    0  503  0.17578107783E+03  0.28119387194E+03  0.31761211195E+03  0.45918017662E+03  0.00000000000E+00 0.  1.
         -1    1    6    6    0  502  0.15515983382E+03 -0.39476807817E+03  0.34620052261E+00  0.42416568629E+03  0.00000000000E+00 0.  1.
<mgrwt>
<rscale>  0 0.15299346E+04</rscale>
<asrwt>0</asrwt>
<pdfrwt beam="1">  1        1 0.95758190E-01 0.15299346E+04</pdfrwt>
<pdfrwt beam="2">  1       -1 0.14463824E+00 0.15299346E+04</pdfrwt>
<totfact> 0.12051850E+01</totfact>
</mgrwt>
</event>
<event>
12    1  0.1960998E-007  0.2095186E+04  0.7818608E-02  0.8563367E-01
         -2   -1    0    0    0  501 -0.00000000000E+00  0.00000000000E+00  0.51553825172E+03  0.51553825172E+03  0.00000000000E+00 0.  1.
          2   -1    0    0  501    0  0.00000000000E+00 -0.00000000000E+00 -0.21287479449E+04  0.21287479449E+04  0.00000000000E+00 0. -1.
         23    2    1    2    0    0 -0.24607248965E+03  0.79358753263E+03 -0.43414463904E+03  0.94442477896E+03  0.11455895157E+03 0.  0.
        254    2    1    2    0    0  0.24607248965E+03 -0.79358753263E+03 -0.11790650541E+04  0.16998614176E+04  0.89944515965E+03 0.  0.
        -24    2    4    4    0    0 -0.30438383598E+03 -0.16971700179E+03 -0.53995031983E+03  0.64765980324E+03  0.80395849060E+02 0.  0.
         24    2    4    4    0    0  0.55045632563E+03 -0.62387053085E+03 -0.63911473430E+03  0.10522016144E+04  0.80274454674E+02 0.  0.
         11    1    3    3    0    0 -0.50358007066E+02  0.12967191052E+03 -0.27981037376E+02  0.14189317005E+03  0.00000000000E+00 0.  1.
        -11    1    3    3    0    0 -0.19571448258E+03  0.66391562211E+03 -0.40616360167E+03  0.80253160891E+03  0.00000000000E+00 0. -1.
          4    1    6    6  502    0  0.53007962605E+03 -0.57780000975E+03 -0.58520338635E+03  0.97841722420E+03  0.00000000000E+00 0. -1.
          3    1    5    5  503    0 -0.26730559857E+03 -0.16283533119E+03 -0.43319517391E+03  0.53443960071E+03  0.00000000000E+00 0. -1.
         -4    1    5    5    0  503 -0.37078237413E+02 -0.68816705937E+01 -0.10675514593E+03  0.11322020253E+03  0.00000000000E+00 0.  1.
         -3    1    6    6    0  502  0.20376699581E+02 -0.46070521093E+02 -0.53911347952E+02  0.73784390203E+02  0.00000000000E+00 0.  1.
<mgrwt>
<rscale>  0 0.20951859E+04</rscale>
<asrwt>0</asrwt>
<pdfrwt beam="1">  1        2 0.32749969E+00 0.20951859E+04</pdfrwt>
<pdfrwt beam="2">  1       -2 0.79313577E-01 0.20951859E+04</pdfrwt>
<totfact> 0.73561922E+00</totfact>
</mgrwt>
</event>
<event>
12    1  0.1960998E-007  0.1874546E+04  0.7818608E-02  0.8667631E-01
         -2   -1    0    0    0  501 -0.00000000000E+00  0.00000000000E+00  0.12094962034E+04  0.12094962034E+04  0.00000000000E+00 0. -1.
          2   -1    0    0  501    0  0.00000000000E+00 -0.00000000000E+00 -0.72631928544E+03  0.72631928544E+03  0.00000000000E+00 0.  1.
         23    2    1    2    0    0  0.65742836483E+03  0.27777066393E+03  0.26177892378E+03  0.76540124423E+03  0.89119375618E+02 0.  0.
        254    2    1    2    0    0 -0.65742836483E+03 -0.27777066393E+03  0.22139799414E+03  0.11704142446E+04  0.90082397584E+03 0.  0.
        -24    2    4    4    0    0 -0.86065787847E+03 -0.24701861959E+03  0.28084977299E+03  0.94190914782E+03  0.81031262890E+02 0.  0.
         24    2    4    4    0    0  0.20322951363E+03 -0.30752044336E+02 -0.59451778851E+02  0.22850509674E+03  0.80200634576E+02 0.  0.
         11    1    3    3    0    0  0.32009273055E+03  0.11436805943E+03  0.16728984031E+03  0.37884733051E+03  0.00000000000E+00 0. -1.
        -11    1    3    3    0    0  0.33733563428E+03  0.16340260450E+03  0.94489083471E+02  0.38655391372E+03  0.00000000000E+00 0.  1.
          2    1    6    6  502    0  0.29363932676E+02 -0.36008200863E+02 -0.83358873510E+01  0.47205064236E+02  0.00000000000E+00 0. -1.
          3    1    5    5  503    0 -0.15468527677E+03 -0.16467386629E+02  0.33397566434E+02  0.15910407637E+03  0.00000000000E+00 0. -1.
         -4    1    5    5    0  503 -0.70597260169E+03 -0.23055123296E+03  0.24745220655E+03  0.78280507145E+03  0.00000000000E+00 0.  1.
         -1    1    6    6    0  502  0.17386558096E+03  0.52561565270E+01 -0.51115891500E+02  0.18130003251E+03  0.00000000000E+00 0.  1.
<mgrwt>
<rscale>  0 0.18745457E+04</rscale>
<asrwt>0</asrwt>
<pdfrwt beam="1">  1        2 0.11174143E+00 0.18745457E+04</pdfrwt>
<pdfrwt beam="2">  1       -2 0.18607634E+00 0.18745457E+04</pdfrwt>
<totfact> 0.60394301E+00</totfact>
</mgrwt>
</event>
<event>
12    1  0.1960998E-007  0.1923013E+04  0.7818608E-02  0.8643485E-01
         -2   -1    0    0    0  501 -0.00000000000E+00  0.00000000000E+00  0.54467530478E+03  0.54467530478E+03  0.00000000000E+00 0.  1.
          2   -1    0    0  501    0  0.00000000000E+00 -0.00000000000E+00 -0.16973319501E+04  0.16973319501E+04  0.00000000000E+00 0. -1.
         23    2    1    2    0    0  0.25647731440E+03  0.60275276321E+03 -0.87067973299E+03  0.10933784789E+04  0.91114182383E+02 0.  0.
        254    2    1    2    0    0 -0.25647731440E+03 -0.60275276321E+03 -0.28197691237E+03  0.11486287761E+04  0.90041411568E+03 0.  0.
        -24    2    4    4    0    0 -0.24942473677E+03 -0.19876559230E+03  0.29339329939E+03  0.44094656356E+03  0.81448043572E+02 0.  0.
         24    2    4    4    0    0 -0.70525776387E+01 -0.40398717091E+03 -0.57537021176E+03  0.70768221249E+03  0.80671309561E+02 0.  0.
         13    1    3    3    0    0  0.19247492485E+03  0.46767917739E+03 -0.73033963571E+03  0.88835037747E+03  0.00000000000E+00 0. -1.
        -13    1    3    3    0    0  0.64002389553E+02  0.13507358582E+03 -0.14034009728E+03  0.20502810139E+03  0.00000000000E+00 0.  1.
          2    1    6    6  502    0  0.40333854145E+01 -0.32140262689E+02 -0.93287899530E+02  0.98751693061E+02  0.00000000000E+00 0. -1.
          3    1    5    5  503    0 -0.50408159512E+02 -0.66044512840E+02  0.39105155462E+02  0.91826321964E+02  0.00000000000E+00 0. -1.
         -4    1    5    5    0  503 -0.19901657725E+03 -0.13272107946E+03  0.25428814393E+03  0.34912024160E+03  0.00000000000E+00 0.  1.
         -1    1    6    6    0  502 -0.11085963053E+02 -0.37184690822E+03 -0.48208231223E+03  0.60893051943E+03  0.00000000000E+00 0.  1.
<mgrwt>
<rscale>  0 0.19230130E+04</rscale>
<asrwt>0</asrwt>
<pdfrwt beam="1">  1        2 0.26112799E+00 0.19230130E+04</pdfrwt>
<pdfrwt beam="2">  1       -2 0.83796201E-01 0.19230130E+04</pdfrwt>
<totfact> 0.11449540E+01</totfact>
</mgrwt>
</event>
<event>
12    1  0.1960998E-007  0.2302164E+04  0.7818608E-02  0.8477068E-01
         -2   -1    0    0    0  501 -0.00000000000E+00  0.00000000000E+00  0.26052430164E+03  0.26052430164E+03  0.00000000000E+00 0. -1.
          2   -1    0    0  501    0  0.00000000000E+00 -0.00000000000E+00 -0.50858603609E+04  0.50858603609E+04  0.00000000000E+00 0.  1.
         23    2    1    2    0    0  0.19846532202E+03  0.92252736551E+03 -0.14910808591E+04  0.17669483626E+04  0.91319020249E+02 0.  0.
        254    2    1    2    0    0 -0.19846532202E+03 -0.92252736551E+03 -0.33342552002E+04  0.35794363000E+04  0.89702913085E+03 0.  0.
        -24    2    4    4    0    0  0.18445139153E+03  0.81316007637E+02 -0.42502225047E+03  0.47715854576E+03  0.80010970880E+02 0.  0.
         24    2    4    4    0    0 -0.38291671355E+03 -0.10038433731E+04 -0.29092329497E+04  0.31022777542E+04  0.78512300800E+02 0.  0.
         13    1    3    3    0    0  0.47113284016E+02  0.37595055206E+03 -0.65411041778E+03  0.75592256070E+03  0.00000000000E+00 0.  1.
        -13    1    3    3    0    0  0.15135203800E+03  0.54657681345E+03 -0.83697044134E+03  0.10110258019E+04  0.00000000000E+00 0. -1.
          4    1    6    6  502    0 -0.38688615608E+03 -0.99351655001E+03 -0.28806619456E+04  0.30716395097E+04  0.00000000000E+00 0. -1.
          1    1    5    5  503    0  0.17566374861E+03  0.72951761435E+02 -0.42432466495E+03  0.46500659496E+03  0.00000000000E+00 0. -1.
         -2    1    5    5    0  503  0.87876429242E+01  0.83642462021E+01 -0.69758552010E+00  0.12151950800E+02  0.00000000000E+00 0.  1.
         -3    1    6    6    0  502  0.39694425277E+01 -0.10326823130E+02 -0.28571004072E+02  0.30638244460E+02  0.00000000000E+00 0.  1.
<mgrwt>
<rscale>  0 0.23021644E+04</rscale>
<asrwt>0</asrwt>
<pdfrwt beam="1">  1        2 0.78244009E+00 0.23021644E+04</pdfrwt>
<pdfrwt beam="2">  1       -2 0.40080660E-01 0.23021644E+04</pdfrwt>
<totfact> 0.14411719E-01</totfact>
</mgrwt>
</event>
<event>
12    1  0.1960998E-007  0.2839302E+04  0.7818608E-02  0.8291169E-01
         -2   -1    0    0    0  501 -0.00000000000E+00  0.00000000000E+00  0.13994012770E+04  0.13994012770E+04  0.00000000000E+00 0.  1.
          2   -1    0    0  501    0  0.00000000000E+00 -0.00000000000E+00 -0.14401937318E+04  0.14401937318E+04  0.00000000000E+00 0. -1.
         23    2    1    2    0    0 -0.15644735310E+03  0.91513323817E+03  0.85571802789E+03  0.12659325345E+04  0.91581770702E+02 0.  0.
        254    2    1    2    0    0  0.15644735310E+03 -0.91513323817E+03 -0.89651048264E+03  0.15736624743E+04  0.90040986197E+03 0.  0.
        -24    2    4    4    0    0 -0.54167497390E+02 -0.10291889459E+04 -0.65189143770E+03  0.12220927698E+04  0.79901734916E+02 0.  0.
         24    2    4    4    0    0  0.21061485049E+03  0.11405570775E+03 -0.24461904494E+03  0.35156970448E+03  0.79971621458E+02 0.  0.
         13    1    3    3    0    0 -0.12614135579E+03  0.60486621338E+03  0.61795770371E+03  0.87386869798E+03  0.00000000000E+00 0. -1.
        -13    1    3    3    0    0 -0.30305997308E+02  0.31026702480E+03  0.23776032417E+03  0.39206383651E+03  0.00000000000E+00 0.  1.
          2    1    6    6  502    0  0.16768255118E+03  0.12189238800E+03 -0.18620245573E+03  0.27865129955E+03  0.00000000000E+00 0. -1.
          3    1    5    5  503    0 -0.69341672451E+02 -0.93439762249E+03 -0.60437853297E+03  0.11149800875E+04  0.00000000000E+00 0. -1.
         -4    1    5    5    0  503  0.15174175060E+02 -0.94791323440E+02 -0.47512904731E+02  0.10711268228E+03  0.00000000000E+00 0.  1.
         -1    1    6    6    0  502  0.42932299316E+02 -0.78366802459E+01 -0.58416589215E+02  0.72918404929E+02  0.00000000000E+00 0.  1.
<mgrwt>
<rscale>  0 0.28393020E+04</rscale>
<asrwt>0</asrwt>
<pdfrwt beam="1">  1        2 0.22156827E+00 0.28393020E+04</pdfrwt>
<pdfrwt beam="2">  1       -2 0.21529250E+00 0.28393020E+04</pdfrwt>
<totfact> 0.12607442E+00</totfact>
</mgrwt>
</event>
<event>
12    1  0.1960998E-007  0.1955614E+04  0.7818608E-02  0.8627658E-01
         -1   -1    0    0    0  501 -0.00000000000E+00  0.00000000000E+00  0.11496670408E+04  0.11496670408E+04  0.00000000000E+00 0.  1.
          1   -1    0    0  501    0  0.00000000000E+00 -0.00000000000E+00 -0.83163811517E+03  0.83163811517E+03  0.00000000000E+00 0. -1.
         23    2    1    2    0    0  0.26080271856E+03  0.70475948294E+03 -0.31811930341E+02  0.75745393500E+03  0.89557121080E+02 0.  0.
        254    2    1    2    0    0 -0.26080271856E+03 -0.70475948294E+03  0.34984085593E+03  0.12238512209E+04  0.90039946671E+03 0.  0.
        -24    2    4    4    0    0 -0.56295092499E+03 -0.25253048372E+03  0.16636134801E+03  0.64397460460E+03  0.79635444983E+02 0.  0.
         24    2    4    4    0    0  0.30214820644E+03 -0.45222899923E+03  0.18347950792E+03  0.57987661632E+03  0.82386612566E+02 0.  0.
         13    1    3    3    0    0  0.18676557383E+03  0.44867626445E+03 -0.58711316002E+02  0.48952914977E+03  0.00000000000E+00 0. -1.
        -13    1    3    3    0    0  0.74037144726E+02  0.25608321849E+03  0.26899385662E+02  0.26792478523E+03  0.00000000000E+00 0.  1.
          4    1    6    6  502    0  0.28338704778E+03 -0.37174855829E+03  0.15578752589E+03  0.49272199329E+03  0.00000000000E+00 0. -1.
          3    1    5    5  503    0 -0.34372792935E+03 -0.14530315780E+03  0.60876179334E+02  0.37811083863E+03  0.00000000000E+00 0. -1.
         -4    1    5    5    0  503 -0.21922299565E+03 -0.10722732592E+03  0.10548516867E+03  0.26586376597E+03  0.00000000000E+00 0.  1.
         -3    1    6    6    0  502  0.18761158651E+02 -0.80480440933E+02  0.27691982031E+02  0.87154623030E+02  0.00000000000E+00 0.  1.
<mgrwt>
<rscale>  0 0.19556144E+04</rscale>
<asrwt>0</asrwt>
<pdfrwt beam="1">  1        1 0.12794433E+00 0.19556144E+04</pdfrwt>
<pdfrwt beam="2">  1       -1 0.17687185E+00 0.19556144E+04</pdfrwt>
<totfact> 0.42377456E+00</totfact>
</mgrwt>
</event>
<event>
12    1  0.1960998E-007  0.2143150E+04  0.7818608E-02  0.8542470E-01
          2   -1    0    0  501    0  0.00000000000E+00  0.00000000000E+00  0.13640510862E+04  0.13640510862E+04  0.00000000000E+00 0. -1.
         -2   -1    0    0    0  501 -0.00000000000E+00 -0.00000000000E+00 -0.84181102471E+03  0.84181102471E+03  0.00000000000E+00 0.  1.
         23    2    1    2    0    0 -0.82687314859E+03 -0.77671409588E+02 -0.86412643673E+02  0.84009151832E+03  0.92382695565E+02 0.  0.
        254    2    1    2    0    0  0.82687314859E+03  0.77671409588E+02  0.60865270519E+03  0.13657705926E+04  0.89728431638E+03 0.  0.
        -24    2    4    4    0    0  0.16506927152E+03 -0.81263660429E+02 -0.21492250215E+03  0.29440072494E+03  0.81415342585E+02 0.  0.
         24    2    4    4    0    0  0.66180387708E+03  0.15893507002E+03  0.82357520734E+03  0.10713698677E+04  0.79451513829E+02 0.  0.
         11    1    3    3    0    0 -0.43420947928E+03 -0.75332701298E+02 -0.14801225954E+02  0.44094440021E+03  0.00000000000E+00 0. -1.
        -11    1    3    3    0    0 -0.39266366931E+03 -0.23387082901E+01 -0.71611417720E+02  0.39914711811E+03  0.00000000000E+00 0.  1.
          4    1    6    6  502    0  0.52791572028E+03  0.98490118328E+02  0.67307740954E+03  0.86106243117E+03  0.00000000000E+00 0. -1.
          1    1    5    5  503    0  0.11473431767E+03 -0.11818656403E+02 -0.12752788983E+03  0.17195059458E+03  0.00000000000E+00 0. -1.
         -2    1    5    5    0  503  0.50334953841E+02 -0.69445004027E+02 -0.87394612322E+02  0.12245013036E+03  0.00000000000E+00 0.  1.
         -3    1    6    6    0  502  0.13388815679E+03  0.60444951689E+02  0.15049779780E+03  0.21030743652E+03  0.00000000000E+00 0.  1.
<mgrwt>
<rscale>  0 0.21431502E+04</rscale>
<asrwt>0</asrwt>
<pdfrwt beam="1">  1        2 0.20985401E+00 0.21431502E+04</pdfrwt>
<pdfrwt beam="2">  1       -2 0.12950939E+00 0.21431502E+04</pdfrwt>
<totfact> 0.61117944E+00</totfact>
</mgrwt>
</event>
<event>
12    1  0.1960998E-007  0.2050688E+04  0.7818608E-02  0.8583282E-01
          3   -1    0    0  501    0  0.00000000000E+00  0.00000000000E+00  0.11703385091E+04  0.11703385091E+04  0.00000000000E+00 0. -1.
         -3   -1    0    0    0  501 -0.00000000000E+00 -0.00000000000E+00 -0.89831339396E+03  0.89831339396E+03  0.00000000000E+00 0.  1.
         23    2    1    2    0    0 -0.50597185059E+03 -0.13856079673E+03  0.75267617404E+03  0.92228295690E+03  0.94222192864E+02 0.  0.
        254    2    1    2    0    0  0.50597185059E+03  0.13856079673E+03 -0.48065105894E+03  0.11463689461E+04  0.89884910425E+03 0.  0.
        -24    2    4    4    0    0  0.32077922353E+03  0.51095189760E+03 -0.21016874358E+03  0.64388744097E+03  0.80305566086E+02 0.  0.
         24    2    4    4    0    0  0.18519262706E+03 -0.37239110087E+03 -0.27048231537E+03  0.50248150516E+03  0.79721634323E+02 0.  0.
         13    1    3    3    0    0 -0.17660094439E+03 -0.26454069509E+02  0.19015219135E+03  0.26085545275E+03  0.00000000000E+00 0. -1.
        -13    1    3    3    0    0 -0.32937090621E+03 -0.11210672722E+03  0.56252398269E+03  0.66142750415E+03  0.00000000000E+00 0.  1.
          2    1    6    6  502    0  0.54628769673E+01 -0.18515862723E+02 -0.37694525395E+02  0.42350412536E+02  0.00000000000E+00 0. -1.
          1    1    5    5  503    0  0.24789035592E+03  0.36280739745E+03 -0.11878524352E+03  0.45517993177E+03  0.00000000000E+00 0. -1.
         -2    1    5    5    0  503  0.72888867614E+02  0.14814450015E+03 -0.91383500053E+02  0.18870750920E+03  0.00000000000E+00 0.  1.
         -1    1    6    6    0  502  0.17972975009E+03 -0.35387523815E+03 -0.23278778997E+03  0.46013109263E+03  0.00000000000E+00 0.  1.
<mgrwt>
<rscale>  0 0.20506884E+04</rscale>
<asrwt>0</asrwt>
<pdfrwt beam="1">  1        3 0.18005208E+00 0.20506884E+04</pdfrwt>
<pdfrwt beam="2">  1       -3 0.13820206E+00 0.20506884E+04</pdfrwt>
<totfact> 0.19089150E-01</totfact>
</mgrwt>
</event>
<event>
12    1  0.1960998E-007  0.3529889E+04  0.7818608E-02  0.8106743E-01
         -1   -1    0    0    0  501 -0.00000000000E+00  0.00000000000E+00  0.10488335331E+04  0.10488335331E+04  0.00000000000E+00 0.  1.
          1   -1    0    0  501    0  0.00000000000E+00 -0.00000000000E+00 -0.29699939835E+04  0.29699939835E+04  0.00000000000E+00 0. -1.
         23    2    1    2    0    0  0.23269637908E+03  0.15489349400E+04 -0.31137485986E+03  0.15995646352E+04  0.91135424380E+02 0.  0.
        254    2    1    2    0    0 -0.23269637908E+03 -0.15489349400E+04 -0.16097855906E+04  0.24192628814E+04  0.89893058054E+03 0.  0.
        -24    2    4    4    0    0 -0.13391364259E+03 -0.10516937495E+03 -0.66028868479E+03  0.68656752665E+03  0.80002251770E+02 0.  0.
         24    2    4    4    0    0 -0.98782736493E+02 -0.14437655651E+04 -0.94949690579E+03  0.17326953548E+04  0.80447389658E+02 0.  0.
         13    1    3    3    0    0  0.79794043178E+01  0.27450083616E+03 -0.43593899182E+02  0.27805540453E+03  0.00000000000E+00 0. -1.
        -13    1    3    3    0    0  0.22471697476E+03  0.12744341039E+04 -0.26778096067E+03  0.13215092307E+04  0.00000000000E+00 0.  1.
          4    1    6    6  502    0 -0.83832433567E+02 -0.13233066316E+04 -0.89426690827E+03  0.15993378697E+04  0.00000000000E+00 0. -1.
          1    1    5    5  503    0 -0.85041961590E+02 -0.47161615847E+02 -0.23107260542E+03  0.25070082213E+03  0.00000000000E+00 0. -1.
         -2    1    5    5    0  503 -0.48871680999E+02 -0.58007759102E+02 -0.42921607937E+03  0.43586670452E+03  0.00000000000E+00 0.  1.
         -3    1    6    6    0  502 -0.14950302927E+02 -0.12045893348E+03 -0.55229997522E+02  0.13335748512E+03  0.00000000000E+00 0.  1.
<mgrwt>
<rscale>  0 0.35298891E+04</rscale>
<asrwt>0</asrwt>
<pdfrwt beam="1">  1        1 0.45692215E+00 0.35298891E+04</pdfrwt>
<pdfrwt beam="2">  1       -1 0.16135901E+00 0.35298891E+04</pdfrwt>
<totfact> 0.14590050E-01</totfact>
</mgrwt>
</event>
<event>
12    1  0.1960998E-007  0.1322132E+04  0.7818608E-02  0.9012196E-01
         -1   -1    0    0    0  501 -0.00000000000E+00  0.00000000000E+00  0.68666203603E+03  0.68666203603E+03  0.00000000000E+00 0.  1.
          1   -1    0    0  501    0  0.00000000000E+00 -0.00000000000E+00 -0.63642383103E+03  0.63642383103E+03  0.00000000000E+00 0. -1.
         23    2    1    2    0    0 -0.33259645620E+03 -0.92304867653E+02 -0.84555108315E+02  0.36698658478E+03  0.91591461403E+02 0.  0.
        254    2    1    2    0    0  0.33259645620E+03  0.92304867653E+02  0.13479331332E+03  0.95609928227E+03  0.88137166336E+03 0.  0.
        -24    2    4    4    0    0  0.30701450906E+03 -0.15957549277E+03  0.43109912961E+03  0.55806127091E+03  0.76574642505E+02 0.  0.
         24    2    4    4    0    0  0.25581947131E+02  0.25188036042E+03 -0.29630581629E+03  0.39803801136E+03  0.80863896381E+02 0.  0.
         13    1    3    3    0    0 -0.71873362632E+02  0.15133081212E+02 -0.32100227833E+02  0.80157439018E+02  0.00000000000E+00 0.  1.
        -13    1    3    3    0    0 -0.26072309356E+03 -0.10743794887E+03 -0.52454880482E+02  0.28682914577E+03  0.00000000000E+00 0. -1.
          4    1    6    6  502    0  0.26868895201E+01  0.21668912426E+03 -0.20855014940E+03  0.30075664708E+03  0.00000000000E+00 0. -1.
          1    1    5    5  503    0  0.26319991106E+03 -0.10256290803E+03  0.34380149507E+03  0.44496383145E+03  0.00000000000E+00 0. -1.
         -2    1    5    5    0  503  0.43814598004E+02 -0.57012584742E+02  0.87297634540E+02  0.11309743946E+03  0.00000000000E+00 0.  1.
         -3    1    6    6    0  502  0.22895057611E+02  0.35191236160E+02 -0.87755666887E+02  0.97281364281E+02  0.00000000000E+00 0.  1.
<mgrwt>
<rscale>  0 0.13221317E+04</rscale>
<asrwt>0</asrwt>
<pdfrwt beam="1">  1        1 0.97911358E-01 0.13221317E+04</pdfrwt>
<pdfrwt beam="2">  1       -1 0.10564031E+00 0.13221317E+04</pdfrwt>
<totfact> 0.25883645E+01</totfact>
</mgrwt>
</event>
<event>
12    1  0.1960998E-007  0.1440164E+04  0.7818608E-02  0.8925248E-01
         -3   -1    0    0    0  501 -0.00000000000E+00  0.00000000000E+00  0.11582255859E+04  0.11582255859E+04  0.00000000000E+00 0.  1.
          3   -1    0    0  501    0  0.00000000000E+00 -0.00000000000E+00 -0.44768333518E+03  0.44768333518E+03  0.00000000000E+00 0. -1.
         23    2    1    2    0    0 -0.41919409113E+03  0.69738848159E+02  0.30001725082E+03  0.52789141736E+03  0.89843223209E+02 0.  0.
        254    2    1    2    0    0  0.41919409113E+03 -0.69738848159E+02  0.41052499992E+03  0.10780175037E+04  0.90166721680E+03 0.  0.
        -24    2    4    4    0    0  0.55671784944E+03 -0.17865584805E+03  0.57536104547E+03  0.82420211396E+03  0.80100662118E+02 0.  0.
         24    2    4    4    0    0 -0.13752375832E+03  0.10891699989E+03 -0.16483604555E+03  0.25381538979E+03  0.80471319204E+02 0.  0.
         13    1    3    3    0    0 -0.16630003112E+03  0.68290777639E+02  0.10202512561E+03  0.20670862807E+03  0.00000000000E+00 0.  1.
        -13    1    3    3    0    0 -0.25289406000E+03  0.14480705196E+01  0.19799212521E+03  0.32118278929E+03  0.00000000000E+00 0. -1.
          2    1    6    6  502    0  0.57900587047E+01  0.27657028949E+02 -0.24426787662E+02  0.37351090822E+02  0.00000000000E+00 0. -1.
          3    1    5    5  503    0  0.19567740942E+03 -0.10201365619E+03  0.20098094909E+03  0.29847910564E+03  0.00000000000E+00 0. -1.
         -4    1    5    5    0  503  0.36104044002E+03 -0.76642191860E+02  0.37438009639E+03  0.52572300832E+03  0.00000000000E+00 0.  1.
         -1    1    6    6    0  502 -0.14331381702E+03  0.81259970946E+02 -0.14040925789E+03  0.21646429897E+03  0.00000000000E+00 0.  1.
<mgrwt>
<rscale>  0 0.14401643E+04</rscale>
<asrwt>0</asrwt>
<pdfrwt beam="1">  1        3 0.68874360E-01 0.14401643E+04</pdfrwt>
<pdfrwt beam="2">  1       -3 0.17818855E+00 0.14401643E+04</pdfrwt>
<totfact> 0.10449725E+00</totfact>
</mgrwt>
</event>
<event>
12    1  0.1960998E-007  0.1702898E+04  0.7818608E-02  0.8759713E-01
          1   -1    0    0  501    0  0.00000000000E+00  0.00000000000E+00  0.35160435113E+03  0.35160435113E+03  0.00000000000E+00 0. -1.
         -1   -1    0    0    0  501 -0.00000000000E+00 -0.00000000000E+00 -0.20618776800E+04  0.20618776800E+04  0.00000000000E+00 0.  1.
         23    2    1    2    0    0 -0.52204220470E+03  0.78817342899E+02 -0.19724077771E+03  0.57102293709E+03  0.91777084627E+02 0.  0.
        254    2    1    2    0    0  0.52204220470E+03 -0.78817342899E+02 -0.15130325511E+04  0.18424590940E+04  0.90920172421E+03 0.  0.
        -24    2    4    4    0    0  0.28638324865E+03 -0.47414356360E+03 -0.10181573886E+04  0.11619038840E+04  0.80923937318E+02 0.  0.
         24    2    4    4    0    0  0.23565895604E+03  0.39532622070E+03 -0.49487516257E+03  0.68055521007E+03  0.80224703702E+02 0.  0.
         11    1    3    3    0    0 -0.26500762389E+03  0.83475515977E+02 -0.85405624442E+02  0.29067391210E+03  0.00000000000E+00 0. -1.
        -11    1    3    3    0    0 -0.25703458081E+03 -0.46581730771E+01 -0.11183515327E+03  0.28034902499E+03  0.00000000000E+00 0.  1.
          2    1    6    6  502    0  0.22005020940E+03  0.35942259642E+03 -0.41431142555E+03  0.59098278724E+03  0.00000000000E+00 0. -1.
          3    1    5    5  503    0  0.18492288176E+03 -0.36695031675E+03 -0.71317816407E+03  0.82308693396E+03  0.00000000000E+00 0. -1.
         -4    1    5    5    0  503  0.10146036690E+03 -0.10719324685E+03 -0.30497922451E+03  0.33881694999E+03  0.00000000000E+00 0.  1.
         -1    1    6    6    0  502  0.15608746643E+02  0.35903624279E+02 -0.80563737018E+02  0.89572422824E+02  0.00000000000E+00 0.  1.
<mgrwt>
<rscale>  0 0.17028977E+04</rscale>
<asrwt>0</asrwt>
<pdfrwt beam="1">  1        1 0.54092976E-01 0.17028977E+04</pdfrwt>
<pdfrwt beam="2">  1       -1 0.31721195E+00 0.17028977E+04</pdfrwt>
<totfact> 0.17321457E+00</totfact>
</mgrwt>
</event>
<event>
12    1  0.1960998E-007  0.1213530E+04  0.7818608E-02  0.9101095E-01
          1   -1    0    0  501    0  0.00000000000E+00  0.00000000000E+00  0.91224072624E+03  0.91224072624E+03  0.00000000000E+00 0. -1.
         -1   -1    0    0    0  501 -0.00000000000E+00 -0.00000000000E+00 -0.40358209825E+03  0.40358209825E+03  0.00000000000E+00 0.  1.
         23    2    1    2    0    0 -0.38060551756E+02  0.25514744611E+03  0.13304747393E+03  0.30528247206E+03  0.94588226375E+02 0.  0.
        254    2    1    2    0    0  0.38060551756E+02 -0.25514744611E+03  0.37561115406E+03  0.10105403524E+04  0.90197518812E+03 0.  0.
        -24    2    4    4    0    0 -0.25639684808E+03  0.72588840263E+02  0.47771823337E+03  0.55163373649E+03  0.71250159990E+02 0.  0.
         24    2    4    4    0    0  0.29445739983E+03 -0.32773628638E+03 -0.10210707931E+03  0.45890661595E+03  0.77802267271E+02 0.  0.
         13    1    3    3    0    0 -0.33408222480E+02  0.24400238577E+02  0.36273276106E+02  0.55020282909E+02  0.00000000000E+00 0. -1.
        -13    1    3    3    0    0 -0.46523292764E+01  0.23074720754E+03  0.96774197824E+02  0.25026218915E+03  0.00000000000E+00 0.  1.
          4    1    6    6  502    0  0.28063189657E+03 -0.32106010378E+03 -0.83045859673E+02  0.43443119872E+03  0.00000000000E+00 0. -1.
          3    1    5    5  503    0 -0.12714575548E+03  0.72807141758E+02  0.24769391964E+03  0.28778325325E+03  0.00000000000E+00 0. -1.
         -4    1    5    5    0  503 -0.12925109260E+03 -0.21830149403E+00  0.23002431373E+03  0.26385048323E+03  0.00000000000E+00 0.  1.
         -3    1    6    6    0  502  0.13825503260E+02 -0.66761826001E+01 -0.19061219640E+02  0.24475417232E+02  0.00000000000E+00 0.  1.
<mgrwt>
<rscale>  0 0.12135304E+04</rscale>
<asrwt>0</asrwt>
<pdfrwt beam="1">  1        1 0.14034473E+00 0.12135304E+04</pdfrwt>
<pdfrwt beam="2">  1       -1 0.62089554E-01 0.12135304E+04</pdfrwt>
<totfact> 0.46261833E+01</totfact>
</mgrwt>
</event>
<event>
12    1  0.1960998E-007  0.1771786E+04  0.7818608E-02  0.8721449E-01
         -2   -1    0    0    0  501 -0.00000000000E+00  0.00000000000E+00  0.31457552915E+03  0.31457552915E+03  0.00000000000E+00 0.  1.
          2   -1    0    0  501    0  0.00000000000E+00 -0.00000000000E+00 -0.24948109217E+04  0.24948109217E+04  0.00000000000E+00 0. -1.
         23    2    1    2    0    0  0.53786862227E+03 -0.77445542301E+02 -0.23463440192E+03  0.59997688152E+03  0.98073895363E+02 0.  0.
        254    2    1    2    0    0 -0.53786862227E+03  0.77445542301E+02 -0.19456009906E+04  0.22094095693E+04  0.89488935824E+03 0.  0.
        -24    2    4    4    0    0 -0.49780844508E+03 -0.32533537874E+03 -0.14172089922E+04  0.15389337827E+04  0.78609817430E+02 0.  0.
         24    2    4    4    0    0 -0.40060177183E+02  0.40278092104E+03 -0.52839199842E+03  0.67047578660E+03  0.80637387570E+02 0.  0.
         13    1    3    3    0    0  0.12146288478E+03 -0.49571091355E+02 -0.86450582501E+02  0.15711215323E+03  0.00000000000E+00 0.  1.
        -13    1    3    3    0    0  0.41640573748E+03 -0.27874450946E+02 -0.14818381942E+03  0.44286472829E+03  0.00000000000E+00 0. -1.
          4    1    6    6  502    0 -0.41786820742E+02  0.83675413147E+02 -0.12544978075E+03  0.15647798773E+03  0.00000000000E+00 0. -1.
          1    1    5    5  503    0 -0.18971419426E+03 -0.12857593306E+03 -0.45117474319E+03  0.50604534872E+03  0.00000000000E+00 0. -1.
         -2    1    5    5    0  503 -0.30809425082E+03 -0.19675944568E+03 -0.96603424898E+03  0.10328884340E+04  0.00000000000E+00 0.  1.
         -3    1    6    6    0  502  0.17266435596E+01  0.31910550789E+03 -0.40294221767E+03  0.51399779887E+03  0.00000000000E+00 0.  1.
<mgrwt>
<rscale>  0 0.17717861E+04</rscale>
<asrwt>0</asrwt>
<pdfrwt beam="1">  1        2 0.38381706E+00 0.17717861E+04</pdfrwt>
<pdfrwt beam="2">  1       -2 0.48396236E-01 0.17717861E+04</pdfrwt>
<totfact> 0.13430136E+01</totfact>
</mgrwt>
</event>
<event>
12    1  0.1960998E-007  0.1347337E+04  0.7818608E-02  0.8992846E-01
         -1   -1    0    0    0  501 -0.00000000000E+00  0.00000000000E+00  0.25556284455E+03  0.25556284455E+03  0.00000000000E+00 0.  1.
          1   -1    0    0  501    0  0.00000000000E+00 -0.00000000000E+00 -0.17758041465E+04  0.17758041465E+04  0.00000000000E+00 0. -1.
         23    2    1    2    0    0  0.27846128671E+03  0.19090964733E+02 -0.77912464001E+03  0.83251951958E+03  0.90268447891E+02 0.  0.
        254    2    1    2    0    0 -0.27846128671E+03 -0.19090964733E+02 -0.74111666192E+03  0.11988474715E+04  0.90004233240E+03 0.  0.
        -24    2    4    4    0    0  0.48500674906E+02 -0.10284425306E+03  0.17257879987E+03  0.22151523874E+03  0.79726425824E+02 0.  0.
         24    2    4    4    0    0 -0.32696196162E+03  0.83753288323E+02 -0.91369546179E+03  0.97733223272E+03  0.80125891998E+02 0.  0.
         13    1    3    3    0    0  0.17360608187E+03  0.48719310510E+02 -0.55006837696E+03  0.57886774155E+03  0.00000000000E+00 0. -1.
        -13    1    3    3    0    0  0.10485520484E+03 -0.29628345777E+02 -0.22905626305E+03  0.25365177803E+03  0.00000000000E+00 0.  1.
          4    1    6    6  502    0 -0.35442351623E+02  0.25823677794E+02 -0.18970194189E+03  0.19470451813E+03  0.00000000000E+00 0. -1.
          3    1    5    5  503    0 -0.12940279899E+02 -0.45824803825E+02  0.30483253928E+02  0.56538414017E+02  0.00000000000E+00 0. -1.
         -4    1    5    5    0  503  0.61440954805E+02 -0.57019449231E+02  0.14209554594E+03  0.16497682472E+03  0.00000000000E+00 0.  1.
         -3    1    6    6    0  502 -0.29151961000E+03  0.57929610529E+02 -0.72399351990E+03  0.78262771459E+03  0.00000000000E+00 0.  1.
<mgrwt>
<rscale>  0 0.13473375E+04</rscale>
<asrwt>0</asrwt>
<pdfrwt beam="1">  1        1 0.27320062E+00 0.13473375E+04</pdfrwt>
<pdfrwt beam="2">  1       -1 0.39317363E-01 0.13473375E+04</pdfrwt>
<totfact> 0.26049417E+01</totfact>
</mgrwt>
</event>
<event>
12    1  0.1960998E-007  0.1280645E+04  0.7818608E-02  0.9045056E-01
         -2   -1    0    0    0  501 -0.00000000000E+00  0.00000000000E+00  0.11760647046E+04  0.11760647046E+04  0.00000000000E+00 0.  1.
          2   -1    0    0  501    0  0.00000000000E+00 -0.00000000000E+00 -0.34863131403E+03  0.34863131403E+03  0.00000000000E+00 0. -1.
         23    2    1    2    0    0 -0.20950417137E+03  0.22113295500E+02  0.49105309726E+03  0.54269475985E+03  0.94886576397E+02 0.  0.
        254    2    1    2    0    0  0.20950417137E+03 -0.22113295500E+02  0.33638029326E+03  0.98200125873E+03  0.89821699761E+03 0.  0.
        -24    2    4    4    0    0  0.21685095930E+03  0.32067000043E+00 -0.27827356965E+03  0.36163747195E+03  0.79504969504E+02 0.  0.
         24    2    4    4    0    0 -0.73467879302E+01 -0.22433965500E+02  0.61465386291E+03  0.62036378678E+03  0.80589072828E+02 0.  0.
         11    1    3    3    0    0 -0.64224424123E+01 -0.10693411432E+02  0.26724535552E+01  0.12756912738E+02  0.00000000000E+00 0. -1.
        -11    1    3    3    0    0 -0.20308172896E+03  0.32806706931E+02  0.48838064371E+03  0.52993784711E+03  0.00000000000E+00 0.  1.
          2    1    6    6  502    0 -0.34409803626E+02  0.15200670612E+02  0.27784022955E+03  0.28037526305E+03  0.00000000000E+00 0. -1.
          1    1    5    5  503    0  0.13061445608E+03 -0.30877792989E+02 -0.12723956299E+03  0.18494183039E+03  0.00000000000E+00 0. -1.
         -2    1    5    5    0  503  0.86236503216E+02  0.31198462989E+02 -0.15103400666E+03  0.17669564156E+03  0.00000000000E+00 0.  1.
         -1    1    6    6    0  502  0.27063015696E+02 -0.37634636112E+02  0.33681363336E+03  0.33998852373E+03  0.00000000000E+00 0.  1.
<mgrwt>
<rscale>  0 0.12806451E+04</rscale>
<asrwt>0</asrwt>
<pdfrwt beam="1">  1        2 0.53635587E-01 0.12806451E+04</pdfrwt>
<pdfrwt beam="2">  1       -2 0.18093303E+00 0.12806451E+04</pdfrwt>
<totfact> 0.16256143E+01</totfact>
</mgrwt>
</event>
<event>
12    1  0.1960998E-007  0.1115840E+04  0.7818608E-02  0.9189890E-01
         -1   -1    0    0    0  501 -0.00000000000E+00  0.00000000000E+00  0.37505147707E+03  0.37505147707E+03  0.00000000000E+00 0.  1.
          1   -1    0    0  501    0  0.00000000000E+00 -0.00000000000E+00 -0.82995127347E+03  0.82995127347E+03  0.00000000000E+00 0. -1.
         23    2    1    2    0    0  0.15710500572E+03 -0.44288404228E+02  0.16396428251E+01  0.18216021196E+03  0.80846823192E+02 0.  0.
        254    2    1    2    0    0 -0.15710500572E+03  0.44288404228E+02 -0.45653943922E+03  0.10228425386E+04  0.90063042010E+03 0.  0.
        -24    2    4    4    0    0 -0.41743939075E+03  0.24782906572E+03 -0.47333823529E+03  0.68254610398E+03  0.78391379085E+02 0.  0.
         24    2    4    4    0    0  0.26033438503E+03 -0.20354066149E+03  0.16798796064E+02  0.34029643461E+03  0.79477487064E+02 0.  0.
         11    1    3    3    0    0  0.15507528000E+03 -0.27221989706E+02  0.17949721222E+02  0.15846631088E+03  0.00000000000E+00 0.  1.
        -11    1    3    3    0    0  0.20297257203E+01 -0.17066414522E+02 -0.16310078397E+02  0.23693901082E+02  0.00000000000E+00 0. -1.
          2    1    6    6  502    0  0.23689795761E+03 -0.20617523394E+03  0.53918451886E+01  0.31409861733E+03  0.00000000000E+00 0. -1.
          1    1    5    5  503    0 -0.39860202229E+03  0.25199971931E+03 -0.46196010290E+03  0.66014738307E+03  0.00000000000E+00 0. -1.
         -2    1    5    5    0  503 -0.18837368457E+02 -0.41706535941E+01 -0.11378132392E+02  0.22398720913E+02  0.00000000000E+00 0.  1.
         -1    1    6    6    0  502  0.23436427414E+02  0.26345724526E+01  0.11406950875E+02  0.26197817280E+02  0.00000000000E+00 0.  1.
<mgrwt>
<rscale>  0 0.11158395E+04</rscale>
<asrwt>0</asrwt>
<pdfrwt beam="1">  1        1 0.12768481E+00 0.11158395E+04</pdfrwt>
<pdfrwt beam="2">  1       -1 0.57700227E-01 0.11158395E+04</pdfrwt>
<totfact> 0.63083765E+01</totfact>
</mgrwt>
</event>
<event>
12    1  0.1960998E-007  0.1076805E+04  0.7818608E-02  0.9228099E-01
         -1   -1    0    0    0  501 -0.00000000000E+00  0.00000000000E+00  0.11546646810E+04  0.11546646810E+04  0.00000000000E+00 0.  1.
          1   -1    0    0  501    0  0.00000000000E+00 -0.00000000000E+00 -0.25104863213E+03  0.25104863213E+03  0.00000000000E+00 0. -1.
         23    2    1    2    0    0 -0.79480350453E+01  0.12920903813E+03  0.21279414065E+03  0.26582397908E+03  0.92859543197E+02 0.  0.
        254    2    1    2    0    0  0.79480350453E+01 -0.12920903813E+03  0.69082190822E+03  0.11398893340E+04  0.89741553262E+03 0.  0.
        -24    2    4    4    0    0 -0.39782201547E+03 -0.39126640025E+02  0.11254084357E+03  0.42282029168E+03  0.79487782924E+02 0.  0.
         24    2    4    4    0    0  0.40577005052E+03 -0.90082398108E+02  0.57828106465E+03  0.71706904235E+03  0.83754697950E+02 0.  0.
         11    1    3    3    0    0  0.35538688198E+02  0.23550146706E+02  0.38663973072E+02  0.57554414101E+02  0.00000000000E+00 0. -1.
        -11    1    3    3    0    0 -0.43486723244E+02  0.10565889143E+03  0.17413016758E+03  0.20826956498E+03  0.00000000000E+00 0.  1.
          4    1    6    6  502    0  0.36120754105E+03 -0.10184123253E+03  0.48713471444E+03  0.61493313000E+03  0.00000000000E+00 0. -1.
          1    1    5    5  503    0 -0.39645557069E+03 -0.42629304483E+02  0.10192977336E+03  0.41156282124E+03  0.00000000000E+00 0. -1.
         -2    1    5    5    0  503 -0.13664447826E+01  0.35026644579E+01  0.10611070216E+02  0.11257470443E+02  0.00000000000E+00 0.  1.
         -3    1    6    6    0  502  0.44562509469E+02  0.11758834427E+02  0.91146350206E+02  0.10213591236E+03  0.00000000000E+00 0.  1.
<mgrwt>
<rscale>  0 0.10768045E+04</rscale>
<asrwt>0</asrwt>
<pdfrwt beam="1">  1        1 0.38622867E-01 0.10768045E+04</pdfrwt>
<pdfrwt beam="2">  1       -1 0.17764072E+00 0.10768045E+04</pdfrwt>
<totfact> 0.23897694E+01</totfact>
</mgrwt>
</event>
<event>
12    1  0.1960998E-007  0.1902609E+04  0.7818608E-02  0.8653559E-01
          2   -1    0    0  501    0  0.00000000000E+00  0.00000000000E+00  0.88267025938E+03  0.88267025938E+03  0.00000000000E+00 0. -1.
         -2   -1    0    0    0  501 -0.00000000000E+00 -0.00000000000E+00 -0.10252754827E+04  0.10252754827E+04  0.00000000000E+00 0.  1.
         23    2    1    2    0    0  0.26527422901E+03 -0.43696692549E+02  0.62964372511E+03  0.68997461414E+03  0.85638367959E+02 0.  0.
        254    2    1    2    0    0 -0.26527422901E+03  0.43696692549E+02 -0.77224894847E+03  0.12179711280E+04  0.90266572587E+03 0.  0.
        -24    2    4    4    0    0  0.32639918134E+03 -0.40340162948E+02 -0.28643395961E+03  0.44363482171E+03  0.81263075776E+02 0.  0.
         24    2    4    4    0    0 -0.59167341035E+03  0.84036855497E+02 -0.48581498886E+03  0.77433630627E+03  0.80255181833E+02 0.  0.
         11    1    3    3    0    0  0.23019768912E+03 -0.15800502933E+02  0.57322275720E+03  0.61791986644E+03  0.00000000000E+00 0. -1.
        -11    1    3    3    0    0  0.35076539888E+02 -0.27896189617E+02  0.56420967907E+02  0.72054747694E+02  0.00000000000E+00 0.  1.
          2    1    6    6  502    0 -0.59429397135E+00 -0.46851587784E+01 -0.12405217170E+01  0.48829081738E+01  0.00000000000E+00 0. -1.
          1    1    5    5  503    0  0.16168786005E+03 -0.33337845834E+02 -0.19360918963E+03  0.25443839011E+03  0.00000000000E+00 0. -1.
         -2    1    5    5    0  503  0.16471132129E+03 -0.70023171141E+01 -0.92824769976E+02  0.18919643159E+03  0.00000000000E+00 0.  1.
         -1    1    6    6    0  502 -0.59107911638E+03  0.88722014276E+02 -0.48457446715E+03  0.76945339810E+03  0.00000000000E+00 0.  1.
<mgrwt>
<rscale>  0 0.19026089E+04</rscale>
<asrwt>0</asrwt>
<pdfrwt beam="1">  1        2 0.13579542E+00 0.19026089E+04</pdfrwt>
<pdfrwt beam="2">  1       -2 0.15773469E+00 0.19026089E+04</pdfrwt>
<totfact> 0.73851092E+00</totfact>
</mgrwt>
</event>
<event>
12    1  0.1960998E-007  0.1579370E+04  0.7818608E-02  0.8833323E-01
          2   -1    0    0  501    0  0.00000000000E+00  0.00000000000E+00  0.55273410884E+03  0.55273410884E+03  0.00000000000E+00 0. -1.
         -2   -1    0    0    0  501 -0.00000000000E+00 -0.00000000000E+00 -0.11282139390E+04  0.11282139390E+04  0.00000000000E+00 0.  1.
         23    2    1    2    0    0  0.50145896955E+03  0.46895965220E+02 -0.36374662760E+03  0.62801631124E+03  0.91828908320E+02 0.  0.
        254    2    1    2    0    0 -0.50145896955E+03 -0.46895965220E+02 -0.21173320251E+03  0.10529317366E+04  0.90009664098E+03 0.  0.
        -24    2    4    4    0    0 -0.71788064439E+03  0.11145965863E+02  0.16987591169E+02  0.72302819373E+03  0.83691926325E+02 0.  0.
         24    2    4    4    0    0  0.21642167484E+03 -0.58041931083E+02 -0.22872079368E+03  0.32990354283E+03  0.79472882190E+02 0.  0.
         11    1    3    3    0    0  0.36861945553E+03  0.54157457519E+02 -0.22239312611E+03  0.43390325620E+03  0.00000000000E+00 0. -1.
        -11    1    3    3    0    0  0.13283951402E+03 -0.72614922991E+01 -0.14135350149E+03  0.19411305504E+03  0.00000000000E+00 0.  1.
          2    1    6    6  502    0  0.54213165634E+01 -0.13348162002E+01  0.66981186408E+01  0.87199312437E+01  0.00000000000E+00 0. -1.
          1    1    5    5  503    0 -0.20224382357E+03  0.38600555733E+02 -0.80782852774E+01  0.20605296835E+03  0.00000000000E+00 0. -1.
         -2    1    5    5    0  503 -0.51563682082E+03 -0.27454589870E+02  0.25065876446E+02  0.51697522537E+03  0.00000000000E+00 0.  1.
         -1    1    6    6    0  502  0.21100035827E+03 -0.56707114883E+02 -0.23541891232E+03  0.32118361158E+03  0.00000000000E+00 0.  1.
<mgrwt>
<rscale>  0 0.15793699E+04</rscale>
<asrwt>0</asrwt>
<pdfrwt beam="1">  1        2 0.85036017E-01 0.15793699E+04</pdfrwt>
<pdfrwt beam="2">  1       -2 0.17357137E+00 0.15793699E+04</pdfrwt>
<totfact> 0.10559099E+01</totfact>
</mgrwt>
</event>
<event>
12    1  0.1960998E-007  0.2152466E+04  0.7818608E-02  0.8538478E-01
          2   -1    0    0  501    0  0.00000000000E+00  0.00000000000E+00  0.72342413104E+03  0.72342413104E+03  0.00000000000E+00 0. -1.
         -2   -1    0    0    0  501 -0.00000000000E+00 -0.00000000000E+00 -0.16011039886E+04  0.16011039886E+04  0.00000000000E+00 0.  1.
         23    2    1    2    0    0 -0.79274496940E+03  0.12911197454E+02 -0.78645325100E+03  0.11204670112E+04  0.91248680020E+02 0.  0.
        254    2    1    2    0    0  0.79274496940E+03 -0.12911197454E+02 -0.91226606586E+02  0.12040611085E+04  0.90157061491E+03 0.  0.
        -24    2    4    4    0    0  0.15752291733E+03 -0.30563787374E+03 -0.30623365168E+03  0.46712704127E+03  0.78744167476E+02 0.  0.
         24    2    4    4    0    0  0.63522205207E+03  0.29272667629E+03  0.21500704510E+03  0.73693406721E+03  0.87451858316E+02 0.  0.
         13    1    3    3    0    0 -0.27904609659E+03  0.40680985557E+02 -0.24459967615E+03  0.37329702407E+03  0.00000000000E+00 0. -1.
        -13    1    3    3    0    0 -0.51369887281E+03 -0.27769788103E+02 -0.54185357486E+03  0.74716998712E+03  0.00000000000E+00 0.  1.
          2    1    6    6  502    0  0.18165890155E+03  0.10727371883E+03  0.29677864260E+02  0.21304549489E+03  0.00000000000E+00 0. -1.
          3    1    5    5  503    0  0.62288653794E+02 -0.49779981289E+02 -0.69645952560E+02  0.10587011683E+03  0.00000000000E+00 0. -1.
         -4    1    5    5    0  503  0.95234263534E+02 -0.25585789245E+03 -0.23658769912E+03  0.36125692444E+03  0.00000000000E+00 0.  1.
         -1    1    6    6    0  502  0.45356315052E+03  0.18545295746E+03  0.18532918084E+03  0.52388857232E+03  0.00000000000E+00 0.  1.
<mgrwt>
<rscale>  0 0.21524658E+04</rscale>
<asrwt>0</asrwt>
<pdfrwt beam="1">  1        2 0.11129602E+00 0.21524658E+04</pdfrwt>
<pdfrwt beam="2">  1       -2 0.24632369E+00 0.21524658E+04</pdfrwt>
<totfact> 0.24401626E+00</totfact>
</mgrwt>
</event>
<event>
12    1  0.1960998E-007  0.2954370E+04  0.7818608E-02  0.8256882E-01
         -1   -1    0    0    0  501 -0.00000000000E+00  0.00000000000E+00  0.10895891359E+04  0.10895891359E+04  0.00000000000E+00 0.  1.
          1   -1    0    0  501    0  0.00000000000E+00 -0.00000000000E+00 -0.20026593785E+04  0.20026593785E+04  0.00000000000E+00 0. -1.
         23    2    1    2    0    0 -0.93541591679E+03 -0.25871925101E+03 -0.13799007141E+04  0.16902258903E+04  0.10391819422E+03 0.  0.
        254    2    1    2    0    0  0.93541591679E+03  0.25871925101E+03  0.46683047154E+03  0.14020226242E+04  0.89766261000E+03 0.  0.
        -24    2    4    4    0    0  0.42899248536E+03  0.56653251583E+03  0.33208398401E+03  0.78855629578E+03  0.80917335560E+02 0.  0.
         24    2    4    4    0    0  0.50642343143E+03 -0.30781326482E+03  0.13474648753E+03  0.61346632842E+03  0.83490252724E+02 0.  0.
         11    1    3    3    0    0 -0.36763676431E+03 -0.49952767254E+02 -0.53771533182E+03  0.65329154862E+03  0.00000000000E+00 0.  1.
        -11    1    3    3    0    0 -0.56777915248E+03 -0.20876648376E+03 -0.84218538231E+03  0.10369343417E+04  0.00000000000E+00 0. -1.
          4    1    6    6  502    0  0.39222699139E+03 -0.27580553230E+03  0.99054490099E+02  0.48961464074E+03  0.00000000000E+00 0. -1.
          3    1    5    5  503    0  0.27940286422E+03  0.31489062687E+03  0.17066732278E+03  0.45425697847E+03  0.00000000000E+00 0. -1.
         -4    1    5    5    0  503  0.14958962114E+03  0.25164188896E+03  0.16141666123E+03  0.33429931731E+03  0.00000000000E+00 0.  1.
         -3    1    6    6    0  502  0.11419644004E+03 -0.32007732519E+02  0.35691997429E+02  0.12385168767E+03  0.00000000000E+00 0.  1.
<mgrwt>
<rscale>  0 0.29543703E+04</rscale>
<asrwt>0</asrwt>
<pdfrwt beam="1">  1        1 0.30810144E+00 0.29543703E+04</pdfrwt>
<pdfrwt beam="2">  1       -1 0.16762910E+00 0.29543703E+04</pdfrwt>
<totfact> 0.64953197E-01</totfact>
</mgrwt>
</event>
<event>
12    1  0.1960998E-007  0.3099529E+04  0.7818608E-02  0.8215867E-01
          1   -1    0    0  501    0  0.00000000000E+00  0.00000000000E+00  0.12111466696E+04  0.12111466696E+04  0.00000000000E+00 0. -1.
         -1   -1    0    0    0  501 -0.00000000000E+00 -0.00000000000E+00 -0.19830543481E+04  0.19830543481E+04  0.00000000000E+00 0.  1.
         23    2    1    2    0    0  0.13836628010E+04  0.25242215277E+03 -0.37393611404E+03  0.14583698706E+04  0.93673752479E+02 0.  0.
        254    2    1    2    0    0 -0.13836628010E+04 -0.25242215277E+03 -0.39797156446E+03  0.17358311470E+04  0.93620976005E+03 0.  0.
        -24    2    4    4    0    0 -0.30737867577E+02 -0.32107447955E+02  0.21534298722E+03  0.23203496337E+03  0.74107471694E+02 0.  0.
         24    2    4    4    0    0 -0.13529249334E+04 -0.22031470481E+03 -0.61331455168E+03  0.15037961837E+04  0.79396335400E+02 0.  0.
         11    1    3    3    0    0  0.24277440318E+03  0.74255175643E+02 -0.88924994126E+02  0.26899980768E+03  0.00000000000E+00 0.  1.
        -11    1    3    3    0    0  0.11408883978E+04  0.17816697713E+03 -0.28501111991E+03  0.11893700629E+04  0.00000000000E+00 0. -1.
          2    1    6    6  502    0 -0.13150188422E+04 -0.22657312760E+03 -0.60059152289E+03  0.14633250202E+04  0.00000000000E+00 0. -1.
          1    1    5    5  503    0 -0.42917738845E+02 -0.24053019054E+02  0.21120262297E+03  0.21685716033E+03  0.00000000000E+00 0. -1.
         -2    1    5    5    0  503  0.12179871269E+02 -0.80544289008E+01  0.41403642491E+01  0.15177803041E+02  0.00000000000E+00 0.  1.
         -1    1    6    6    0  502 -0.37906091241E+02  0.62584227857E+01 -0.12723028791E+02  0.40471163444E+02  0.00000000000E+00 0.  1.
<mgrwt>
<rscale>  0 0.30995288E+04</rscale>
<asrwt>0</asrwt>
<pdfrwt beam="1">  1        1 0.18633026E+00 0.30995288E+04</pdfrwt>
<pdfrwt beam="2">  1       -1 0.30508529E+00 0.30995288E+04</pdfrwt>
<totfact> 0.27082246E-01</totfact>
</mgrwt>
</event>
<event>
12    1  0.1960998E-007  0.1413575E+04  0.7818608E-02  0.8944051E-01
         -2   -1    0    0    0  501 -0.00000000000E+00  0.00000000000E+00  0.62505479191E+03  0.62505479191E+03  0.00000000000E+00 0.  1.
          2   -1    0    0  501    0  0.00000000000E+00 -0.00000000000E+00 -0.79920731854E+03  0.79920731854E+03  0.00000000000E+00 0. -1.
         23    2    1    2    0    0  0.14077302868E+03  0.32820559081E+03 -0.26506645951E+03  0.45389163806E+03  0.90672133003E+02 0.  0.
        254    2    1    2    0    0 -0.14077302868E+03 -0.32820559081E+03  0.90913932875E+02  0.97037047239E+03  0.89767341224E+03 0.  0.
        -24    2    4    4    0    0  0.33860210846E+03 -0.25760913570E+03  0.18219770175E+03  0.47094915127E+03  0.87081834570E+02 0.  0.
         24    2    4    4    0    0 -0.47937513715E+03 -0.70596455118E+02 -0.91283768875E+02  0.49942132112E+03  0.79401183466E+02 0.  0.
         11    1    3    3    0    0  0.16668262544E+02  0.50722408293E+02 -0.85624862545E+02  0.10090694111E+03  0.00000000000E+00 0. -1.
        -11    1    3    3    0    0  0.12410476614E+03  0.27748318252E+03 -0.17944159696E+03  0.35298469695E+03  0.00000000000E+00 0.  1.
          4    1    6    6  502    0 -0.63777342051E+02 -0.25788836426E+02  0.94731587750E+01  0.69443172310E+02  0.00000000000E+00 0. -1.
          3    1    5    5  503    0  0.16135529574E+03 -0.84296868982E+02  0.11021366738E+03  0.21281105719E+03  0.00000000000E+00 0. -1.
         -4    1    5    5    0  503  0.17724681272E+03 -0.17331226672E+03  0.71984034368E+02  0.25813809409E+03  0.00000000000E+00 0.  1.
         -3    1    6    6    0  502 -0.41559779510E+03 -0.44807618691E+02 -0.10075692765E+03  0.42997814881E+03  0.00000000000E+00 0.  1.
<mgrwt>
<rscale>  0 0.14135747E+04</rscale>
<asrwt>0</asrwt>
<pdfrwt beam="1">  1        2 0.12295497E+00 0.14135747E+04</pdfrwt>
<pdfrwt beam="2">  1       -2 0.96162276E-01 0.14135747E+04</pdfrwt>
<totfact> 0.30388166E+01</totfact>
</mgrwt>
</event>
<event>
12    1  0.1960998E-007  0.2447973E+04  0.7818608E-02  0.8421759E-01
         -2   -1    0    0    0  501 -0.00000000000E+00  0.00000000000E+00  0.85467158966E+03  0.85467158966E+03  0.00000000000E+00 0.  1.
          2   -1    0    0  501    0  0.00000000000E+00 -0.00000000000E+00 -0.17528869578E+04  0.17528869578E+04  0.00000000000E+00 0. -1.
         23    2    1    2    0    0 -0.32031195545E+03 -0.27442393607E+03 -0.14204442815E+04  0.14845062274E+04  0.90490533397E+02 0.  0.
        254    2    1    2    0    0  0.32031195545E+03  0.27442393607E+03  0.52222891342E+03  0.11230523201E+04  0.90034172963E+03 0.  0.
        -24    2    4    4    0    0  0.27012977733E+03  0.27841536889E+03 -0.16593725447E+03  0.42941629736E+03  0.79862192482E+02 0.  0.
         24    2    4    4    0    0  0.50182178116E+02 -0.39914328156E+01  0.68816616789E+03  0.69363602270E+03  0.70880708413E+02 0.  0.
         11    1    3    3    0    0 -0.16438777729E+03 -0.88774517303E+02 -0.54621492290E+03  0.57728242503E+03  0.00000000000E+00 0.  1.
        -11    1    3    3    0    0 -0.15592417816E+03 -0.18564941877E+03 -0.87422935864E+03  0.90722380234E+03  0.00000000000E+00 0. -1.
          4    1    6    6  502    0  0.11176204344E+02 -0.23097447337E+01  0.12825959565E+02  0.17168217817E+02  0.00000000000E+00 0. -1.
          3    1    5    5  503    0 -0.75770211642E+00  0.24620580083E+02 -0.69124072959E+01  0.25583753649E+02  0.00000000000E+00 0. -1.
         -4    1    5    5    0  503  0.27088747945E+03  0.25379478880E+03 -0.15902484717E+03  0.40383254372E+03  0.00000000000E+00 0.  1.
         -3    1    6    6    0  502  0.39005973772E+02 -0.16816880819E+01  0.67534020833E+03  0.67646780489E+03  0.00000000000E+00 0.  1.
<mgrwt>
<rscale>  0 0.24479728E+04</rscale>
<asrwt>0</asrwt>
<pdfrwt beam="1">  1        2 0.26967492E+00 0.24479728E+04</pdfrwt>
<pdfrwt beam="2">  1       -2 0.13148794E+00 0.24479728E+04</pdfrwt>
<totfact> 0.34640325E+00</totfact>
</mgrwt>
</event>
<event>
12    1  0.1960998E-007  0.2232696E+04  0.7818608E-02  0.8504941E-01
         -1   -1    0    0    0  501 -0.00000000000E+00  0.00000000000E+00  0.65419071481E+03  0.65419071481E+03  0.00000000000E+00 0.  1.
          1   -1    0    0  501    0  0.00000000000E+00 -0.00000000000E+00 -0.19049997209E+04  0.19049997209E+04  0.00000000000E+00 0. -1.
         23    2    1    2    0    0 -0.26713317869E+03 -0.78904905269E+03 -0.45896316863E+02  0.83936294088E+03  0.92006151495E+02 0.  0.
        254    2    1    2    0    0  0.26713317869E+03  0.78904905269E+03 -0.12049126892E+04  0.17198274948E+04  0.90112900328E+03 0.  0.
        -24    2    4    4    0    0  0.24520945367E+03  0.97982655053E+03 -0.92600156947E+03  0.13726722109E+04  0.81008312728E+02 0.  0.
         24    2    4    4    0    0  0.21923725014E+02 -0.19077749784E+03 -0.27891111972E+03  0.34715528385E+03  0.76476630407E+02 0.  0.
         11    1    3    3    0    0 -0.13684283687E+02 -0.96569018025E+01  0.68637230756E+01  0.18100443832E+02  0.00000000000E+00 0.  1.
        -11    1    3    3    0    0 -0.25344889500E+03 -0.77939215088E+03 -0.52760039938E+02  0.82126249704E+03  0.00000000000E+00 0. -1.
          4    1    6    6  502    0  0.38105437648E+02 -0.67264876633E+02 -0.14461132921E+03  0.16397873199E+03  0.00000000000E+00 0. -1.
          1    1    5    5  503    0  0.92143666746E+02  0.33450025997E+03 -0.26799222400E+03  0.43840701564E+03  0.00000000000E+00 0. -1.
         -2    1    5    5    0  503  0.15306578693E+03  0.64532629056E+03 -0.65800934547E+03  0.93426519529E+03  0.00000000000E+00 0.  1.
         -3    1    6    6    0  502 -0.16181712634E+02 -0.12351262121E+03 -0.13429979051E+03  0.18317655186E+03  0.00000000000E+00 0.  1.
<mgrwt>
<rscale>  0 0.22326962E+04</rscale>
<asrwt>0</asrwt>
<pdfrwt beam="1">  1        1 0.29307687E+00 0.22326962E+04</pdfrwt>
<pdfrwt beam="2">  1       -1 0.10064473E+00 0.22326962E+04</pdfrwt>
<totfact> 0.29511714E+00</totfact>
</mgrwt>
</event>
<event>
12    1  0.1960998E-007  0.2202347E+04  0.7818608E-02  0.8517452E-01
         -2   -1    0    0    0  501 -0.00000000000E+00  0.00000000000E+00  0.76564724661E+03  0.76564724661E+03  0.00000000000E+00 0.  1.
          2   -1    0    0  501    0  0.00000000000E+00 -0.00000000000E+00 -0.15837363417E+04  0.15837363417E+04  0.00000000000E+00 0. -1.
         23    2    1    2    0    0  0.38973020916E+03 -0.82288158196E+03 -0.46232568520E+03  0.10249996700E+04  0.88631542664E+02 0.  0.
        254    2    1    2    0    0 -0.38973020916E+03  0.82288158196E+03 -0.35576340989E+03  0.13243839184E+04  0.89353311384E+03 0.  0.
        -24    2    4    4    0    0 -0.44499715209E+03  0.14658835437E+03 -0.42508144454E+03  0.63765414561E+03  0.79987273507E+02 0.  0.
         24    2    4    4    0    0  0.55266942930E+02  0.67629322759E+03  0.69318034649E+02  0.68672977274E+03  0.79786127745E+02 0.  0.
         11    1    3    3    0    0  0.37599497704E+03 -0.81552570589E+03 -0.46077886281E+03  0.10093421423E+04  0.00000000000E+00 0. -1.
        -11    1    3    3    0    0  0.13735232122E+02 -0.73558760719E+01 -0.15468223937E+01  0.15657527702E+02  0.00000000000E+00 0.  1.
          2    1    6    6  502    0 -0.14785125817E+02  0.30417387046E+03  0.27508491563E+02  0.30577289043E+03  0.00000000000E+00 0. -1.
          1    1    5    5  503    0 -0.23858237623E+02 -0.65379752587E+01 -0.38878069931E+02  0.46081069264E+02  0.00000000000E+00 0. -1.
         -2    1    5    5    0  503 -0.42113891447E+03  0.15312632963E+03 -0.38620337461E+03  0.59157307635E+03  0.00000000000E+00 0.  1.
         -1    1    6    6    0  502  0.70052068747E+02  0.37211935713E+03  0.41809543086E+02  0.38095688231E+03  0.00000000000E+00 0.  1.
<mgrwt>
<rscale>  0 0.22023473E+04</rscale>
<asrwt>0</asrwt>
<pdfrwt beam="1">  1        2 0.24365174E+00 0.22023473E+04</pdfrwt>
<pdfrwt beam="2">  1       -2 0.11779189E+00 0.22023473E+04</pdfrwt>
<totfact> 0.57873504E+00</totfact>
</mgrwt>
</event>
<event>
12    1  0.1960998E-007  0.1740102E+04  0.7818608E-02  0.8738818E-01
         -2   -1    0    0    0  501 -0.00000000000E+00  0.00000000000E+00  0.44791079392E+03  0.44791079392E+03  0.00000000000E+00 0.  1.
          2   -1    0    0  501    0  0.00000000000E+00 -0.00000000000E+00 -0.16900428804E+04  0.16900428804E+04  0.00000000000E+00 0. -1.
         23    2    1    2    0    0 -0.40954853908E+03  0.36145900738E+03 -0.84858797780E+03  0.10134055329E+04  0.92231221650E+02 0.  0.
        254    2    1    2    0    0  0.40954853908E+03 -0.36145900738E+03 -0.39354410872E+03  0.11245481414E+04  0.90074909770E+03 0.  0.
        -24    2    4    4    0    0  0.57765969525E+02  0.23195708429E+03 -0.34639720365E+03  0.42840657190E+03  0.80001074767E+02 0.  0.
         24    2    4    4    0    0  0.35178256955E+03 -0.59341609168E+03 -0.47146905070E+02  0.69614156952E+03  0.80601613253E+02 0.  0.
         11    1    3    3    0    0 -0.23214387747E+03  0.21473376942E+03 -0.40704041143E+03  0.51544472848E+03  0.00000000000E+00 0.  1.
        -11    1    3    3    0    0 -0.17740466161E+03  0.14672523797E+03 -0.44154756637E+03  0.49796080447E+03  0.00000000000E+00 0. -1.
          2    1    6    6  502    0  0.12525253696E+03 -0.18024208691E+03 -0.49210400246E+02  0.22493792788E+03  0.00000000000E+00 0. -1.
          1    1    5    5  503    0  0.33814713446E+02  0.94520681815E+02 -0.82638584443E+02  0.13002588117E+03  0.00000000000E+00 0. -1.
         -4    1    5    5    0  503  0.23951256079E+02  0.13743640248E+03 -0.26375861921E+03  0.29838069073E+03  0.00000000000E+00 0.  1.
         -1    1    6    6    0  502  0.22653003259E+03 -0.41317400477E+03  0.20634951760E+01  0.47120364164E+03  0.00000000000E+00 0.  1.
<mgrwt>
<rscale>  0 0.17401017E+04</rscale>
<asrwt>0</asrwt>
<pdfrwt beam="1">  1        2 0.26000659E+00 0.17401017E+04</pdfrwt>
<pdfrwt beam="2">  1       -2 0.68909354E-01 0.17401017E+04</pdfrwt>
<totfact> 0.18123576E+01</totfact>
</mgrwt>
</event>
<event>
12    1  0.1960998E-007  0.1917352E+04  0.7818608E-02  0.8646267E-01
          2   -1    0    0  501    0  0.00000000000E+00  0.00000000000E+00  0.23673747921E+04  0.23673747921E+04  0.00000000000E+00 0. -1.
         -2   -1    0    0    0  501 -0.00000000000E+00 -0.00000000000E+00 -0.38821905262E+03  0.38821905262E+03  0.00000000000E+00 0.  1.
         23    2    1    2    0    0  0.97911184187E+02 -0.61712042022E+03  0.13645103916E+04  0.15035254943E+04  0.90973020347E+02 0.  0.
        254    2    1    2    0    0 -0.97911184187E+02  0.61712042022E+03  0.61464534792E+03  0.12520683504E+04  0.89412641009E+03 0.  0.
        -24    2    4    4    0    0 -0.42629121519E+03  0.58447617815E+02  0.23492311577E+03  0.49676295176E+03  0.80275997290E+02 0.  0.
         24    2    4    4    0    0  0.32838003100E+03  0.55867280241E+03  0.37972223215E+03  0.75530539861E+03  0.79677642225E+02 0.  0.
         11    1    3    3    0    0  0.11538380552E+03 -0.55601631816E+03  0.12299103447E+04  0.13546759851E+04  0.00000000000E+00 0.  1.
        -11    1    3    3    0    0 -0.17472621332E+02 -0.61104102061E+02  0.13460004689E+03  0.14884950926E+03  0.00000000000E+00 0. -1.
          4    1    6    6  502    0  0.27576594396E+03  0.50278808493E+03  0.31137950065E+03  0.65253345325E+03  0.00000000000E+00 0. -1.
          1    1    5    5  503    0 -0.34834950094E+03  0.15523833428E+02  0.18945309973E+03  0.39683855812E+03  0.00000000000E+00 0. -1.
         -2    1    5    5    0  503 -0.77941714244E+02  0.42923784387E+02  0.45470016038E+02  0.99924393638E+02  0.00000000000E+00 0.  1.
         -3    1    6    6    0  502  0.52614087044E+02  0.55884717482E+02  0.68342731501E+02  0.10277194536E+03  0.00000000000E+00 0.  1.
<mgrwt>
<rscale>  0 0.19173523E+04</rscale>
<asrwt>0</asrwt>
<pdfrwt beam="1">  1        2 0.36421150E+00 0.19173523E+04</pdfrwt>
<pdfrwt beam="2">  1       -2 0.59726009E-01 0.19173523E+04</pdfrwt>
<totfact> 0.10155110E+01</totfact>
</mgrwt>
</event>
<event>
12    1  0.1960998E-007  0.4020145E+04  0.7818608E-02  0.8000495E-01
          2   -1    0    0  501    0  0.00000000000E+00  0.00000000000E+00  0.17440104560E+04  0.17440104560E+04  0.00000000000E+00 0. -1.
         -2   -1    0    0    0  501 -0.00000000000E+00 -0.00000000000E+00 -0.23167246409E+04  0.23167246409E+04  0.00000000000E+00 0.  1.
         23    2    1    2    0    0 -0.88187844894E+03  0.84350813078E+03 -0.17530983751E+04  0.21379596204E+04  0.91114545176E+02 0.  0.
        254    2    1    2    0    0  0.88187844894E+03 -0.84350813078E+03  0.11803841902E+04  0.19227754764E+04  0.90252043243E+03 0.  0.
        -24    2    4    4    0    0 -0.16373786623E+03 -0.20053367245E+03  0.10957535310E+03  0.29190345996E+03  0.78594079335E+02 0.  0.
         24    2    4    4    0    0  0.10456163152E+04 -0.64297445833E+03  0.10708088371E+04  0.16308720165E+04  0.79889523274E+02 0.  0.
         11    1    3    3    0    0 -0.59304141248E+03  0.56997387840E+03 -0.11053757833E+04  0.13778330673E+04  0.00000000000E+00 0. -1.
        -11    1    3    3    0    0 -0.28883703645E+03  0.27353425239E+03 -0.64772259179E+03  0.76012655313E+03  0.00000000000E+00 0.  1.
          4    1    6    6  502    0  0.14797188186E+03 -0.76386292586E+02  0.11415893081E+03  0.20189800643E+03  0.00000000000E+00 0. -1.
          3    1    5    5  503    0 -0.12324440793E+02 -0.19419887012E+02  0.39405813363E+02  0.45627206568E+02  0.00000000000E+00 0. -1.
         -4    1    5    5    0  503 -0.15141342544E+03 -0.18111378544E+03  0.70169539737E+02  0.24627625339E+03  0.00000000000E+00 0.  1.
         -3    1    6    6    0  502  0.89764443331E+03 -0.56658816575E+03  0.95664990628E+03  0.14289740100E+04  0.00000000000E+00 0.  1.
<mgrwt>
<rscale>  0 0.40201453E+04</rscale>
<asrwt>0</asrwt>
<pdfrwt beam="1">  1        2 0.26830930E+00 0.40201453E+04</pdfrwt>
<pdfrwt beam="2">  1       -2 0.35641917E+00 0.40201453E+04</pdfrwt>
<totfact> 0.10342150E-01</totfact>
</mgrwt>
</event>
<event>
12    1  0.1960998E-007  0.3205745E+04  0.7818608E-02  0.8187302E-01
         -1   -1    0    0    0  501 -0.00000000000E+00  0.00000000000E+00  0.19990873091E+04  0.19990873091E+04  0.00000000000E+00 0.  1.
          1   -1    0    0  501    0  0.00000000000E+00 -0.00000000000E+00 -0.12851868690E+04  0.12851868690E+04  0.00000000000E+00 0. -1.
         23    2    1    2    0    0 -0.39272679528E+03 -0.10692496134E+04 -0.63030068609E+03  0.13061171486E+04  0.10551767342E+03 0.  0.
        254    2    1    2    0    0  0.39272679528E+03  0.10692496134E+04  0.13442011262E+04  0.19781570296E+04  0.89927720659E+03 0.  0.
        -24    2    4    4    0    0  0.30596624173E+03  0.10875096843E+04  0.71810408420E+03  0.13410711666E+04  0.80658190296E+02 0.  0.
         24    2    4    4    0    0  0.86760553549E+02 -0.18260070883E+02  0.62609704204E+03  0.63708586295E+03  0.77589089924E+02 0.  0.
         11    1    3    3    0    0 -0.31978156882E+03 -0.77339564604E+03 -0.42438928597E+03  0.93835352779E+03  0.00000000000E+00 0.  1.
        -11    1    3    3    0    0 -0.72945226459E+02 -0.29585396736E+03 -0.20591140012E+03  0.36776362077E+03  0.00000000000E+00 0. -1.
          2    1    6    6  502    0  0.34865403986E+02  0.30474103683E+02  0.27004714823E+03  0.27398855753E+03  0.00000000000E+00 0. -1.
          3    1    5    5  503    0  0.13362349607E+03  0.34002572936E+03  0.24266654022E+03  0.43858840052E+03  0.00000000000E+00 0. -1.
         -4    1    5    5    0  503  0.17234274565E+03  0.74748395493E+03  0.47543754398E+03  0.90248276608E+03  0.00000000000E+00 0.  1.
         -1    1    6    6    0  502  0.51895149563E+02 -0.48734174567E+02  0.35604989381E+03  0.36309730542E+03  0.00000000000E+00 0.  1.
<mgrwt>
<rscale>  0 0.32057453E+04</rscale>
<asrwt>0</asrwt>
<pdfrwt beam="1">  1        1 0.19772106E+00 0.32057453E+04</pdfrwt>
<pdfrwt beam="2">  1       -1 0.30755189E+00 0.32057453E+04</pdfrwt>
<totfact> 0.22861839E-01</totfact>
</mgrwt>
</event>
<event>
12    1  0.1960998E-007  0.2851043E+04  0.7818608E-02  0.8287594E-01
          1   -1    0    0  501    0  0.00000000000E+00  0.00000000000E+00  0.19662200691E+04  0.19662200691E+04  0.00000000000E+00 0. -1.
         -1   -1    0    0    0  501 -0.00000000000E+00 -0.00000000000E+00 -0.10335120941E+04  0.10335120941E+04  0.00000000000E+00 0.  1.
         23    2    1    2    0    0  0.83234761317E+03 -0.62184303179E+03  0.12091641850E+04  0.15968902258E+04  0.92136104659E+02 0.  0.
        254    2    1    2    0    0 -0.83234761317E+03  0.62184303179E+03 -0.27645620997E+03  0.14028419374E+04  0.90113603857E+03 0.  0.
        -24    2    4    4    0    0 -0.76405096643E+03  0.22146210243E+03  0.14397690834E+03  0.81252823681E+03  0.81568642099E+02 0.  0.
         24    2    4    4    0    0 -0.68296646744E+02  0.40038092935E+03 -0.42043311831E+03  0.59031370060E+03  0.82078849894E+02 0.  0.
         11    1    3    3    0    0  0.37909753571E+03 -0.25131305271E+03  0.58709287403E+03  0.74266495459E+03  0.00000000000E+00 0. -1.
        -11    1    3    3    0    0  0.45325007746E+03 -0.37052997908E+03  0.62207131094E+03  0.85422527123E+03  0.00000000000E+00 0.  1.
          4    1    6    6  502    0 -0.21007192566E+02  0.16943574739E+02 -0.38794692482E+02  0.47259020612E+02  0.00000000000E+00 0. -1.
          3    1    5    5  503    0 -0.11959396284E+03  0.66482580725E+02  0.26151074141E+02  0.13930731555E+03  0.00000000000E+00 0. -1.
         -4    1    5    5    0  503 -0.64445700358E+03  0.15497952171E+03  0.11782583420E+03  0.67322092126E+03  0.00000000000E+00 0.  1.
         -3    1    6    6    0  502 -0.47289454178E+02  0.38343735462E+03 -0.38163842583E+03  0.54305467999E+03  0.00000000000E+00 0.  1.
<mgrwt>
<rscale>  0 0.28510435E+04</rscale>
<asrwt>0</asrwt>
<pdfrwt beam="1">  1        1 0.30249539E+00 0.28510435E+04</pdfrwt>
<pdfrwt beam="2">  1       -1 0.15900186E+00 0.28510435E+04</pdfrwt>
<totfact> 0.80524652E-01</totfact>
</mgrwt>
</event>
<event>
12    1  0.1960998E-007  0.2052236E+04  0.7818608E-02  0.8582581E-01
         -2   -1    0    0    0  501 -0.00000000000E+00  0.00000000000E+00  0.32120030054E+03  0.32120030054E+03  0.00000000000E+00 0.  1.
          2   -1    0    0  501    0  0.00000000000E+00 -0.00000000000E+00 -0.32780728106E+04  0.32780728106E+04  0.00000000000E+00 0. -1.
         23    2    1    2    0    0 -0.77114072224E+03  0.29489249217E+03 -0.12261370396E+04  0.14811290161E+04  0.93335561982E+02 0.  0.
        254    2    1    2    0    0  0.77114072224E+03 -0.29489249217E+03 -0.17307354704E+04  0.21181440950E+04  0.89970525343E+03 0.  0.
        -24    2    4    4    0    0  0.18221991968E+03  0.84266878375E+02 -0.12407960903E+04  0.12594418419E+04  0.79459483149E+02 0.  0.
         24    2    4    4    0    0  0.58892080255E+03 -0.37915937054E+03 -0.48993938010E+03  0.85870225307E+03  0.82093990608E+02 0.  0.
         11    1    3    3    0    0 -0.45329813412E+03  0.20649502343E+03 -0.79667068817E+03  0.93957627604E+03  0.00000000000E+00 0. -1.
        -11    1    3    3    0    0 -0.31784258812E+03  0.88397468739E+02 -0.42946635142E+03  0.54155274010E+03  0.00000000000E+00 0.  1.
          4    1    6    6  502    0  0.31054900073E+02 -0.26965415182E+02 -0.54267120132E+02  0.68091561606E+02  0.00000000000E+00 0. -1.
          3    1    5    5  503    0 -0.35657569106E+01  0.16772055725E+02 -0.13919044229E+03  0.14024263154E+03  0.00000000000E+00 0. -1.
         -4    1    5    5    0  503  0.18578567659E+03  0.67494822650E+02 -0.11016056480E+04  0.11191992104E+04  0.00000000000E+00 0.  1.
         -3    1    6    6    0  502  0.55786590248E+03 -0.35219395536E+03 -0.43567225997E+03  0.79061069146E+03  0.00000000000E+00 0.  1.
<mgrwt>
<rscale>  0 0.20522358E+04</rscale>
<asrwt>0</asrwt>
<pdfrwt beam="1">  1        2 0.50431890E+00 0.20522358E+04</pdfrwt>
<pdfrwt beam="2">  1       -2 0.49415431E-01 0.20522358E+04</pdfrwt>
<totfact> 0.41455802E+00</totfact>
</mgrwt>
</event>
<event>
12    1  0.1960998E-007  0.2689531E+04  0.7818608E-02  0.8338410E-01
         -2   -1    0    0    0  501 -0.00000000000E+00  0.00000000000E+00  0.74486375087E+03  0.74486375087E+03  0.00000000000E+00 0.  1.
          2   -1    0    0  501    0  0.00000000000E+00 -0.00000000000E+00 -0.24278179796E+04  0.24278179796E+04  0.00000000000E+00 0. -1.
         23    2    1    2    0    0 -0.99805172246E+03 -0.64324012775E+03 -0.87909111138E+03  0.14802706107E+04  0.92383961021E+02 0.  0.
        254    2    1    2    0    0  0.99805172246E+03  0.64324012775E+03 -0.80386311733E+03  0.16924111197E+04  0.89899632039E+03 0.  0.
        -24    2    4    4    0    0  0.97190795489E+02  0.13982687128E+02  0.17452016910E+03  0.21872463067E+03  0.87986410139E+02 0.  0.
         24    2    4    4    0    0  0.90086092697E+03  0.62925744063E+03 -0.97838328643E+03  0.14736864890E+04  0.83681996296E+02 0.  0.
         13    1    3    3    0    0 -0.41761663792E+03 -0.31122093224E+03 -0.42128577223E+03  0.66988344271E+03  0.00000000000E+00 0. -1.
        -13    1    3    3    0    0 -0.58043508454E+03 -0.33201919551E+03 -0.45780533915E+03  0.81038716803E+03  0.00000000000E+00 0.  1.
          2    1    6    6  502    0  0.34925005264E+03  0.19677938336E+03 -0.37094741611E+03  0.54616820715E+03  0.00000000000E+00 0. -1.
          3    1    5    5  503    0  0.23736047818E+02  0.23157858061E+02  0.12581828365E+03  0.13011505238E+03  0.00000000000E+00 0. -1.
         -4    1    5    5    0  503  0.73454747671E+02 -0.91751709328E+01  0.48701885456E+02  0.88609578286E+02  0.00000000000E+00 0.  1.
         -1    1    6    6    0  502  0.55161087433E+03  0.43247805726E+03 -0.60743587032E+03  0.92751828190E+03  0.00000000000E+00 0.  1.
<mgrwt>
<rscale>  0 0.26895305E+04</rscale>
<asrwt>0</asrwt>
<pdfrwt beam="1">  1        2 0.37351046E+00 0.26895305E+04</pdfrwt>
<pdfrwt beam="2">  1       -2 0.11459442E+00 0.26895305E+04</pdfrwt>
<totfact> 0.20007083E+00</totfact>
</mgrwt>
</event>
<event>
12    1  0.1960998E-007  0.2417308E+04  0.7818608E-02  0.8433052E-01
          2   -1    0    0  501    0  0.00000000000E+00  0.00000000000E+00  0.24169775062E+04  0.24169775062E+04  0.00000000000E+00 0. -1.
         -2   -1    0    0    0  501 -0.00000000000E+00 -0.00000000000E+00 -0.60440968662E+03  0.60440968662E+03  0.00000000000E+00 0.  1.
         23    2    1    2    0    0 -0.56943349306E+03  0.86522281582E+03  0.73119034553E+03  0.12712886153E+04  0.93114972166E+02 0.  0.
        254    2    1    2    0    0  0.56943349306E+03 -0.86522281582E+03  0.10813774741E+04  0.17500985775E+04  0.90587127426E+03 0.  0.
        -24    2    4    4    0    0  0.35861998902E+03 -0.50615533404E+03  0.41765075503E+02  0.62710849327E+03  0.81970861289E+02 0.  0.
         24    2    4    4    0    0  0.21081350405E+03 -0.35906748178E+03  0.10396123985E+04  0.11229900842E+04  0.83312664645E+02 0.  0.
         11    1    3    3    0    0 -0.37393788977E+03  0.62017183876E+03  0.47078245906E+03  0.86375851877E+03  0.00000000000E+00 0. -1.
        -11    1    3    3    0    0 -0.19549560329E+03  0.24505097706E+03  0.26040788647E+03  0.40753009656E+03  0.00000000000E+00 0.  1.
          2    1    6    6  502    0  0.99574461637E+02 -0.93565561707E+02  0.32164424044E+03  0.34946331017E+03  0.00000000000E+00 0. -1.
          3    1    5    5  503    0  0.31186995392E+02 -0.95012019837E+02  0.21691726580E+01  0.10002308686E+03  0.00000000000E+00 0. -1.
         -4    1    5    5    0  503  0.32743299363E+03 -0.41114331420E+03  0.39595902845E+02  0.52708540641E+03  0.00000000000E+00 0.  1.
         -1    1    6    6    0  502  0.11123904241E+03 -0.26550192007E+03  0.71796815811E+03  0.77352677405E+03  0.00000000000E+00 0.  1.
<mgrwt>
<rscale>  0 0.24173081E+04</rscale>
<asrwt>0</asrwt>
<pdfrwt beam="1">  1        2 0.37184269E+00 0.24173081E+04</pdfrwt>
<pdfrwt beam="2">  1       -2 0.92986107E-01 0.24173081E+04</pdfrwt>
<totfact> 0.34195555E+00</totfact>
</mgrwt>
</event>
<event>
12    1  0.1960998E-007  0.1867119E+04  0.7818608E-02  0.8671399E-01
          2   -1    0    0  501    0  0.00000000000E+00  0.00000000000E+00  0.88422539248E+03  0.88422539248E+03  0.00000000000E+00 0. -1.
         -2   -1    0    0    0  501 -0.00000000000E+00 -0.00000000000E+00 -0.98564624490E+03  0.98564624490E+03  0.00000000000E+00 0.  1.
         23    2    1    2    0    0 -0.29462665962E+03  0.61833758289E+03  0.15692525447E+03  0.70856947162E+03  0.91098439367E+02 0.  0.
        254    2    1    2    0    0  0.29462665962E+03 -0.61833758289E+03 -0.25834610688E+03  0.11613021658E+04  0.90151748418E+03 0.  0.
        -24    2    4    4    0    0 -0.33884192648E+02  0.96766312762E+02 -0.34090870637E+03  0.36549112019E+03  0.82783784982E+02 0.  0.
         24    2    4    4    0    0  0.32851085227E+03 -0.71510389565E+03  0.82562599491E+02  0.79581104557E+03  0.84886252051E+02 0.  0.
         11    1    3    3    0    0 -0.91958140236E+02  0.27953565031E+03  0.93114012198E+02  0.30865303922E+03  0.00000000000E+00 0. -1.
        -11    1    3    3    0    0 -0.20266851939E+03  0.33880193257E+03  0.63811242269E+02  0.39991643240E+03  0.00000000000E+00 0.  1.
          2    1    6    6  502    0  0.28890439156E+03 -0.56972520662E+03  0.89199568009E+02  0.64498769093E+03  0.00000000000E+00 0. -1.
          1    1    5    5  503    0  0.15440193812E+02  0.75639545681E+02 -0.17949986773E+03  0.19539688578E+03  0.00000000000E+00 0. -1.
         -2    1    5    5    0  503 -0.49324386461E+02  0.21126767080E+02 -0.16140883864E+03  0.17009423441E+03  0.00000000000E+00 0.  1.
         -1    1    6    6    0  502  0.39606460716E+02 -0.14537868903E+03 -0.66369685181E+01  0.15082335465E+03  0.00000000000E+00 0.  1.
<mgrwt>
<rscale>  0 0.18671191E+04</rscale>
<asrwt>0</asrwt>
<pdfrwt beam="1">  1        2 0.13603468E+00 0.18671191E+04</pdfrwt>
<pdfrwt beam="2">  1       -2 0.15163788E+00 0.18671191E+04</pdfrwt>
<totfact> 0.82133308E+00</totfact>
</mgrwt>
</event>
<event>
12    1  0.1960998E-007  0.2099912E+04  0.7818608E-02  0.8561282E-01
          2   -1    0    0  501    0  0.00000000000E+00  0.00000000000E+00  0.15506420895E+04  0.15506420895E+04  0.00000000000E+00 0. -1.
         -2   -1    0    0    0  501 -0.00000000000E+00 -0.00000000000E+00 -0.71093600644E+03  0.71093600644E+03  0.00000000000E+00 0.  1.
         23    2    1    2    0    0 -0.15379326154E+03  0.14806497856E+03  0.12360428030E+04  0.12575135498E+04  0.89235150210E+02 0.  0.
        254    2    1    2    0    0  0.15379326154E+03 -0.14806497856E+03 -0.39633671990E+03  0.10040645461E+04  0.89748939385E+03 0.  0.
        -24    2    4    4    0    0  0.31671184196E+03 -0.43633606231E+03 -0.37303833227E+03  0.66040943321E+03  0.79293581185E+02 0.  0.
         24    2    4    4    0    0 -0.16291858042E+03  0.28827108375E+03 -0.23298387630E+02  0.34365511291E+03  0.88956956957E+02 0.  0.
         11    1    3    3    0    0 -0.11894776357E+03  0.13199542140E+03  0.11451497261E+04  0.11588525604E+04  0.00000000000E+00 0. -1.
        -11    1    3    3    0    0 -0.34845497977E+02  0.16069557163E+02  0.90893076925E+02  0.98660989401E+02  0.00000000000E+00 0.  1.
          2    1    6    6  502    0 -0.96671418920E+01  0.23654563888E+02  0.22999170967E+02  0.34379556284E+02  0.00000000000E+00 0. -1.
          3    1    5    5  503    0  0.46135608363E+02 -0.58156996031E+02 -0.87438460658E+02  0.11470054467E+03  0.00000000000E+00 0. -1.
         -4    1    5    5    0  503  0.27057623360E+03 -0.37817906628E+03 -0.28559987161E+03  0.54570888854E+03  0.00000000000E+00 0.  1.
         -1    1    6    6    0  502 -0.15325143853E+03  0.26461651986E+03 -0.46297558598E+02  0.30927555663E+03  0.00000000000E+00 0.  1.
<mgrwt>
<rscale>  0 0.20999117E+04</rscale>
<asrwt>0</asrwt>
<pdfrwt beam="1">  1        2 0.23856032E+00 0.20999117E+04</pdfrwt>
<pdfrwt beam="2">  1       -2 0.10937477E+00 0.20999117E+04</pdfrwt>
<totfact> 0.72978620E+00</totfact>
</mgrwt>
</event>
<event>
12    1  0.1960998E-007  0.1925075E+04  0.7818608E-02  0.8642474E-01
         -2   -1    0    0    0  501 -0.00000000000E+00  0.00000000000E+00  0.34934105349E+03  0.34934105349E+03  0.00000000000E+00 0.  1.
          2   -1    0    0  501    0  0.00000000000E+00 -0.00000000000E+00 -0.26520753405E+04  0.26520753405E+04  0.00000000000E+00 0. -1.
         23    2    1    2    0    0  0.53477416123E+03  0.39860438080E+03 -0.13758814385E+04  0.15316898050E+04  0.90305426830E+02 0.  0.
        254    2    1    2    0    0 -0.53477416123E+03 -0.39860438080E+03 -0.92685284856E+03  0.14697265890E+04  0.92529518946E+03 0.  0.
        -24    2    4    4    0    0 -0.55383061274E+03 -0.65591347497E+02 -0.97182287111E+02  0.57207470037E+03  0.82428717073E+02 0.  0.
         24    2    4    4    0    0  0.19056451508E+02 -0.33301303331E+03 -0.82967056145E+03  0.89765188864E+03  0.78516520186E+02 0.  0.
         11    1    3    3    0    0  0.29286501742E+03  0.25797027179E+03 -0.87126772499E+03  0.95468635067E+03  0.00000000000E+00 0.  1.
        -11    1    3    3    0    0  0.24190914381E+03  0.14063410901E+03 -0.50461371349E+03  0.57700345434E+03  0.00000000000E+00 0. -1.
          2    1    6    6  502    0  0.35120421150E+02 -0.64485959381E+02 -0.19196188294E+03  0.20552675602E+03  0.00000000000E+00 0. -1.
          1    1    5    5  503    0 -0.53632784491E+03 -0.78451731468E+02 -0.92973715917E+02  0.54995121897E+03  0.00000000000E+00 0. -1.
         -2    1    5    5    0  503 -0.17502767828E+02  0.12860383971E+02 -0.42085711943E+01  0.22123481395E+02  0.00000000000E+00 0.  1.
         -1    1    6    6    0  502 -0.16063969641E+02 -0.26852707392E+03 -0.63770867852E+03  0.69212513262E+03  0.00000000000E+00 0.  1.
<mgrwt>
<rscale>  0 0.19250754E+04</rscale>
<asrwt>0</asrwt>
<pdfrwt beam="1">  1        2 0.40801159E+00 0.19250754E+04</pdfrwt>
<pdfrwt beam="2">  1       -2 0.53744778E-01 0.19250754E+04</pdfrwt>
<totfact> 0.86551373E+00</totfact>
</mgrwt>
</event>
<event>
12    1  0.1960998E-007  0.2062776E+04  0.7818608E-02  0.8577821E-01
         -1   -1    0    0    0  501 -0.00000000000E+00  0.00000000000E+00  0.93749097444E+03  0.93749097444E+03  0.00000000000E+00 0.  1.
          1   -1    0    0  501    0  0.00000000000E+00 -0.00000000000E+00 -0.11346893492E+04  0.11346893492E+04  0.00000000000E+00 0. -1.
         23    2    1    2    0    0  0.11207334958E+03 -0.15133821492E+03  0.73603827527E+03  0.76445196015E+03  0.84680373933E+02 0.  0.
        254    2    1    2    0    0 -0.11207334958E+03  0.15133821492E+03 -0.93323665000E+03  0.13077283635E+04  0.89652614949E+03 0.  0.
        -24    2    4    4    0    0  0.18902218371E+02 -0.28586276674E+03 -0.75387752378E+03  0.81042213804E+03  0.79861791246E+02 0.  0.
         24    2    4    4    0    0 -0.13097556795E+03  0.43720098166E+03 -0.17935912622E+03  0.49730622543E+03  0.82731420392E+02 0.  0.
         13    1    3    3    0    0  0.90034739546E+02 -0.12781328988E+03  0.69446355076E+03  0.71184416463E+03  0.00000000000E+00 0.  1.
        -13    1    3    3    0    0  0.22038610033E+02 -0.23524925042E+02  0.41574724518E+02  0.52607795517E+02  0.00000000000E+00 0. -1.
          2    1    6    6  502    0  0.54529494452E+01  0.94012718789E+02 -0.44340794389E+02  0.10408761693E+03  0.00000000000E+00 0. -1.
          3    1    5    5  503    0 -0.22049052509E+02 -0.30342063970E+02 -0.12104024806E+03  0.12671836178E+03  0.00000000000E+00 0. -1.
         -4    1    5    5    0  503  0.40951270880E+02 -0.25552070277E+03 -0.63283727572E+03  0.68370377626E+03  0.00000000000E+00 0.  1.
         -3    1    6    6    0  502 -0.13642851740E+03  0.34318826287E+03 -0.13501833183E+03  0.39321860849E+03  0.00000000000E+00 0.  1.
<mgrwt>
<rscale>  0 0.20627758E+04</rscale>
<asrwt>0</asrwt>
<pdfrwt beam="1">  1        1 0.17456759E+00 0.20627758E+04</pdfrwt>
<pdfrwt beam="2">  1       -1 0.14422938E+00 0.20627758E+04</pdfrwt>
<totfact> 0.42700945E+00</totfact>
</mgrwt>
</event>
<event>
12    1  0.1960998E-007  0.1815508E+04  0.7818608E-02  0.8698096E-01
         -1   -1    0    0    0  501 -0.00000000000E+00  0.00000000000E+00  0.53916999769E+03  0.53916999769E+03  0.00000000000E+00 0.  1.
          1   -1    0    0  501    0  0.00000000000E+00 -0.00000000000E+00 -0.15283074960E+04  0.15283074960E+04  0.00000000000E+00 0. -1.
         23    2    1    2    0    0  0.34171168016E+02  0.58205454113E+02 -0.11459686139E+04  0.11516043084E+04  0.91612637734E+02 0.  0.
        254    2    1    2    0    0 -0.34171168016E+02 -0.58205454113E+02  0.15683111560E+03  0.91587318532E+03  0.89981784221E+03 0.  0.
        -24    2    4    4    0    0  0.62006647907E+02 -0.18658762141E+03  0.49201539771E+03  0.53562191020E+03  0.78434139623E+02 0.  0.
         24    2    4    4    0    0 -0.96177815923E+02  0.12838216730E+03 -0.33518428211E+03  0.38025127512E+03  0.80686901647E+02 0.  0.
         13    1    3    3    0    0 -0.15289325296E+02  0.14277590308E+02 -0.73887148046E+03  0.73916755725E+03  0.00000000000E+00 0. -1.
        -13    1    3    3    0    0  0.49460493312E+02  0.43927863806E+02 -0.40709713348E+03  0.41243675115E+03  0.00000000000E+00 0.  1.
          2    1    6    6  502    0 -0.13662050802E+02  0.45452664360E+02 -0.37771874087E+02  0.60657322737E+02  0.00000000000E+00 0. -1.
          1    1    5    5  503    0 -0.18665913712E+01 -0.19693643131E+02  0.11334907796E+02  0.22799207834E+02  0.00000000000E+00 0. -1.
         -2    1    5    5    0  503  0.63873239278E+02 -0.16689397828E+03  0.48068048991E+03  0.51282270237E+03  0.00000000000E+00 0.  1.
         -1    1    6    6    0  502 -0.82515765122E+02  0.82929502940E+02 -0.29741240802E+03  0.31959395238E+03  0.00000000000E+00 0.  1.
<mgrwt>
<rscale>  0 0.18155082E+04</rscale>
<asrwt>0</asrwt>
<pdfrwt beam="1">  1        1 0.23512423E+00 0.18155082E+04</pdfrwt>
<pdfrwt beam="2">  1       -1 0.82949232E-01 0.18155082E+04</pdfrwt>
<totfact> 0.85045697E+00</totfact>
</mgrwt>
</event>
<event>
12    1  0.1960998E-007  0.2118871E+04  0.7818608E-02  0.8552976E-01
          1   -1    0    0  501    0  0.00000000000E+00  0.00000000000E+00  0.17515328853E+04  0.17515328853E+04  0.00000000000E+00 0. -1.
         -1   -1    0    0    0  501 -0.00000000000E+00 -0.00000000000E+00 -0.64081219518E+03  0.64081219518E+03  0.00000000000E+00 0.  1.
         23    2    1    2    0    0  0.55141583511E+03  0.11637460708E+03 -0.28364762055E+03  0.63726841312E+03  0.89736198592E+02 0.  0.
        254    2    1    2    0    0 -0.55141583511E+03 -0.11637460708E+03  0.13943683107E+04  0.17550766674E+04  0.90467046493E+03 0.  0.
        -24    2    4    4    0    0 -0.31626440252E+03  0.36264208914E+03  0.89747229387E+03  0.10214568355E+04  0.79906766709E+02 0.  0.
         24    2    4    4    0    0 -0.23515143259E+03 -0.47901669622E+03  0.49689601684E+03  0.73361983190E+03  0.80865411053E+02 0.  0.
         11    1    3    3    0    0  0.71065590635E+02  0.25960956985E+01 -0.71653175558E+01  0.71473069480E+02  0.00000000000E+00 0. -1.
        -11    1    3    3    0    0  0.48035024447E+03  0.11377851138E+03 -0.27648230300E+03  0.56579534364E+03  0.00000000000E+00 0.  1.
          2    1    6    6  502    0 -0.18755826223E+03 -0.33386773447E+03  0.31320965067E+03  0.49471815321E+03  0.00000000000E+00 0. -1.
          3    1    5    5  503    0 -0.28309074426E+03  0.33299163411E+03  0.85351537970E+03  0.95891204042E+03  0.00000000000E+00 0. -1.
         -4    1    5    5    0  503 -0.33173658266E+02  0.29650455027E+02  0.43956914169E+02  0.62544795062E+02  0.00000000000E+00 0.  1.
         -1    1    6    6    0  502 -0.47593170357E+02 -0.14514896175E+03  0.18368636617E+03  0.23890167869E+03  0.00000000000E+00 0.  1.
<mgrwt>
<rscale>  0 0.21188711E+04</rscale>
<asrwt>0</asrwt>
<pdfrwt beam="1">  1        1 0.26946660E+00 0.21188711E+04</pdfrwt>
<pdfrwt beam="2">  1       -1 0.98586492E-01 0.21188711E+04</pdfrwt>
<totfact> 0.39733146E+00</totfact>
</mgrwt>
</event>
<event>
12    1  0.1960998E-007  0.1869903E+04  0.7818608E-02  0.8669984E-01
          2   -1    0    0  501    0  0.00000000000E+00  0.00000000000E+00  0.19269059924E+04  0.19269059924E+04  0.00000000000E+00 0.  1.
         -2   -1    0    0    0  501 -0.00000000000E+00 -0.00000000000E+00 -0.45364669323E+03  0.45364669323E+03  0.00000000000E+00 0. -1.
         23    2    1    2    0    0  0.46131591862E+03 -0.42259858024E+03  0.97866405264E+03  0.11651590522E+04  0.91707972569E+02 0.  0.
        254    2    1    2    0    0 -0.46131591862E+03  0.42259858024E+03  0.49459524650E+03  0.12153936334E+04  0.91714518448E+03 0.  0.
        -24    2    4    4    0    0 -0.36068045496E+03  0.83847147382E+02 -0.20268050905E+03  0.42970222912E+03  0.80273795536E+02 0.  0.
         24    2    4    4    0    0 -0.10063546366E+03  0.33875143286E+03  0.69727575555E+03  0.78569140426E+03  0.78977678122E+02 0.  0.
         11    1    3    3    0    0  0.20585920774E+03 -0.21489719388E+03  0.38861100195E+03  0.48946637085E+03  0.00000000000E+00 0.  1.
        -11    1    3    3    0    0  0.25545671087E+03 -0.20770138635E+03  0.59005305069E+03  0.67569268137E+03  0.00000000000E+00 0. -1.
          2    1    6    6  502    0 -0.79459736871E+02  0.17474301580E+03  0.43729135203E+03  0.47756957390E+03  0.00000000000E+00 0. -1.
          3    1    5    5  503    0 -0.34575193761E+03  0.60663759802E+02 -0.19217552662E+03  0.40019486147E+03  0.00000000000E+00 0. -1.
         -4    1    5    5    0  503 -0.14928517349E+02  0.23183387580E+02 -0.10504982427E+02  0.29507367651E+02  0.00000000000E+00 0.  1.
         -1    1    6    6    0  502 -0.21175726786E+02  0.16400841706E+03  0.25998440352E+03  0.30812183036E+03  0.00000000000E+00 0.  1.
<mgrwt>
<rscale>  0 0.18699032E+04</rscale>
<asrwt>0</asrwt>
<pdfrwt beam="1">  1        2 0.29644707E+00 0.18699032E+04</pdfrwt>
<pdfrwt beam="2">  1       -2 0.69791800E-01 0.18699032E+04</pdfrwt>
<totfact> 0.12886299E+01</totfact>
</mgrwt>
</event>
<event>
12    1  0.1960998E-007  0.3560606E+04  0.7818608E-02  0.8099575E-01
         -1   -1    0    0    0  501 -0.00000000000E+00  0.00000000000E+00  0.13699552862E+04  0.13699552862E+04  0.00000000000E+00 0.  1.
          1   -1    0    0  501    0  0.00000000000E+00 -0.00000000000E+00 -0.23135641071E+04  0.23135641071E+04  0.00000000000E+00 0. -1.
         23    2    1    2    0    0 -0.13365870911E+04  0.84676284741E+03 -0.97871938173E+03  0.18625805407E+04  0.88556594551E+02 0.  0.
        254    2    1    2    0    0  0.13365870911E+04 -0.84676284741E+03  0.35110560819E+02  0.18209388526E+04  0.90061822179E+03 0.  0.
        -24    2    4    4    0    0  0.12373964706E+04 -0.88239265602E+03  0.27577611191E+03  0.15466253802E+04  0.78935278275E+02 0.  0.
         24    2    4    4    0    0  0.99190620566E+02  0.35629808605E+02 -0.24066555109E+03  0.27431347234E+03  0.78865145382E+02 0.  0.
         11    1    3    3    0    0 -0.89528584881E+03  0.51822329607E+03 -0.64845503833E+03  0.12208956026E+04  0.00000000000E+00 0. -1.
        -11    1    3    3    0    0 -0.44130124232E+03  0.32853955134E+03 -0.33026434340E+03  0.64168493811E+03  0.00000000000E+00 0.  1.
          4    1    6    6  502    0  0.24131837317E+02 -0.81304797568E+01 -0.91950478000E+01  0.27073957550E+02  0.00000000000E+00 0. -1.
          3    1    5    5  503    0  0.61758266250E+03 -0.41533794774E+03  0.10068374370E+03  0.75103340279E+03  0.00000000000E+00 0. -1.
         -4    1    5    5    0  503  0.61981380806E+03 -0.46705470828E+03  0.17509236821E+03  0.79559197746E+03  0.00000000000E+00 0.  1.
         -3    1    6    6    0  502  0.75058783249E+02  0.43760288362E+02 -0.23147050329E+03  0.24723951479E+03  0.00000000000E+00 0.  1.
<mgrwt>
<rscale>  0 0.35606063E+04</rscale>
<asrwt>0</asrwt>
<pdfrwt beam="1">  1        1 0.35593293E+00 0.35606063E+04</pdfrwt>
<pdfrwt beam="2">  1       -1 0.21076236E+00 0.35606063E+04</pdfrwt>
<totfact> 0.18785200E-01</totfact>
</mgrwt>
</event>
<event>
12    1  0.1960998E-007  0.1830851E+04  0.7818608E-02  0.8690063E-01
          1   -1    0    0  501    0  0.00000000000E+00  0.00000000000E+00  0.87155307328E+03  0.87155307328E+03  0.00000000000E+00 0. -1.
         -1   -1    0    0    0  501 -0.00000000000E+00 -0.00000000000E+00 -0.96150604938E+03  0.96150604938E+03  0.00000000000E+00 0.  1.
         23    2    1    2    0    0 -0.56226147118E+03  0.39524833393E+03  0.23382732812E+02  0.69360788826E+03  0.90476201330E+02 0.  0.
        254    2    1    2    0    0  0.56226147118E+03 -0.39524833393E+03 -0.11333570891E+03  0.11394512344E+04  0.90174548804E+03 0.  0.
        -24    2    4    4    0    0 -0.15428218328E+03  0.13466564388E+03  0.61292854640E+02  0.22778529782E+03  0.78686086134E+02 0.  0.
         24    2    4    4    0    0  0.71654365446E+03 -0.52991397781E+03 -0.17462856355E+03  0.91166593658E+03  0.79975071590E+02 0.  0.
         13    1    3    3    0    0 -0.41210935287E+03  0.27026925819E+03 -0.20979799448E+02  0.49327451042E+03  0.00000000000E+00 0. -1.
        -13    1    3    3    0    0 -0.15015211831E+03  0.12497907574E+03  0.44362532260E+02  0.20033337783E+03  0.00000000000E+00 0.  1.
          2    1    6    6  502    0  0.59258625161E+03 -0.41273965010E+03 -0.16531576886E+03  0.74083857067E+03  0.00000000000E+00 0. -1.
          1    1    5    5  503    0 -0.12969805953E+03  0.12396273683E+03  0.78598571190E+02  0.19587261718E+03  0.00000000000E+00 0. -1.
         -2    1    5    5    0  503 -0.24584123750E+02  0.10702907050E+02 -0.17305716550E+02  0.31912680633E+02  0.00000000000E+00 0.  1.
         -1    1    6    6    0  502  0.12395740286E+03 -0.11717432772E+03 -0.93127946879E+01  0.17082736591E+03  0.00000000000E+00 0.  1.
<mgrwt>
<rscale>  0 0.18308507E+04</rscale>
<asrwt>0</asrwt>
<pdfrwt beam="1">  1        1 0.13408509E+00 0.18308507E+04</pdfrwt>
<pdfrwt beam="2">  1       -1 0.14792401E+00 0.18308507E+04</pdfrwt>
<totfact> 0.65496526E+00</totfact>
</mgrwt>
</event>
<event>
12    1  0.1960998E-007  0.1218578E+04  0.7818608E-02  0.9096749E-01
         -2   -1    0    0    0  501 -0.00000000000E+00  0.00000000000E+00  0.14124425849E+04  0.14124425849E+04  0.00000000000E+00 0. -1.
          2   -1    0    0  501    0  0.00000000000E+00 -0.00000000000E+00 -0.26283067347E+03  0.26283067347E+03  0.00000000000E+00 0.  1.
         23    2    1    2    0    0  0.24944330823E+03  0.30295044709E+02  0.39648068271E+03  0.47582517420E+03  0.77928883481E+02 0.  0.
        254    2    1    2    0    0 -0.24944330823E+03 -0.30295044709E+02  0.75313122869E+03  0.11994480841E+04  0.89907135711E+03 0.  0.
        -24    2    4    4    0    0  0.11744719702E+03  0.30517686225E+03  0.57876071482E+02  0.34120552988E+03  0.78388855265E+02 0.  0.
         24    2    4    4    0    0 -0.36689050525E+03 -0.33547190696E+03  0.69525515721E+03  0.85824255426E+03  0.77784992876E+02 0.  0.
         11    1    3    3    0    0  0.68047445168E+02 -0.25519514761E+02  0.12480613929E+03  0.14442393442E+03  0.00000000000E+00 0. -1.
        -11    1    3    3    0    0  0.18139586306E+03  0.55814559471E+02  0.27167454342E+03  0.33140123978E+03  0.00000000000E+00 0.  1.
          4    1    6    6  502    0 -0.35120798371E+03 -0.29451341341E+03  0.61822926581E+03  0.76960549869E+03  0.00000000000E+00 0. -1.
          3    1    5    5  503    0  0.11326169123E+03  0.23833369501E+03  0.20903310857E+02  0.26470381425E+03  0.00000000000E+00 0. -1.
         -4    1    5    5    0  503  0.41855057973E+01  0.66843167247E+02  0.36972760625E+02  0.76501715632E+02  0.00000000000E+00 0.  1.
         -3    1    6    6    0  502 -0.15682521542E+02 -0.40958493552E+02  0.77025891392E+02  0.88637055573E+02  0.00000000000E+00 0.  1.
<mgrwt>
<rscale>  0 0.12185782E+04</rscale>
<asrwt>0</asrwt>
<pdfrwt beam="1">  1        2 0.40435489E-01 0.12185782E+04</pdfrwt>
<pdfrwt beam="2">  1       -2 0.21729885E+00 0.12185782E+04</pdfrwt>
<totfact> 0.12898244E+01</totfact>
</mgrwt>
</event>
<event>
12    1  0.1960998E-007  0.2911357E+04  0.7818608E-02  0.8269506E-01
          2   -1    0    0  501    0  0.00000000000E+00  0.00000000000E+00  0.18646909332E+04  0.18646909332E+04  0.00000000000E+00 0.  1.
         -2   -1    0    0    0  501 -0.00000000000E+00 -0.00000000000E+00 -0.11363815481E+04  0.11363815481E+04  0.00000000000E+00 0. -1.
         23    2    1    2    0    0  0.11834893732E+03  0.70941253316E+03  0.14636330063E+04  0.16327179153E+04  0.79206064485E+02 0.  0.
        254    2    1    2    0    0 -0.11834893732E+03 -0.70941253316E+03 -0.73532362112E+03  0.13683545660E+04  0.90245264551E+03 0.  0.
        -24    2    4    4    0    0  0.27450795431E+03 -0.46307109331E+02  0.14270492423E+02  0.29002839734E+03  0.80086571647E+02 0.  0.
         24    2    4    4    0    0 -0.39285689163E+03 -0.66310542383E+03 -0.74959411354E+03  0.10783261687E+04  0.82768656936E+02 0.  0.
         13    1    3    3    0    0  0.92909125508E+02  0.34923419984E+03  0.68697007477E+03  0.77622452652E+03  0.00000000000E+00 0. -1.
        -13    1    3    3    0    0  0.25439811813E+02  0.36017833332E+03  0.77666293149E+03  0.85649338875E+03  0.00000000000E+00 0.  1.
          4    1    6    6  502    0 -0.35874958423E+03 -0.57745750827E+03 -0.62602491417E+03  0.92415671355E+03  0.00000000000E+00 0. -1.
          1    1    5    5  503    0  0.24876197159E+03 -0.61412378598E+02 -0.15711233530E+01  0.25623517944E+03  0.00000000000E+00 0. -1.
         -2    1    5    5    0  503  0.25745982716E+02  0.15105269267E+02  0.15841615776E+02  0.33793217900E+02  0.00000000000E+00 0.  1.
         -3    1    6    6    0  502 -0.34107307394E+02 -0.85647915561E+02 -0.12356919938E+03  0.15416945512E+03  0.00000000000E+00 0.  1.
<mgrwt>
<rscale>  0 0.29113573E+04</rscale>
<asrwt>0</asrwt>
<pdfrwt beam="1">  1        2 0.28687553E+00 0.29113573E+04</pdfrwt>
<pdfrwt beam="2">  1       -2 0.17482793E+00 0.29113573E+04</pdfrwt>
<totfact> 0.13497647E+00</totfact>
</mgrwt>
</event>
<event>
12    1  0.1960998E-007  0.1047013E+04  0.7818608E-02  0.9258433E-01
          2   -1    0    0  501    0  0.00000000000E+00  0.00000000000E+00  0.10350611096E+04  0.10350611096E+04  0.00000000000E+00 0. -1.
         -2   -1    0    0    0  501 -0.00000000000E+00 -0.00000000000E+00 -0.26477595561E+03  0.26477595561E+03  0.00000000000E+00 0.  1.
         23    2    1    2    0    0 -0.13228295574E+02  0.48866592905E+02  0.22614800314E+03  0.24928476596E+03  0.91853380502E+02 0.  0.
        254    2    1    2    0    0  0.13228295574E+02 -0.48866592905E+02  0.54413715081E+03  0.10505522992E+04  0.89722458883E+03 0.  0.
        -24    2    4    4    0    0 -0.95023941158E+02  0.12828739445E+03 -0.20266923112E+03  0.27133114607E+03  0.84015288002E+02 0.  0.
         24    2    4    4    0    0  0.10825223673E+03 -0.17715398736E+03  0.74680638193E+03  0.77922115315E+03  0.79773124741E+02 0.  0.
         11    1    3    3    0    0  0.14544511814E+02  0.57381822264E+01 -0.17055633193E+01  0.15728270897E+02  0.00000000000E+00 0.  1.
        -11    1    3    3    0    0 -0.27772807388E+02  0.43128410678E+02  0.22785356646E+03  0.23355649506E+03  0.00000000000E+00 0. -1.
          4    1    6    6  502    0  0.10032115778E+03 -0.90035628058E+02  0.46589675654E+03  0.48500570798E+03  0.00000000000E+00 0. -1.
          3    1    5    5  503    0 -0.10697162129E+03  0.88775423165E+02 -0.16026440510E+03  0.21215249954E+03  0.00000000000E+00 0. -1.
         -4    1    5    5    0  503  0.11947680132E+02  0.39511971289E+02 -0.42404826015E+02  0.59178646530E+02  0.00000000000E+00 0.  1.
         -3    1    6    6    0  502  0.79310789539E+01 -0.87118359301E+02  0.28090962539E+03  0.29421544517E+03  0.00000000000E+00 0.  1.
<mgrwt>
<rscale>  0 0.10470135E+04</rscale>
<asrwt>0</asrwt>
<pdfrwt beam="1">  1        2 0.15924017E+00 0.10470135E+04</pdfrwt>
<pdfrwt beam="2">  1       -2 0.40734763E-01 0.10470135E+04</pdfrwt>
<totfact> 0.13584702E+02</totfact>
</mgrwt>
</event>
<event>
12    1  0.1960998E-007  0.2086910E+04  0.7818608E-02  0.8567032E-01
         -1   -1    0    0    0  501 -0.00000000000E+00  0.00000000000E+00  0.47369222827E+03  0.47369222827E+03  0.00000000000E+00 0.  1.
          1   -1    0    0  501    0  0.00000000000E+00 -0.00000000000E+00 -0.22985354339E+04  0.22985354339E+04  0.00000000000E+00 0. -1.
         23    2    1    2    0    0 -0.68944489948E+03  0.11685635240E+03 -0.13756854521E+04  0.15463271292E+04  0.98119574780E+02 0.  0.
        254    2    1    2    0    0  0.68944489948E+03 -0.11685635240E+03 -0.44915775355E+03  0.12259005330E+04  0.90116577423E+03 0.  0.
        -24    2    4    4    0    0 -0.24739143925E+02 -0.22990144495E+03  0.14717698104E+03  0.28535659768E+03  0.79376472959E+02 0.  0.
         24    2    4    4    0    0  0.71418404340E+03  0.11304509254E+03 -0.59633473460E+03  0.94054393529E+03  0.78547678061E+02 0.  0.
         11    1    3    3    0    0 -0.52547382751E+03  0.12881470097E+03 -0.10832497534E+04  0.12108451589E+04  0.00000000000E+00 0. -1.
        -11    1    3    3    0    0 -0.16397107196E+03 -0.11958348571E+02 -0.29243569869E+03  0.33548197032E+03  0.00000000000E+00 0.  1.
          2    1    6    6  502    0  0.18757617949E+03  0.27360684673E+02 -0.11332860581E+03  0.22085471032E+03  0.00000000000E+00 0. -1.
          3    1    5    5  503    0 -0.51591429329E+02 -0.11748655683E+03  0.87230786063E+02  0.15515790877E+03  0.00000000000E+00 0. -1.
         -4    1    5    5    0  503  0.26852285404E+02 -0.11241488812E+03  0.59946194982E+02  0.13019868891E+03  0.00000000000E+00 0.  1.
         -1    1    6    6    0  502  0.52660786391E+03  0.85684407872E+02 -0.48300612879E+03  0.71968922497E+03  0.00000000000E+00 0.  1.
<mgrwt>
<rscale>  0 0.20869100E+04</rscale>
<asrwt>0</asrwt>
<pdfrwt beam="1">  1        1 0.35362084E+00 0.20869100E+04</pdfrwt>
<pdfrwt beam="2">  1       -1 0.72875727E-01 0.20869100E+04</pdfrwt>
<totfact> 0.32607447E+00</totfact>
</mgrwt>
</event>
<event>
12    1  0.1960998E-007  0.1332606E+04  0.7818608E-02  0.9004100E-01
          2   -1    0    0  501    0  0.00000000000E+00  0.00000000000E+00  0.10012702058E+04  0.10012702058E+04  0.00000000000E+00 0. -1.
         -2   -1    0    0    0  501 -0.00000000000E+00 -0.00000000000E+00 -0.44339669323E+03  0.44339669323E+03  0.00000000000E+00 0.  1.
         23    2    1    2    0    0  0.17128394103E+03  0.16051087496E+03  0.44499842643E+03  0.51003442102E+03  0.83723244474E+02 0.  0.
        254    2    1    2    0    0 -0.17128394103E+03 -0.16051087496E+03  0.11287508611E+03  0.93463247797E+03  0.89760523304E+03 0.  0.
        -24    2    4    4    0    0 -0.32565894606E+03  0.44650665555E+02 -0.29320946737E+03  0.44770253200E+03  0.80114507555E+02 0.  0.
         24    2    4    4    0    0  0.15437500503E+03 -0.20516154051E+03  0.40608455348E+03  0.48692994597E+03  0.79203584645E+02 0.  0.
         13    1    3    3    0    0  0.59247773810E+02  0.13046366660E+02  0.14895873758E+03  0.16083908693E+03  0.00000000000E+00 0. -1.
        -13    1    3    3    0    0  0.11203616722E+03  0.14746450830E+03  0.29603968885E+03  0.34919533408E+03  0.00000000000E+00 0.  1.
          4    1    6    6  502    0  0.10557175750E+03 -0.17997565171E+03  0.27820639303E+03  0.34775771496E+03  0.00000000000E+00 0. -1.
          3    1    5    5  503    0 -0.20063379269E+03  0.43325172048E+02 -0.13342303258E+03  0.24481154982E+03  0.00000000000E+00 0. -1.
         -4    1    5    5    0  503 -0.12502515338E+03  0.13254935066E+01 -0.15978643479E+03  0.20289098218E+03  0.00000000000E+00 0.  1.
         -3    1    6    6    0  502  0.48803247531E+02 -0.25185888806E+02  0.12787816045E+03  0.13917223101E+03  0.00000000000E+00 0.  1.
<mgrwt>
<rscale>  0 0.13326063E+04</rscale>
<asrwt>0</asrwt>
<pdfrwt beam="1">  1        2 0.15404157E+00 0.13326063E+04</pdfrwt>
<pdfrwt beam="2">  1       -2 0.68214876E-01 0.13326063E+04</pdfrwt>
<totfact> 0.48364916E+01</totfact>
</mgrwt>
</event>
<event>
12    1  0.1960998E-007  0.1521818E+04  0.7818608E-02  0.8870072E-01
         -1   -1    0    0    0  501 -0.00000000000E+00  0.00000000000E+00  0.10160470661E+04  0.10160470661E+04  0.00000000000E+00 0.  1.
          1   -1    0    0  501    0  0.00000000000E+00 -0.00000000000E+00 -0.56983851458E+03  0.56983851458E+03  0.00000000000E+00 0. -1.
         23    2    1    2    0    0 -0.18890551492E+02 -0.48488039962E+03  0.21421705846E+03  0.53848146046E+03  0.92776507032E+02 0.  0.
        254    2    1    2    0    0  0.18890551492E+02  0.48488039962E+03  0.23199149309E+03  0.10474041203E+04  0.89875996985E+03 0.  0.
        -24    2    4    4    0    0  0.40410656123E+03  0.39366475687E+03  0.29000270226E+03  0.63929974477E+03  0.79552138367E+02 0.  0.
         24    2    4    4    0    0 -0.38521600974E+03  0.91215642746E+02 -0.58011209169E+02  0.40810437548E+03  0.80450066861E+02 0.  0.
         11    1    3    3    0    0 -0.39087085551E+02 -0.23043236101E+03  0.64069606690E+02  0.24234642098E+03  0.00000000000E+00 0. -1.
        -11    1    3    3    0    0  0.20196534058E+02 -0.25444803861E+03  0.15014745177E+03  0.29613503949E+03  0.00000000000E+00 0.  1.
          4    1    6    6  502    0 -0.24378910877E+03  0.86490356615E+02 -0.63983748485E+02  0.26647257160E+03  0.00000000000E+00 0. -1.
          3    1    5    5  503    0  0.30346409623E+03  0.27234122834E+03  0.17272627737E+03  0.44282566463E+03  0.00000000000E+00 0. -1.
         -4    1    5    5    0  503  0.10064246500E+03  0.12132352853E+03  0.11727642489E+03  0.19647408015E+03  0.00000000000E+00 0.  1.
         -3    1    6    6    0  502 -0.14142690097E+03  0.47252861318E+01  0.59725393155E+01  0.14163180389E+03  0.00000000000E+00 0.  1.
<mgrwt>
<rscale>  0 0.15218183E+04</rscale>
<asrwt>0</asrwt>
<pdfrwt beam="1">  1        1 0.87667464E-01 0.15218183E+04</pdfrwt>
<pdfrwt beam="2">  1       -1 0.15631493E+00 0.15218183E+04</pdfrwt>
<totfact> 0.11105251E+01</totfact>
</mgrwt>
</event>
<event>
12    1  0.1960998E-007  0.4690970E+04  0.7818608E-02  0.7878031E-01
          2   -1    0    0  501    0  0.00000000000E+00  0.00000000000E+00  0.32937506947E+04  0.32937506947E+04  0.00000000000E+00 0.  1.
         -2   -1    0    0    0  501 -0.00000000000E+00 -0.00000000000E+00 -0.16702234175E+04  0.16702234175E+04  0.00000000000E+00 0. -1.
         23    2    1    2    0    0  0.21791677177E+04 -0.40495946284E+03  0.12392232585E+04  0.25410989287E+04  0.93516697226E+02 0.  0.
        254    2    1    2    0    0 -0.21791677177E+04  0.40495946284E+03  0.38430401876E+03  0.24228751835E+04  0.89992803456E+03 0.  0.
        -24    2    4    4    0    0 -0.13600139397E+04  0.33797238132E+03 -0.19039347179E+03  0.14168885630E+04  0.86372907427E+02 0.  0.
         24    2    4    4    0    0 -0.81915377803E+03  0.66987081516E+02  0.57469749055E+03  0.10059866205E+04  0.78941078091E+02 0.  0.
         11    1    3    3    0    0  0.36539251407E+03 -0.99449080320E+02  0.19273257498E+03  0.42490899541E+03  0.00000000000E+00 0. -1.
        -11    1    3    3    0    0  0.18137752037E+04 -0.30551038252E+03  0.10464906835E+04  0.21161899333E+04  0.00000000000E+00 0.  1.
          2    1    6    6  502    0 -0.36633762532E+03  0.16747064827E+02  0.30158354869E+03  0.47480138663E+03  0.00000000000E+00 0. -1.
          3    1    5    5  503    0 -0.11606153836E+04  0.27175364746E+03 -0.13516572360E+03  0.11996449001E+04  0.00000000000E+00 0. -1.
         -4    1    5    5    0  503 -0.19939855613E+03  0.66218733862E+02 -0.55227748192E+02  0.21724366291E+03  0.00000000000E+00 0.  1.
         -1    1    6    6    0  502 -0.45281615271E+03  0.50240016689E+02  0.27311394185E+03  0.53118523386E+03  0.00000000000E+00 0.  1.
<mgrwt>
<rscale>  0 0.46909699E+04</rscale>
<asrwt>0</asrwt>
<pdfrwt beam="1">  1        2 0.50673087E+00 0.46909699E+04</pdfrwt>
<pdfrwt beam="2">  1       -2 0.25695745E+00 0.46909699E+04</pdfrwt>
<totfact> 0.48807079E-02</totfact>
</mgrwt>
</event>
<event>
12    1  0.1960998E-007  0.1337328E+04  0.7818608E-02  0.9000476E-01
          2   -1    0    0  501    0  0.00000000000E+00  0.00000000000E+00  0.10925018468E+04  0.10925018468E+04  0.00000000000E+00 0. -1.
         -2   -1    0    0    0  501 -0.00000000000E+00 -0.00000000000E+00 -0.40925476731E+03  0.40925476731E+03  0.00000000000E+00 0.  1.
         23    2    1    2    0    0 -0.27766519312E+03  0.18743445995E+03  0.39922623042E+02  0.34928961355E+03  0.90442147585E+02 0.  0.
        254    2    1    2    0    0  0.27766519312E+03 -0.18743445995E+03  0.64332445644E+03  0.11524670006E+04  0.89559153350E+03 0.  0.
        -24    2    4    4    0    0  0.43234789927E+03 -0.44737700709E+03  0.32492534026E+03  0.70615024726E+03  0.77464846691E+02 0.  0.
         24    2    4    4    0    0 -0.15468270616E+03  0.25994254715E+03  0.31839911618E+03  0.44631675330E+03  0.79522196227E+02 0.  0.
         11    1    3    3    0    0 -0.26101155623E+03  0.13924893846E+03  0.29996952812E+02  0.29735015811E+03  0.00000000000E+00 0.  1.
        -11    1    3    3    0    0 -0.16653636888E+02  0.48185521484E+02  0.99256702306E+01  0.51939455443E+02  0.00000000000E+00 0. -1.
          2    1    6    6  502    0 -0.76476422911E+02  0.57840079512E+02  0.10453269763E+03  0.14184922606E+03  0.00000000000E+00 0. -1.
          1    1    5    5  503    0  0.14639901516E+01  0.21531090977E+01  0.60031740266E+01  0.65434886983E+01  0.00000000000E+00 0. -1.
         -2    1    5    5    0  503  0.43088390912E+03 -0.44953011619E+03  0.31892216623E+03  0.69960675856E+03  0.00000000000E+00 0.  1.
         -1    1    6    6    0  502 -0.78206283244E+02  0.20210246763E+03  0.21386641855E+03  0.30446752725E+03  0.00000000000E+00 0.  1.
<mgrwt>
<rscale>  0 0.13373281E+04</rscale>
<asrwt>0</asrwt>
<pdfrwt beam="1">  1        2 0.16807721E+00 0.13373281E+04</pdfrwt>
<pdfrwt beam="2">  1       -2 0.62962272E-01 0.13373281E+04</pdfrwt>
<totfact> 0.50327356E+01</totfact>
</mgrwt>
</event>
<event>
12    1  0.1960998E-007  0.3441663E+04  0.7818608E-02  0.8127756E-01
          2   -1    0    0  501    0  0.00000000000E+00  0.00000000000E+00  0.13914206226E+04  0.13914206226E+04  0.00000000000E+00 0.  1.
         -2   -1    0    0    0  501 -0.00000000000E+00 -0.00000000000E+00 -0.21282279690E+04  0.21282279690E+04  0.00000000000E+00 0. -1.
         23    2    1    2    0    0  0.41711563545E+03  0.12020018769E+04 -0.13385662345E+04  0.18490873319E+04  0.92576624211E+02 0.  0.
        254    2    1    2    0    0 -0.41711563545E+03 -0.12020018769E+04  0.60175888821E+03  0.16705612597E+04  0.89992621780E+03 0.  0.
        -24    2    4    4    0    0 -0.27051396912E+03 -0.21947632917E+03  0.57149447048E+03  0.67351435283E+03  0.75286035409E+02 0.  0.
         24    2    4    4    0    0 -0.14660166633E+03 -0.98252554772E+03  0.30264417733E+02  0.99704690687E+03  0.79612178884E+02 0.  0.
         11    1    3    3    0    0  0.16516704275E+03  0.49481540497E+03 -0.61480429432E+03  0.80629198020E+03  0.00000000000E+00 0. -1.
        -11    1    3    3    0    0  0.25194859270E+03  0.70718647192E+03 -0.72376194022E+03  0.10427953517E+04  0.00000000000E+00 0.  1.
          4    1    6    6  502    0 -0.13159873123E+02 -0.10630503698E+03 -0.21344042218E+02  0.10922230214E+03  0.00000000000E+00 0. -1.
          1    1    5    5  503    0 -0.94325638931E+02 -0.11101077995E+03  0.18873890796E+03  0.23841789950E+03  0.00000000000E+00 0. -1.
         -2    1    5    5    0  503 -0.17618833019E+03 -0.10846554922E+03  0.38275556251E+03  0.43509645333E+03  0.00000000000E+00 0.  1.
         -3    1    6    6    0  502 -0.13344179320E+03 -0.87622051074E+03  0.51608459951E+02  0.88782460472E+03  0.00000000000E+00 0.  1.
<mgrwt>
<rscale>  0 0.34416626E+04</rscale>
<asrwt>0</asrwt>
<pdfrwt beam="1">  1        2 0.21406471E+00 0.34416626E+04</pdfrwt>
<pdfrwt beam="2">  1       -2 0.32741969E+00 0.34416626E+04</pdfrwt>
<totfact> 0.26020202E-01</totfact>
</mgrwt>
</event>
<event>
12    1  0.1960998E-007  0.1596571E+04  0.7818608E-02  0.8822657E-01
         -2   -1    0    0    0  501 -0.00000000000E+00  0.00000000000E+00  0.27332714652E+04  0.27332714652E+04  0.00000000000E+00 0.  1.
          2   -1    0    0  501    0  0.00000000000E+00 -0.00000000000E+00 -0.23314914200E+03  0.23314914200E+03  0.00000000000E+00 0. -1.
         23    2    1    2    0    0  0.17148895445E+03  0.50234367860E+03  0.10565555094E+04  0.11859809165E+04  0.92106226464E+02 0.  0.
        254    2    1    2    0    0 -0.17148895445E+03 -0.50234367860E+03  0.14435668138E+04  0.17804396907E+04  0.89684040571E+03 0.  0.
        -24    2    4    4    0    0 -0.10369316668E+03 -0.62935177809E+03  0.14782837199E+04  0.16119136245E+04  0.78146292792E+02 0.  0.
         24    2    4    4    0    0 -0.67795787769E+02  0.12700809949E+03 -0.34716906062E+02  0.16852606617E+03  0.80426645065E+02 0.  0.
         13    1    3    3    0    0  0.67741526149E+02  0.14975981398E+03  0.41883739764E+03  0.44993519746E+03  0.00000000000E+00 0. -1.
        -13    1    3    3    0    0  0.10374742831E+03  0.35258386462E+03  0.63771811176E+03  0.73604571906E+03  0.00000000000E+00 0.  1.
          4    1    6    6  502    0 -0.64855166269E+02  0.95986503701E+02 -0.58072659063E+02  0.12958408550E+03  0.00000000000E+00 0. -1.
          3    1    5    5  503    0 -0.10658382142E+03 -0.48255957054E+03  0.11854538752E+04  0.12843382500E+04  0.00000000000E+00 0. -1.
         -2    1    5    5    0  503  0.28906547309E+01 -0.14679220756E+03  0.29282984467E+03  0.32757537455E+03  0.00000000000E+00 0.  1.
         -3    1    6    6    0  502 -0.29406215005E+01  0.31021595789E+02  0.23355753001E+02  0.38941980668E+02  0.00000000000E+00 0.  1.
<mgrwt>
<rscale>  0 0.15965712E+04</rscale>
<asrwt>0</asrwt>
<pdfrwt beam="1">  1        2 0.35869101E-01 0.15965712E+04</pdfrwt>
<pdfrwt beam="2">  1       -2 0.42050328E+00 0.15965712E+04</pdfrwt>
<totfact> 0.76551239E-01</totfact>
</mgrwt>
</event>
<event>
12    1  0.1960998E-007  0.2778542E+04  0.7818608E-02  0.8309961E-01
         -2   -1    0    0    0  501 -0.00000000000E+00  0.00000000000E+00  0.84373203477E+03  0.84373203477E+03  0.00000000000E+00 0.  1.
          2   -1    0    0  501    0  0.00000000000E+00 -0.00000000000E+00 -0.22875444540E+04  0.22875444540E+04  0.00000000000E+00 0. -1.
         23    2    1    2    0    0 -0.11215119523E+04  0.30000525631E+03 -0.11413393521E+04  0.16305588204E+04  0.90963383506E+02 0.  0.
        254    2    1    2    0    0  0.11215119523E+04 -0.30000525631E+03 -0.30247306714E+03  0.15007176684E+04  0.90159378375E+03 0.  0.
        -24    2    4    4    0    0  0.46867750789E+03 -0.21630329689E+03 -0.58125931529E+03  0.78137334993E+03  0.78969599936E+02 0.  0.
         24    2    4    4    0    0  0.65283444441E+03 -0.83701959424E+02  0.27878624815E+03  0.71934431847E+03  0.80843345602E+02 0.  0.
         13    1    3    3    0    0 -0.13383115298E+03  0.81805976245E+01 -0.11614533353E+03  0.17739063726E+03  0.00000000000E+00 0.  1.
        -13    1    3    3    0    0 -0.98768079932E+03  0.29182465869E+03 -0.10251940186E+04  0.14531681832E+04  0.00000000000E+00 0. -1.
          4    1    6    6  502    0  0.34482580524E+03 -0.35022930798E+01  0.14398512794E+03  0.37369615878E+03  0.00000000000E+00 0. -1.
          1    1    5    5  503    0  0.37390297147E+03 -0.20560762781E+03 -0.46886979157E+03  0.63396909241E+03  0.00000000000E+00 0. -1.
         -2    1    5    5    0  503  0.94774536424E+02 -0.10695669080E+02 -0.11238952372E+03  0.14740425751E+03  0.00000000000E+00 0.  1.
         -1    1    6    6    0  502  0.30800863917E+03 -0.80199666344E+02  0.13480112021E+03  0.34564815969E+03  0.00000000000E+00 0.  1.
<mgrwt>
<rscale>  0 0.27785425E+04</rscale>
<asrwt>0</asrwt>
<pdfrwt beam="1">  1        2 0.35192992E+00 0.27785425E+04</pdfrwt>
<pdfrwt beam="2">  1       -2 0.12980493E+00 0.27785425E+04</pdfrwt>
<totfact> 0.17509220E+00</totfact>
</mgrwt>
</event>
<event>
12    1  0.1960998E-007  0.2689131E+04  0.7818608E-02  0.8338540E-01
          2   -1    0    0  501    0  0.00000000000E+00  0.00000000000E+00  0.20835240312E+04  0.20835240312E+04  0.00000000000E+00 0. -1.
         -2   -1    0    0    0  501 -0.00000000000E+00 -0.00000000000E+00 -0.86769132073E+03  0.86769132073E+03  0.00000000000E+00 0.  1.
         23    2    1    2    0    0 -0.80632441176E+03  0.56387793429E+03 -0.19776289502E+03  0.10080758852E+04  0.94812688178E+02 0.  0.
        254    2    1    2    0    0  0.80632441176E+03 -0.56387793429E+03  0.14135956055E+04  0.19431394668E+04  0.89967831453E+03 0.  0.
        -24    2    4    4    0    0  0.88587050373E+03 -0.34757033701E+03  0.68539775983E+03  0.11754218100E+04  0.79212712166E+02 0.  0.
         24    2    4    4    0    0 -0.79546091975E+02 -0.21630759728E+03  0.72819784568E+03  0.76771765674E+03  0.77470901819E+02 0.  0.
         13    1    3    3    0    0 -0.18397849107E+03  0.16343694806E+03 -0.19482264299E+02  0.24685882563E+03  0.00000000000E+00 0.  1.
        -13    1    3    3    0    0 -0.62234592069E+03  0.40044098623E+03 -0.17828063072E+03  0.76121705954E+03  0.00000000000E+00 0. -1.
          2    1    6    6  502    0 -0.50697694625E+02 -0.19099546447E+03  0.66537908921E+03  0.69410291459E+03  0.00000000000E+00 0. -1.
          1    1    5    5  503    0  0.75196637231E+03 -0.27929211727E+03  0.54534777620E+03  0.96998026209E+03  0.00000000000E+00 0. -1.
         -2    1    5    5    0  503  0.13390413142E+03 -0.68278219747E+02  0.14004998363E+03  0.20544154794E+03  0.00000000000E+00 0.  1.
         -1    1    6    6    0  502 -0.28848397351E+02 -0.25312132805E+02  0.62818756470E+02  0.73614742146E+02  0.00000000000E+00 0.  1.
<mgrwt>
<rscale>  0 0.26891305E+04</rscale>
<asrwt>0</asrwt>
<pdfrwt beam="1">  1        2 0.32054216E+00 0.26891305E+04</pdfrwt>
<pdfrwt beam="2">  1       -2 0.13349097E+00 0.26891305E+04</pdfrwt>
<totfact> 0.21396607E+00</totfact>
</mgrwt>
</event>
<event>
12    1  0.1960998E-007  0.2896797E+04  0.7818608E-02  0.8273831E-01
         -2   -1    0    0    0  501 -0.00000000000E+00  0.00000000000E+00  0.10132950877E+04  0.10132950877E+04  0.00000000000E+00 0.  1.
          2   -1    0    0  501    0  0.00000000000E+00 -0.00000000000E+00 -0.20703328267E+04  0.20703328267E+04  0.00000000000E+00 0. -1.
         23    2    1    2    0    0 -0.31066191535E+03 -0.12518558856E+04 -0.25572739032E+03  0.13179698604E+04  0.89409566968E+02 0.  0.
        254    2    1    2    0    0  0.31066191535E+03  0.12518558856E+04 -0.80131034862E+03  0.17656580540E+04  0.90099728349E+03 0.  0.
        -24    2    4    4    0    0 -0.18464042555E+03  0.53128852117E+03  0.12441385910E+02  0.56865188303E+03  0.82768330347E+02 0.  0.
         24    2    4    4    0    0  0.49530234090E+03  0.72056736446E+03 -0.81375173453E+03  0.11970061710E+04  0.78039427834E+02 0.  0.
         11    1    3    3    0    0 -0.26521628812E+03 -0.91939499946E+03 -0.17344710747E+03  0.97247660311E+03  0.00000000000E+00 0.  1.
        -11    1    3    3    0    0 -0.45445627229E+02 -0.33246088617E+03 -0.82280282847E+02  0.34549325726E+03  0.00000000000E+00 0. -1.
          2    1    6    6  502    0  0.48823197742E+03  0.69435337678E+03 -0.80069030828E+03  0.11668770481E+04  0.00000000000E+00 0. -1.
          3    1    5    5  503    0 -0.17535418071E+03  0.41623080087E+03 -0.63236085091E+01  0.45170472248E+03  0.00000000000E+00 0. -1.
         -4    1    5    5    0  503 -0.92862448412E+01  0.11505772030E+03  0.18764994420E+02  0.11694716055E+03  0.00000000000E+00 0.  1.
         -3    1    6    6    0  502  0.70703634830E+01  0.26213987676E+02 -0.13061426249E+02  0.30129122876E+02  0.00000000000E+00 0.  1.
<mgrwt>
<rscale>  0 0.28967969E+04</rscale>
<asrwt>0</asrwt>
<pdfrwt beam="1">  1        2 0.31851274E+00 0.28967969E+04</pdfrwt>
<pdfrwt beam="2">  1       -2 0.15589155E+00 0.28967969E+04</pdfrwt>
<totfact> 0.14245934E+00</totfact>
</mgrwt>
</event>
<event>
12    1  0.1960998E-007  0.2865480E+04  0.7818608E-02  0.8283223E-01
          1   -1    0    0  501    0  0.00000000000E+00  0.00000000000E+00  0.17576632221E+04  0.17576632221E+04  0.00000000000E+00 0. -1.
         -1   -1    0    0    0  501 -0.00000000000E+00 -0.00000000000E+00 -0.11678822740E+04  0.11678822740E+04  0.00000000000E+00 0.  1.
         23    2    1    2    0    0 -0.54395907794E+03 -0.27421232499E+03 -0.89437955016E+03  0.10859158469E+04  0.90634260301E+02 0.  0.
        254    2    1    2    0    0  0.54395907794E+03  0.27421232499E+03  0.14841604982E+04  0.18396296492E+04  0.90023384967E+03 0.  0.
        -24    2    4    4    0    0  0.46645057476E+03 -0.22904416460E+03  0.10136337518E+04  0.11417441705E+04  0.78032043807E+02 0.  0.
         24    2    4    4    0    0  0.77508503185E+02  0.50325648959E+03  0.47052674639E+03  0.69788547876E+03  0.79837710482E+02 0.  0.
         11    1    3    3    0    0 -0.28361008415E+03 -0.19269932070E+03 -0.51107251321E+03  0.61543709815E+03  0.00000000000E+00 0. -1.
        -11    1    3    3    0    0 -0.26034899379E+03 -0.81513004283E+02 -0.38330703695E+03  0.47047874874E+03  0.00000000000E+00 0.  1.
          4    1    6    6  502    0  0.43363494796E+00  0.41979356239E+02  0.13801418620E+02  0.44192007710E+02  0.00000000000E+00 0. -1.
          1    1    5    5  503    0  0.21741654642E+03 -0.10925055597E+03  0.55978116544E+03  0.61037741752E+03  0.00000000000E+00 0. -1.
         -2    1    5    5    0  503  0.24903402834E+03 -0.11979360863E+03  0.45385258640E+03  0.53136675293E+03  0.00000000000E+00 0.  1.
         -3    1    6    6    0  502  0.77074868237E+02  0.46127713335E+03  0.45672532777E+03  0.65369347105E+03  0.00000000000E+00 0.  1.
<mgrwt>
<rscale>  0 0.28654799E+04</rscale>
<asrwt>0</asrwt>
<pdfrwt beam="1">  1        1 0.27040973E+00 0.28654799E+04</pdfrwt>
<pdfrwt beam="2">  1       -1 0.17967420E+00 0.28654799E+04</pdfrwt>
<totfact> 0.78421884E-01</totfact>
</mgrwt>
</event>
<event>
12    1  0.1960998E-007  0.4758890E+04  0.7818608E-02  0.7866817E-01
          2   -1    0    0  501    0  0.00000000000E+00  0.00000000000E+00  0.24443819236E+04  0.24443819236E+04  0.00000000000E+00 0.  1.
         -2   -1    0    0    0  501 -0.00000000000E+00 -0.00000000000E+00 -0.23162327480E+04  0.23162327480E+04  0.00000000000E+00 0. -1.
         23    2    1    2    0    0 -0.13897073757E+04  0.17335624817E+04  0.62959411374E+03  0.23111091714E+04  0.91166803296E+02 0.  0.
        254    2    1    2    0    0  0.13897073757E+04 -0.17335624817E+04 -0.50144493812E+03  0.24495055003E+04  0.90116852028E+03 0.  0.
        -24    2    4    4    0    0  0.14095087960E+04 -0.14212982818E+04 -0.20922452402E+03  0.20142185958E+04  0.80608921633E+02 0.  0.
         24    2    4    4    0    0 -0.19801420387E+02 -0.31226419992E+03 -0.29222041410E+03  0.43528690448E+03  0.78618649130E+02 0.  0.
         13    1    3    3    0    0 -0.20661131455E+03  0.21443072917E+03  0.68671533850E+02  0.30558886183E+03  0.00000000000E+00 0. -1.
        -13    1    3    3    0    0 -0.11830960611E+04  0.15191317526E+04  0.56092257989E+03  0.20055203096E+04  0.00000000000E+00 0.  1.
          2    1    6    6  502    0  0.30323286784E+02 -0.13673592308E+03 -0.12891024542E+03  0.19035247767E+03  0.00000000000E+00 0. -1.
          1    1    5    5  503    0  0.44172067673E+03 -0.41994806791E+03 -0.31093972331E+02  0.61027892894E+03  0.00000000000E+00 0. -1.
         -2    1    5    5    0  503  0.96778811931E+03 -0.10013502139E+04 -0.17813055169E+03  0.14039396669E+04  0.00000000000E+00 0.  1.
         -1    1    6    6    0  502 -0.50124707171E+02 -0.17552827684E+03 -0.16331016868E+03  0.24493442680E+03  0.00000000000E+00 0.  1.
<mgrwt>
<rscale>  0 0.47588896E+04</rscale>
<asrwt>0</asrwt>
<pdfrwt beam="1">  1        2 0.37605876E+00 0.47588896E+04</pdfrwt>
<pdfrwt beam="2">  1       -2 0.35634350E+00 0.47588896E+04</pdfrwt>
<totfact> 0.39465545E-02</totfact>
</mgrwt>
</event>
<event>
12    1  0.1960998E-007  0.1227488E+04  0.7818608E-02  0.9089131E-01
          1   -1    0    0  501    0  0.00000000000E+00  0.00000000000E+00  0.21015654922E+04  0.21015654922E+04  0.00000000000E+00 0. -1.
         -1   -1    0    0    0  501 -0.00000000000E+00 -0.00000000000E+00 -0.17923862817E+03  0.17923862817E+03  0.00000000000E+00 0.  1.
         23    2    1    2    0    0  0.19333043252E+03  0.17745996244E+03  0.30441257368E+03  0.41196873010E+03  0.90457311225E+02 0.  0.
        254    2    1    2    0    0 -0.19333043252E+03 -0.17745996244E+03  0.16179142903E+04  0.18688353902E+04  0.89779194170E+03 0.  0.
        -24    2    4    4    0    0  0.29065474257E+03 -0.26124155575E+03  0.99058779885E+03  0.10680493871E+04  0.82085176848E+02 0.  0.
         24    2    4    4    0    0 -0.48398517509E+03  0.83781593310E+02  0.62732649146E+03  0.80078600311E+03  0.80365980415E+02 0.  0.
         13    1    3    3    0    0  0.18499570820E+03  0.16625187941E+03  0.30954256088E+03  0.39708902838E+03  0.00000000000E+00 0. -1.
        -13    1    3    3    0    0  0.83347243180E+01  0.11208083029E+02 -0.51299871974E+01  0.14879701720E+02  0.00000000000E+00 0.  1.
          2    1    6    6  502    0 -0.22384955944E+03  0.78120716695E+02  0.28253597480E+03  0.36883336168E+03  0.00000000000E+00 0. -1.
          1    1    5    5  503    0  0.21825002916E+03 -0.23630494199E+03  0.82945256077E+03  0.88964299098E+03  0.00000000000E+00 0. -1.
         -2    1    5    5    0  503  0.72404713410E+02 -0.24936613757E+02  0.16113523808E+03  0.17840639613E+03  0.00000000000E+00 0.  1.
         -1    1    6    6    0  502 -0.26013561566E+03  0.56608766146E+01  0.34479051666E+03  0.43195264143E+03  0.00000000000E+00 0.  1.
<mgrwt>
<rscale>  0 0.12274880E+04</rscale>
<asrwt>0</asrwt>
<pdfrwt beam="1">  1        1 0.32331775E+00 0.12274880E+04</pdfrwt>
<pdfrwt beam="2">  1       -1 0.27575175E-01 0.12274880E+04</pdfrwt>
<totfact> 0.29761681E+01</totfact>
</mgrwt>
</event>
<event>
12    1  0.2243577E-007  0.2651776E+04  0.7818608E-02  0.8350824E-01
          1   -1    0    0  501    0  0.00000000000E+00  0.00000000000E+00  0.98309417656E+03  0.98309417656E+03  0.00000000000E+00 0. -1.
         -1   -1    0    0    0  501 -0.00000000000E+00 -0.00000000000E+00 -0.17882096781E+04  0.17882096781E+04  0.00000000000E+00 0.  1.
         23    2    1    2    0    0  0.10806763750E+04  0.33697873959E+03 -0.50812028832E+02  0.11375174479E+04  0.99739579214E+02 0.  0.
        254    2    1    2    0    0 -0.10806763750E+04 -0.33697873959E+03 -0.75430347269E+03  0.16337864067E+04  0.90491336345E+03 0.  0.
        -24    2    4    4    0    0 -0.12321373037E+04 -0.27406708765E+03 -0.63410690952E+03  0.14149680483E+04  0.82267256119E+02 0.  0.
         24    2    4    4    0    0  0.15146092865E+03 -0.62911651938E+02 -0.12019656316E+03  0.21881835838E+03  0.80845354285E+02 0.  0.
         11    1    3    3    0    0  0.29658661027E+03  0.46969261463E+02 -0.19933482383E+02  0.30094363697E+03  0.00000000000E+00 0.  1.
        -11    1    3    3    0    0  0.78408976474E+03  0.29000947812E+03 -0.30878546448E+02  0.83657381097E+03  0.00000000000E+00 0. -1.
          4    1    6    6  502    0  0.13733999848E+03 -0.74380317273E+02 -0.81758350725E+02  0.17629275281E+03  0.00000000000E+00 0. -1.
          3    1    5    5  503    0 -0.73007458781E+03 -0.12129015613E+03 -0.37744181017E+03  0.83077224665E+03  0.00000000000E+00 0. -1.
         -4    1    5    5    0  503 -0.50206271586E+03 -0.15277693152E+03 -0.25666509936E+03  0.58419580166E+03  0.00000000000E+00 0.  1.
         -3    1    6    6    0  502  0.14120930173E+02  0.11468665335E+02 -0.38438212440E+02  0.42525605570E+02  0.00000000000E+00 0.  1.
<mgrwt>
<rscale>  0 0.26517756E+04</rscale>
<asrwt>0</asrwt>
<pdfrwt beam="1">  1        1 0.15124526E+00 0.26517756E+04</pdfrwt>
<pdfrwt beam="2">  1       -1 0.27510918E+00 0.26517756E+04</pdfrwt>
<totfact> 0.65483740E-01</totfact>
</mgrwt>
</event>
<event>
12    1  0.1960998E-007  0.3485874E+04  0.7818608E-02  0.8117146E-01
         -1   -1    0    0    0  501 -0.00000000000E+00  0.00000000000E+00  0.13300762411E+04  0.13300762411E+04  0.00000000000E+00 0. -1.
          1   -1    0    0  501    0  0.00000000000E+00 -0.00000000000E+00 -0.22839512736E+04  0.22839512736E+04  0.00000000000E+00 0.  1.
         23    2    1    2    0    0  0.13617639697E+04 -0.82331722056E+03 -0.79063624558E+03  0.17792380067E+04  0.91268048515E+02 0.  0.
        254    2    1    2    0    0 -0.13617639697E+04  0.82331722056E+03 -0.16323878689E+03  0.18347895079E+04  0.89863968416E+03 0.  0.
        -24    2    4    4    0    0 -0.15519794224E+02  0.32645955140E+03  0.14234102229E+03  0.36536660568E+03  0.80094239540E+02 0.  0.
         24    2    4    4    0    0 -0.13462441755E+04  0.49685766916E+03 -0.30557980918E+03  0.14694229023E+04  0.81140140493E+02 0.  0.
         13    1    3    3    0    0  0.22190280735E+03 -0.99045567080E+02 -0.13532082317E+03  0.27814134078E+03  0.00000000000E+00 0. -1.
        -13    1    3    3    0    0  0.11398611624E+04 -0.72427165348E+03 -0.65531542240E+03  0.15010966659E+04  0.00000000000E+00 0.  1.
          4    1    6    6  502    0 -0.43025159517E+03  0.18805505351E+03 -0.73033808283E+02  0.47520003730E+03  0.00000000000E+00 0. -1.
          3    1    5    5  503    0 -0.25012353385E+02  0.38096732975E+02  0.50646567813E+01  0.45854439627E+02  0.00000000000E+00 0. -1.
         -4    1    5    5    0  503  0.94925591608E+01  0.28836281842E+03  0.13727636550E+03  0.31951216605E+03  0.00000000000E+00 0.  1.
         -3    1    6    6    0  502 -0.91599258035E+03  0.30880261565E+03 -0.23254600089E+03  0.99422286496E+03  0.00000000000E+00 0.  1.
<mgrwt>
<rscale>  0 0.34858740E+04</rscale>
<asrwt>0</asrwt>
<pdfrwt beam="1">  1        1 0.35137711E+00 0.34858740E+04</pdfrwt>
<pdfrwt beam="2">  1       -1 0.20462712E+00 0.34858740E+04</pdfrwt>
<totfact> 0.21808609E-01</totfact>
</mgrwt>
</event>
<event>
12    1  0.1960998E-007  0.2583207E+04  0.7818608E-02  0.8373928E-01
          2   -1    0    0  501    0  0.00000000000E+00  0.00000000000E+00  0.35001066769E+04  0.35001066769E+04  0.00000000000E+00 0. -1.
         -2   -1    0    0    0  501 -0.00000000000E+00 -0.00000000000E+00 -0.47662540956E+03  0.47662540956E+03  0.00000000000E+00 0.  1.
         23    2    1    2    0    0  0.61051078122E+03  0.89287102689E+03  0.18490022994E+04  0.21439838949E+04  0.88968275218E+02 0.  0.
        254    2    1    2    0    0 -0.61051078122E+03 -0.89287102689E+03  0.11744789680E+04  0.18327481915E+04  0.89979053268E+03 0.  0.
        -24    2    4    4    0    0  0.46738162086E+01 -0.55237428686E+03  0.92934339882E+03  0.10839368904E+04  0.78107823638E+02 0.  0.
         24    2    4    4    0    0 -0.61518459743E+03 -0.34049674003E+03  0.24513556915E+03  0.74881130112E+03  0.78973403984E+02 0.  0.
         11    1    3    3    0    0  0.17456011451E+03  0.29170088362E+03  0.65314447431E+03  0.73631402500E+03  0.00000000000E+00 0. -1.
        -11    1    3    3    0    0  0.43595066671E+03  0.60117014327E+03  0.11958578251E+04  0.14076698699E+04  0.00000000000E+00 0.  1.
          2    1    6    6  502    0 -0.25751858937E+03 -0.18540720651E+03  0.12233153114E+03  0.34008331274E+03  0.00000000000E+00 0. -1.
          1    1    5    5  503    0 -0.31216362293E+02 -0.15959734793E+03  0.24463792654E+03  0.29375753581E+03  0.00000000000E+00 0. -1.
         -2    1    5    5    0  503  0.35890178501E+02 -0.39277693893E+03  0.68470547228E+03  0.79017935460E+03  0.00000000000E+00 0.  1.
         -1    1    6    6    0  502 -0.35766600806E+03 -0.15508953352E+03  0.12280403801E+03  0.40872798837E+03  0.00000000000E+00 0.  1.
<mgrwt>
<rscale>  0 0.25832071E+04</rscale>
<asrwt>0</asrwt>
<pdfrwt beam="1">  1        2 0.53847793E+00 0.25832071E+04</pdfrwt>
<pdfrwt beam="2">  1       -2 0.73326988E-01 0.25832071E+04</pdfrwt>
<totfact> 0.12095678E+00</totfact>
</mgrwt>
</event>
<event>
12    1  0.1960998E-007  0.1379405E+04  0.7818608E-02  0.8968863E-01
         -1   -1    0    0    0  501 -0.00000000000E+00  0.00000000000E+00  0.49380394386E+03  0.49380394386E+03  0.00000000000E+00 0.  1.
          1   -1    0    0  501    0  0.00000000000E+00 -0.00000000000E+00 -0.96331609958E+03  0.96331609958E+03  0.00000000000E+00 0. -1.
         23    2    1    2    0    0 -0.29952065986E+03  0.83718884713E+02  0.11608317637E+03  0.34404590780E+03  0.90392507987E+02 0.  0.
        254    2    1    2    0    0  0.29952065986E+03 -0.83718884713E+02 -0.58559533209E+03  0.11130741356E+04  0.89403057058E+03 0.  0.
        -24    2    4    4    0    0  0.60379864088E+03 -0.14465998533E+03 -0.39793632872E+03  0.74165787796E+03  0.78764053600E+02 0.  0.
         24    2    4    4    0    0 -0.30427798102E+03  0.60941100616E+02 -0.18765900337E+03  0.37141625768E+03  0.80219869408E+02 0.  0.
         11    1    3    3    0    0 -0.68477730219E+02  0.30893305733E+02 -0.96726496523E+01  0.75744016439E+02  0.00000000000E+00 0. -1.
        -11    1    3    3    0    0 -0.23104292964E+03  0.52825578980E+02  0.12575582602E+03  0.26830189137E+03  0.00000000000E+00 0.  1.
          4    1    6    6  502    0 -0.73812430103E+02 -0.48109734014E+01 -0.13581126165E+02  0.75205500402E+02  0.00000000000E+00 0. -1.
          1    1    5    5  503    0  0.11811368941E+03  0.28143628393E+01 -0.81186772608E+02  0.14335290828E+03  0.00000000000E+00 0. -1.
         -2    1    5    5    0  503  0.48568495147E+03 -0.14747434817E+03 -0.31674955611E+03  0.59830496968E+03  0.00000000000E+00 0.  1.
         -3    1    6    6    0  502 -0.23046555092E+03  0.65752074017E+02 -0.17407787721E+03  0.29621075728E+03  0.00000000000E+00 0.  1.
<mgrwt>
<rscale>  0 0.13794046E+04</rscale>
<asrwt>0</asrwt>
<pdfrwt beam="1">  1        1 0.14820247E+00 0.13794046E+04</pdfrwt>
<pdfrwt beam="2">  1       -1 0.75969839E-01 0.13794046E+04</pdfrwt>
<totfact> 0.27496862E+01</totfact>
</mgrwt>
</event>
<event>
12    1  0.1960998E-007  0.1586458E+04  0.7818608E-02  0.8828911E-01
         -1   -1    0    0    0  501 -0.00000000000E+00  0.00000000000E+00  0.17363060271E+04  0.17363060271E+04  0.00000000000E+00 0.  1.
          1   -1    0    0  501    0  0.00000000000E+00 -0.00000000000E+00 -0.36238567916E+03  0.36238567916E+03  0.00000000000E+00 0. -1.
         23    2    1    2    0    0 -0.14601820640E+03  0.39958917192E+03  0.89241320153E+03  0.99291572331E+03  0.92127565941E+02 0.  0.
        254    2    1    2    0    0  0.14601820640E+03 -0.39958917192E+03  0.48150714639E+03  0.11057759829E+04  0.89994364795E+03 0.  0.
        -24    2    4    4    0    0  0.48786249320E+03 -0.27310729805E+03  0.46649134899E+03  0.73251938382E+03  0.79831450310E+02 0.  0.
         24    2    4    4    0    0 -0.34184428680E+03 -0.12648187387E+03  0.15015797391E+02  0.37325659911E+03  0.78992618503E+02 0.  0.
         11    1    3    3    0    0 -0.98284758643E+02  0.33280774932E+03  0.64772532847E+03  0.73482582490E+03  0.00000000000E+00 0. -1.
        -11    1    3    3    0    0 -0.47733447760E+02  0.66781422596E+02  0.24468787306E+03  0.25808989841E+03  0.00000000000E+00 0.  1.
          2    1    6    6  502    0 -0.56890520705E+02  0.61677486826E+01  0.14116147152E+02  0.58939274515E+02  0.00000000000E+00 0. -1.
          1    1    5    5  503    0  0.19339756621E+00  0.38969575285E+01  0.26916156250E+01  0.47400923272E+01  0.00000000000E+00 0. -1.
         -2    1    5    5    0  503  0.48766909563E+03 -0.27700425558E+03  0.46379973337E+03  0.72777929149E+03  0.00000000000E+00 0.  1.
         -1    1    6    6    0  502 -0.28495376609E+03 -0.13264962255E+03  0.89965023922E+00  0.31431732460E+03  0.00000000000E+00 0.  1.
<mgrwt>
<rscale>  0 0.15864582E+04</rscale>
<asrwt>0</asrwt>
<pdfrwt beam="1">  1        1 0.55751644E-01 0.15864582E+04</pdfrwt>
<pdfrwt beam="2">  1       -1 0.26712400E+00 0.15864582E+04</pdfrwt>
<totfact> 0.35473612E+00</totfact>
</mgrwt>
</event>
<event>
12    1  0.1960998E-007  0.3194871E+04  0.7818608E-02  0.8190173E-01
          2   -1    0    0  501    0  0.00000000000E+00  0.00000000000E+00  0.23752128320E+04  0.23752128320E+04  0.00000000000E+00 0. -1.
         -2   -1    0    0    0  501 -0.00000000000E+00 -0.00000000000E+00 -0.10743460468E+04  0.10743460468E+04  0.00000000000E+00 0.  1.
         23    2    1    2    0    0  0.12776802967E+04  0.24483388250E+03  0.13352045741E+04  0.18663845983E+04  0.90607083491E+02 0.  0.
        254    2    1    2    0    0 -0.12776802967E+04 -0.24483388250E+03 -0.34337788903E+02  0.15831742805E+04  0.90158257976E+03 0.  0.
        -24    2    4    4    0    0 -0.67875860455E+03 -0.51895024316E+03 -0.23572798473E+03  0.88993448763E+03  0.79956934479E+02 0.  0.
         24    2    4    4    0    0 -0.59892169216E+03  0.27411636066E+03  0.20139019583E+03  0.69323979288E+03  0.78590247133E+02 0.  0.
         13    1    3    3    0    0  0.30982896561E+03  0.31296911500E+02  0.28128768330E+03  0.41963823155E+03  0.00000000000E+00 0.  1.
        -13    1    3    3    0    0  0.96785133110E+03  0.21353697100E+03  0.10539168908E+04  0.14467463668E+04  0.00000000000E+00 0. -1.
          4    1    6    6  502    0 -0.26569506696E+03  0.10345523715E+03  0.12407983997E+03  0.31095443620E+03  0.00000000000E+00 0. -1.
          1    1    5    5  503    0 -0.10163865535E+03 -0.46808011106E+02 -0.19636164792E+02  0.11360891309E+03  0.00000000000E+00 0. -1.
         -2    1    5    5    0  503 -0.57711994920E+03 -0.47214223205E+03 -0.21609181994E+03  0.77632557454E+03  0.00000000000E+00 0.  1.
         -3    1    6    6    0  502 -0.33322662519E+03  0.17066112351E+03  0.77310355856E+02  0.38228535669E+03  0.00000000000E+00 0.  1.
<mgrwt>
<rscale>  0 0.31948712E+04</rscale>
<asrwt>0</asrwt>
<pdfrwt beam="1">  1        2 0.36541736E+00 0.31948712E+04</pdfrwt>
<pdfrwt beam="2">  1       -2 0.16528401E+00 0.31948712E+04</pdfrwt>
<totfact> 0.79725284E-01</totfact>
</mgrwt>
</event>
<event>
12    1  0.2887364E-007  0.3505688E+04  0.7818608E-02  0.8112443E-01
         -2   -1    0    0    0  501 -0.00000000000E+00  0.00000000000E+00  0.91746119541E+03  0.91746119541E+03  0.00000000000E+00 0. -1.
          2   -1    0    0  501    0  0.00000000000E+00 -0.00000000000E+00 -0.33488738646E+04  0.33488738646E+04  0.00000000000E+00 0.  1.
         23    2    1    2    0    0  0.13665773922E+04 -0.88400698838E+03 -0.93874823849E+03  0.18806847936E+04  0.82005568959E+02 0.  0.
        254    2    1    2    0    0 -0.13665773922E+04  0.88400698838E+03 -0.14926644307E+04  0.23856502664E+04  0.90237351834E+03 0.  0.
        -24    2    4    4    0    0 -0.86204109033E+03  0.83364534937E+03 -0.57079620740E+03  0.13305471584E+04  0.80424004413E+02 0.  0.
         24    2    4    4    0    0 -0.50453630184E+03  0.50361639005E+02 -0.92186822328E+03  0.10551031079E+04  0.79425265266E+02 0.  0.
         13    1    3    3    0    0  0.83723344835E+03 -0.51543481327E+03 -0.52794839711E+03  0.11159580654E+04  0.00000000000E+00 0. -1.
        -13    1    3    3    0    0  0.52934394381E+03 -0.36857217511E+03 -0.41079984137E+03  0.76472672818E+03  0.00000000000E+00 0.  1.
          2    1    6    6  502    0 -0.23226255929E+02  0.74525100489E+01 -0.18496192400E+02  0.30612219845E+02  0.00000000000E+00 0. -1.
          1    1    5    5  503    0 -0.27481094125E+01  0.13509251044E+02 -0.95600992039E+01  0.16776396094E+02  0.00000000000E+00 0. -1.
         -2    1    5    5    0  503 -0.85929298092E+03  0.82013609833E+03 -0.56123610819E+03  0.13137707623E+04  0.00000000000E+00 0.  1.
         -3    1    6    6    0  502 -0.48131004591E+03  0.42909128956E+02 -0.90337203088E+03  0.10244908881E+04  0.00000000000E+00 0.  1.
<mgrwt>
<rscale>  0 0.35056878E+04</rscale>
<asrwt>0</asrwt>
<pdfrwt beam="1">  1        2 0.51521136E+00 0.35056878E+04</pdfrwt>
<pdfrwt beam="2">  1       -2 0.14114788E+00 0.35056878E+04</pdfrwt>
<totfact> 0.29785875E-01</totfact>
</mgrwt>
</event>
<event>
12    1  0.1960998E-007  0.1558304E+04  0.7818608E-02  0.8846581E-01
          2   -1    0    0  501    0  0.00000000000E+00  0.00000000000E+00  0.10544874752E+04  0.10544874752E+04  0.00000000000E+00 0. -1.
         -2   -1    0    0    0  501 -0.00000000000E+00 -0.00000000000E+00 -0.57570888603E+03  0.57570888603E+03  0.00000000000E+00 0.  1.
         23    2    1    2    0    0 -0.27495817333E+03 -0.30987141698E+03  0.47868676412E+03  0.63952288653E+03  0.90698468036E+02 0.  0.
        254    2    1    2    0    0  0.27495817333E+03  0.30987141698E+03  0.91825038497E-01  0.99067347469E+03  0.89989534552E+03 0.  0.
        -24    2    4    4    0    0 -0.13926843568E+03  0.67116581698E+02  0.34964507614E+03  0.39050282783E+03  0.79626921051E+02 0.  0.
         24    2    4    4    0    0  0.41422660901E+03  0.24275483528E+03 -0.34955325110E+03  0.60017064687E+03  0.86624109471E+02 0.  0.
         13    1    3    3    0    0 -0.12532090633E+03 -0.78983512086E+02  0.14890946340E+03  0.21004226487E+03  0.00000000000E+00 0. -1.
        -13    1    3    3    0    0 -0.14963726700E+03 -0.23088790489E+03  0.32977730073E+03  0.42948062165E+03  0.00000000000E+00 0.  1.
          4    1    6    6  502    0  0.25221148551E+03  0.99459352364E+02 -0.18140131303E+03  0.32620428042E+03  0.00000000000E+00 0. -1.
          1    1    5    5  503    0 -0.41605464591E+02  0.61001268154E+02  0.18168815895E+03  0.19611924052E+03  0.00000000000E+00 0. -1.
         -2    1    5    5    0  503 -0.97662971086E+02  0.61153135441E+01  0.16795691719E+03  0.19438358730E+03  0.00000000000E+00 0.  1.
         -3    1    6    6    0  502  0.16201512350E+03  0.14329548292E+03 -0.16815193807E+03  0.27396636645E+03  0.00000000000E+00 0.  1.
<mgrwt>
<rscale>  0 0.15583040E+04</rscale>
<asrwt>0</asrwt>
<pdfrwt beam="1">  1        2 0.16222884E+00 0.15583040E+04</pdfrwt>
<pdfrwt beam="2">  1       -2 0.88570598E-01 0.15583040E+04</pdfrwt>
<totfact> 0.24537425E+01</totfact>
</mgrwt>
</event>
<event>
12    1  0.1960998E-007  0.1639794E+04  0.7818608E-02  0.8796467E-01
          2   -1    0    0  501    0  0.00000000000E+00  0.00000000000E+00  0.13503651903E+04  0.13503651903E+04  0.00000000000E+00 0. -1.
         -2   -1    0    0    0  501 -0.00000000000E+00 -0.00000000000E+00 -0.49781433876E+03  0.49781433876E+03  0.00000000000E+00 0.  1.
         23    2    1    2    0    0  0.33996142052E+03 -0.15764607065E+03 -0.18342812743E+03  0.42755454031E+03  0.93439584587E+02 0.  0.
        254    2    1    2    0    0 -0.33996142052E+03  0.15764607065E+03  0.10359789789E+04  0.14206249887E+04  0.89693749099E+03 0.  0.
        -24    2    4    4    0    0 -0.63112764228E+03  0.19183989360E+03  0.76374257358E+03  0.10126741244E+04  0.84151754605E+02 0.  0.
         24    2    4    4    0    0  0.29116622176E+03 -0.34193822949E+02  0.27223640533E+03  0.40795086435E+03  0.79776319272E+02 0.  0.
         11    1    3    3    0    0  0.91421932279E+02 -0.67823501440E+02 -0.96858128854E+02  0.14946402301E+03  0.00000000000E+00 0.  1.
        -11    1    3    3    0    0  0.24853948824E+03 -0.89822569212E+02 -0.86569998575E+02  0.27809051730E+03  0.00000000000E+00 0. -1.
          4    1    6    6  502    0  0.19165306955E+03 -0.40953100729E+02  0.13369243432E+03  0.23723769203E+03  0.00000000000E+00 0. -1.
          1    1    5    5  503    0 -0.61678087825E+03  0.17401244185E+03  0.72464709065E+03  0.96737396475E+03  0.00000000000E+00 0. -1.
         -2    1    5    5    0  503 -0.14346764033E+02  0.17827451751E+02  0.39095482939E+02  0.45300159606E+02  0.00000000000E+00 0.  1.
         -1    1    6    6    0  502  0.99513152206E+02  0.67592777809E+01  0.13854397102E+03  0.17071317232E+03  0.00000000000E+00 0.  1.
<mgrwt>
<rscale>  0 0.16397941E+04</rscale>
<asrwt>0</asrwt>
<pdfrwt beam="1">  1        2 0.20774849E+00 0.16397941E+04</pdfrwt>
<pdfrwt beam="2">  1       -2 0.76586822E-01 0.16397941E+04</pdfrwt>
<totfact> 0.22519266E+01</totfact>
</mgrwt>
</event>
<event>
12    1  0.1960998E-007  0.2726039E+04  0.7818608E-02  0.8326605E-01
         -2   -1    0    0    0  501 -0.00000000000E+00  0.00000000000E+00  0.91210294888E+03  0.91210294888E+03  0.00000000000E+00 0.  1.
          2   -1    0    0  501    0  0.00000000000E+00 -0.00000000000E+00 -0.20368557240E+04  0.20368557240E+04  0.00000000000E+00 0. -1.
         23    2    1    2    0    0  0.90221731257E+03  0.79225255246E+03 -0.68315802956E+03  0.13844587723E+04  0.91438573908E+02 0.  0.
        254    2    1    2    0    0 -0.90221731257E+03 -0.79225255246E+03 -0.44159474553E+03  0.15644999006E+04  0.90055196054E+03 0.  0.
        -24    2    4    4    0    0 -0.83294902330E+03 -0.40349448329E+03  0.48507843095E+02  0.93031853958E+03  0.80794187812E+02 0.  0.
         24    2    4    4    0    0 -0.69268289272E+02 -0.38875806917E+03 -0.49010258862E+03  0.63418136099E+03  0.77810789827E+02 0.  0.
         11    1    3    3    0    0  0.36767924696E+03  0.34921091923E+03 -0.33527494475E+03  0.60790261007E+03  0.00000000000E+00 0.  1.
        -11    1    3    3    0    0  0.53453806561E+03  0.44304163324E+03 -0.34788308481E+03  0.77655616221E+03  0.00000000000E+00 0. -1.
          4    1    6    6  502    0  0.11397783922E+02 -0.14191739129E+03 -0.15996269269E+03  0.21414602141E+03  0.00000000000E+00 0. -1.
          3    1    5    5  503    0 -0.68525566612E+03 -0.35689991758E+03  0.20249058175E+02  0.77289255623E+03  0.00000000000E+00 0. -1.
         -4    1    5    5    0  503 -0.14769335719E+03 -0.46594565710E+02  0.28258784920E+02  0.15742598336E+03  0.00000000000E+00 0.  1.
         -3    1    6    6    0  502 -0.80666073194E+02 -0.24684067788E+03 -0.33013989593E+03  0.42003533959E+03  0.00000000000E+00 0.  1.
<mgrwt>
<rscale>  0 0.27260390E+04</rscale>
<asrwt>0</asrwt>
<pdfrwt beam="1">  1        2 0.31336242E+00 0.27260390E+04</pdfrwt>
<pdfrwt beam="2">  1       -2 0.14032353E+00 0.27260390E+04</pdfrwt>
<totfact> 0.19918045E+00</totfact>
</mgrwt>
</event>
<event>
12    1  0.1960998E-007  0.1559636E+04  0.7818608E-02  0.8845736E-01
          2   -1    0    0  501    0  0.00000000000E+00  0.00000000000E+00  0.12562350884E+04  0.12562350884E+04  0.00000000000E+00 0. -1.
         -2   -1    0    0    0  501 -0.00000000000E+00 -0.00000000000E+00 -0.48407850934E+03  0.48407850934E+03  0.00000000000E+00 0.  1.
         23    2    1    2    0    0  0.37031101405E+03 -0.27423697857E+03  0.26566075726E+01  0.46994971759E+03  0.92247015950E+02 0.  0.
        254    2    1    2    0    0 -0.37031101405E+03  0.27423697857E+03  0.76949997145E+03  0.12703638801E+04  0.89964327057E+03 0.  0.
        -24    2    4    4    0    0 -0.51257487765E+03  0.10861490656E+03  0.71857782528E+02  0.53481316611E+03  0.79569960503E+02 0.  0.
         24    2    4    4    0    0  0.14226386360E+03  0.16562207202E+03  0.69764218892E+03  0.73555071400E+03  0.81612201779E+02 0.  0.
         13    1    3    3    0    0  0.24760712265E+03 -0.14056642758E+03  0.30586074116E+02  0.28636290905E+03  0.00000000000E+00 0. -1.
        -13    1    3    3    0    0  0.12270389140E+03 -0.13367055099E+03 -0.27929466544E+02  0.18358680854E+03  0.00000000000E+00 0.  1.
          2    1    6    6  502    0 -0.10288288504E+02  0.48811006865E+01  0.38852682076E+02  0.40487095830E+02  0.00000000000E+00 0. -1.
          1    1    5    5  503    0 -0.22265407710E+03  0.87183002064E+02  0.38492434769E+02  0.24219285999E+03  0.00000000000E+00 0. -1.
         -2    1    5    5    0  503 -0.28992080055E+03  0.21431904494E+02  0.33365347758E+02  0.29262030612E+03  0.00000000000E+00 0.  1.
         -1    1    6    6    0  502  0.15255215210E+03  0.16074097133E+03  0.65878950684E+03  0.69506361817E+03  0.00000000000E+00 0.  1.
<mgrwt>
<rscale>  0 0.15596364E+04</rscale>
<asrwt>0</asrwt>
<pdfrwt beam="1">  1        2 0.19326694E+00 0.15596364E+04</pdfrwt>
<pdfrwt beam="2">  1       -2 0.74473617E-01 0.15596364E+04</pdfrwt>
<totfact> 0.27363977E+01</totfact>
</mgrwt>
</event>
<event>
12    1  0.1960998E-007  0.1835807E+04  0.7818608E-02  0.8687486E-01
          1   -1    0    0  501    0  0.00000000000E+00  0.00000000000E+00  0.27003136839E+04  0.27003136839E+04  0.00000000000E+00 0. -1.
         -1   -1    0    0    0  501 -0.00000000000E+00 -0.00000000000E+00 -0.31201810462E+03  0.31201810462E+03  0.00000000000E+00 0.  1.
         23    2    1    2    0    0  0.59165430428E+02  0.66350149639E+03  0.57123062789E+03  0.88208651337E+03  0.89651564255E+02 0.  0.
        254    2    1    2    0    0 -0.59165430428E+02 -0.66350149639E+03  0.18170649514E+04  0.21302452752E+04  0.89021632811E+03 0.  0.
        -24    2    4    4    0    0 -0.25381729186E+03 -0.40053657553E+03  0.27897457399E+03  0.55594601540E+03  0.79977453832E+02 0.  0.
         24    2    4    4    0    0  0.19465186143E+03 -0.26296492086E+03  0.15380903774E+04  0.15742992598E+04  0.75208067399E+02 0.  0.
         11    1    3    3    0    0  0.67829508429E+02  0.30130334218E+03  0.23902732141E+03  0.39053630638E+03  0.00000000000E+00 0.  1.
        -11    1    3    3    0    0 -0.86640780006E+01  0.36219815420E+03  0.33220330647E+03  0.49155020699E+03  0.00000000000E+00 0. -1.
          2    1    6    6  502    0  0.16290996879E+03 -0.18346583612E+03  0.10138546466E+04  0.10431206140E+04  0.00000000000E+00 0. -1.
          1    1    5    5  503    0 -0.25919119826E+03 -0.38842674023E+03  0.27577467429E+03  0.54231640281E+03  0.00000000000E+00 0. -1.
         -2    1    5    5    0  503  0.53739064051E+01 -0.12109835304E+02  0.31998996974E+01  0.13629612585E+02  0.00000000000E+00 0.  1.
         -1    1    6    6    0  502  0.31741892644E+02 -0.79499084733E+02  0.52423573086E+03  0.53117864578E+03  0.00000000000E+00 0.  1.
<mgrwt>
<rscale>  0 0.18358069E+04</rscale>
<asrwt>0</asrwt>
<pdfrwt beam="1">  1        1 0.41543286E+00 0.18358069E+04</pdfrwt>
<pdfrwt beam="2">  1       -1 0.48002787E-01 0.18358069E+04</pdfrwt>
<totfact> 0.40083126E+00</totfact>
</mgrwt>
</event>
<event>
12    1  0.1960998E-007  0.1275590E+04  0.7818608E-02  0.9049150E-01
          1   -1    0    0  501    0  0.00000000000E+00  0.00000000000E+00  0.20744576529E+03  0.20744576529E+03  0.00000000000E+00 0. -1.
         -1   -1    0    0    0  501 -0.00000000000E+00 -0.00000000000E+00 -0.19609102379E+04  0.19609102379E+04  0.00000000000E+00 0.  1.
         23    2    1    2    0    0  0.39696504979E+02  0.30235136991E+03 -0.64858935245E+03  0.72237686805E+03  0.90377143102E+02 0.  0.
        254    2    1    2    0    0 -0.39696504979E+02 -0.30235136991E+03 -0.11048751202E+04  0.14459791351E+04  0.88154096031E+03 0.  0.
        -24    2    4    4    0    0 -0.56574327791E+02 -0.21861278284E+03 -0.12444633085E+04  0.12672969677E+04  0.79752583730E+02 0.  0.
         24    2    4    4    0    0  0.16877822813E+02 -0.83738587073E+02  0.13958818836E+03  0.17868216747E+03  0.71731741750E+02 0.  0.
         11    1    3    3    0    0  0.60544416240E+02  0.12695378595E+03 -0.31270248437E+03  0.34287859927E+03  0.00000000000E+00 0.  1.
        -11    1    3    3    0    0 -0.20847911261E+02  0.17539758397E+03 -0.33588686807E+03  0.37949826879E+03  0.00000000000E+00 0. -1.
          4    1    6    6  502    0  0.63548162545E+00 -0.39411441406E+02  0.12215501322E+03  0.12835697412E+03  0.00000000000E+00 0. -1.
          1    1    5    5  503    0 -0.50703466438E+02 -0.22312002328E+03 -0.12294289685E+04  0.12505394736E+04  0.00000000000E+00 0. -1.
         -2    1    5    5    0  503 -0.58708613533E+01  0.45072404379E+01 -0.15034339999E+02  0.16757494103E+02  0.00000000000E+00 0.  1.
         -3    1    6    6    0  502  0.16242341187E+02 -0.44327145667E+02  0.17433175140E+02  0.50325193350E+02  0.00000000000E+00 0.  1.
<mgrwt>
<rscale>  0 0.12755901E+04</rscale>
<asrwt>0</asrwt>
<pdfrwt beam="1">  1        1 0.31914733E-01 0.12755901E+04</pdfrwt>
<pdfrwt beam="2">  1       -1 0.30167850E+00 0.12755901E+04</pdfrwt>
<totfact> 0.45202630E+00</totfact>
</mgrwt>
</event>
<event>
12    1  0.1960998E-007  0.2151902E+04  0.7818608E-02  0.8538718E-01
         -2   -1    0    0    0  501 -0.00000000000E+00  0.00000000000E+00  0.80692529349E+03  0.80692529349E+03  0.00000000000E+00 0.  1.
          2   -1    0    0  501    0  0.00000000000E+00 -0.00000000000E+00 -0.14346689584E+04  0.14346689584E+04  0.00000000000E+00 0. -1.
         23    2    1    2    0    0  0.77611318155E+03  0.25589462275E+03  0.90359937951E+02  0.82598035717E+03  0.79024701941E+02 0.  0.
        254    2    1    2    0    0 -0.77611318155E+03 -0.25589462275E+03 -0.71810360288E+03  0.14156138947E+04  0.90579036536E+03 0.  0.
        -24    2    4    4    0    0 -0.81325983168E+03 -0.14016901191E+02 -0.79903664215E+03  0.11436123009E+04  0.88326167444E+02 0.  0.
         24    2    4    4    0    0  0.37146650137E+02 -0.24187772156E+03  0.80933039271E+02  0.27200159387E+03  0.86890761394E+02 0.  0.
         13    1    3    3    0    0  0.53908470270E+03  0.14778851715E+03  0.85047641956E+02  0.56540858137E+03  0.00000000000E+00 0. -1.
        -13    1    3    3    0    0  0.23702847885E+03  0.10810610560E+03  0.53122959954E+01  0.26057177580E+03  0.00000000000E+00 0.  1.
          4    1    6    6  502    0  0.38950452672E+02 -0.24740993731E+03  0.70724882317E+02  0.26025146267E+03  0.00000000000E+00 0. -1.
          3    1    5    5  503    0 -0.42168027171E+03  0.26829544103E+02 -0.45274172337E+03  0.61928115106E+03  0.00000000000E+00 0. -1.
         -4    1    5    5    0  503 -0.39157955998E+03 -0.40846445294E+02 -0.34629491878E+03  0.52433114981E+03  0.00000000000E+00 0.  1.
         -3    1    6    6    0  502 -0.18038025347E+01  0.55322157500E+01  0.10208156954E+02  0.11750131194E+02  0.00000000000E+00 0.  1.
<mgrwt>
<rscale>  0 0.21519021E+04</rscale>
<asrwt>0</asrwt>
<pdfrwt beam="1">  1        2 0.22071830E+00 0.21519021E+04</pdfrwt>
<pdfrwt beam="2">  1       -2 0.12414235E+00 0.21519021E+04</pdfrwt>
<totfact> 0.61902106E+00</totfact>
</mgrwt>
</event>
<event>
12    1  0.1960998E-007  0.3175022E+04  0.7818608E-02  0.8195445E-01
          2   -1    0    0  501    0  0.00000000000E+00  0.00000000000E+00  0.24250617084E+04  0.24250617084E+04  0.00000000000E+00 0. -1.
         -2   -1    0    0    0  501 -0.00000000000E+00 -0.00000000000E+00 -0.10392273652E+04  0.10392273652E+04  0.00000000000E+00 0.  1.
         23    2    1    2    0    0  0.78673357883E+02 -0.10399787850E+04  0.17482658817E+04  0.20377419616E+04  0.90627470582E+02 0.  0.
        254    2    1    2    0    0 -0.78673357883E+02  0.10399787850E+04 -0.36243153846E+03  0.14265471120E+04  0.90329102299E+03 0.  0.
        -24    2    4    4    0    0 -0.18448556412E+03  0.43834694941E+03 -0.59748108041E+03  0.76782741786E+03  0.79952052739E+02 0.  0.
         24    2    4    4    0    0  0.10581220624E+03  0.60163183561E+03  0.23504954195E+03  0.65871969417E+03  0.74204175783E+02 0.  0.
         11    1    3    3    0    0  0.65674036641E+02 -0.32207150718E+03  0.53275355476E+03  0.62599479626E+03  0.00000000000E+00 0. -1.
        -11    1    3    3    0    0  0.12999321242E+02 -0.71790727784E+03  0.12155123269E+04  0.14117471654E+04  0.00000000000E+00 0.  1.
          4    1    6    6  502    0  0.10184952410E+03  0.44289605911E+03  0.19772804426E+03  0.49560732866E+03  0.00000000000E+00 0. -1.
          3    1    5    5  503    0 -0.43074347332E+02  0.20440770585E+03 -0.25698694882E+03  0.33118001370E+03  0.00000000000E+00 0. -1.
         -4    1    5    5    0  503 -0.14141121679E+03  0.23393924356E+03 -0.34049413159E+03  0.43664740416E+03  0.00000000000E+00 0.  1.
         -3    1    6    6    0  502  0.39626821336E+01  0.15873577651E+03  0.37321497686E+02  0.16311236551E+03  0.00000000000E+00 0.  1.
<mgrwt>
<rscale>  0 0.31750216E+04</rscale>
<asrwt>0</asrwt>
<pdfrwt beam="1">  1        2 0.37308642E+00 0.31750216E+04</pdfrwt>
<pdfrwt beam="2">  1       -2 0.15988113E+00 0.31750216E+04</pdfrwt>
<totfact> 0.81897329E-01</totfact>
</mgrwt>
</event>
<event>
12    1  0.1960998E-007  0.2446958E+04  0.7818608E-02  0.8422129E-01
         -2   -1    0    0    0  501 -0.00000000000E+00  0.00000000000E+00  0.15522465958E+04  0.15522465958E+04  0.00000000000E+00 0.  1.
          2   -1    0    0  501    0  0.00000000000E+00 -0.00000000000E+00 -0.96434494285E+03  0.96434494285E+03  0.00000000000E+00 0. -1.
         23    2    1    2    0    0  0.97622721856E+03  0.10991703354E+03  0.64312123185E+03  0.11777678608E+04  0.91819816000E+02 0.  0.
        254    2    1    2    0    0 -0.97622721856E+03 -0.10991703354E+03 -0.55219578874E+02  0.13388236779E+04  0.90790875202E+03 0.  0.
        -24    2    4    4    0    0  0.84479843716E+02  0.73899096636E+00 -0.22646687438E+03  0.25579579437E+03  0.83706947898E+02 0.  0.
         24    2    4    4    0    0 -0.10607070623E+04 -0.11065602450E+03  0.17124729550E+03  0.10830278835E+04  0.79243501180E+02 0.  0.
         13    1    3    3    0    0  0.14874561500E+03 -0.62605564942E+01  0.70018003587E+02  0.16452043452E+03  0.00000000000E+00 0.  1.
        -13    1    3    3    0    0  0.82748160355E+03  0.11617759003E+03  0.57310322826E+03  0.10132474263E+04  0.00000000000E+00 0. -1.
          4    1    6    6  502    0 -0.89828317057E+03 -0.12224240486E+03  0.14408344308E+03  0.91794111938E+03  0.00000000000E+00 0. -1.
          3    1    5    5  503    0  0.78473171721E+02  0.33249827904E+02 -0.15070785767E+03  0.17313707893E+03  0.00000000000E+00 0. -1.
         -4    1    5    5    0  503  0.60066719957E+01 -0.32510836937E+02 -0.75759016703E+02  0.82658715442E+02  0.00000000000E+00 0.  1.
         -3    1    6    6    0  502 -0.16242389170E+03  0.11586380355E+02  0.27163852421E+02  0.16508676411E+03  0.00000000000E+00 0.  1.
<mgrwt>
<rscale>  0 0.24469582E+04</rscale>
<asrwt>0</asrwt>
<pdfrwt beam="1">  1        2 0.14836076E+00 0.24469582E+04</pdfrwt>
<pdfrwt beam="2">  1       -2 0.23880717E+00 0.24469582E+04</pdfrwt>
<totfact> 0.17928278E+00</totfact>
</mgrwt>
</event>
<event>
12    1  0.1960998E-007  0.5543318E+04  0.7818608E-02  0.7749757E-01
         -2   -1    0    0    0  501 -0.00000000000E+00  0.00000000000E+00  0.37519236035E+04  0.37519236035E+04  0.00000000000E+00 0.  1.
          2   -1    0    0  501    0  0.00000000000E+00 -0.00000000000E+00 -0.20475079702E+04  0.20475079702E+04  0.00000000000E+00 0. -1.
         23    2    1    2    0    0  0.15850523848E+04 -0.14327235063E+04 -0.89344855197E+03  0.23176770988E+04  0.91044556999E+02 0.  0.
        254    2    1    2    0    0 -0.15850523848E+04  0.14327235063E+04  0.25978641852E+04  0.34817544749E+04  0.89923756062E+03 0.  0.
        -24    2    4    4    0    0 -0.94046161633E+03  0.11128041836E+04  0.22415365737E+04  0.26746559198E+04  0.80603195948E+02 0.  0.
         24    2    4    4    0    0 -0.64459076843E+03  0.31991932276E+03  0.35632761150E+03  0.80709855509E+03  0.81197777571E+02 0.  0.
         13    1    3    3    0    0  0.95140685696E+03 -0.80321255426E+03 -0.53712394124E+03  0.13560337544E+04  0.00000000000E+00 0.  1.
        -13    1    3    3    0    0  0.63364552780E+03 -0.62951095208E+03 -0.35632461073E+03  0.96164334444E+03  0.00000000000E+00 0. -1.
          2    1    6    6  502    0 -0.28779255093E+03  0.10501832830E+03  0.12714722570E+03  0.33169235543E+03  0.00000000000E+00 0. -1.
          3    1    5    5  503    0 -0.58952544996E+02  0.97848290965E+02  0.15482178502E+03  0.19240445869E+03  0.00000000000E+00 0. -1.
         -4    1    5    5    0  503 -0.88150907133E+03  0.10149558926E+04  0.20867147887E+04  0.24822514611E+04  0.00000000000E+00 0.  1.
         -1    1    6    6    0  502 -0.35679821750E+03  0.21490099446E+03  0.22918038581E+03  0.47540619965E+03  0.00000000000E+00 0.  1.
<mgrwt>
<rscale>  0 0.55433180E+04</rscale>
<asrwt>0</asrwt>
<pdfrwt beam="1">  1        2 0.31500123E+00 0.55433180E+04</pdfrwt>
<pdfrwt beam="2">  1       -2 0.57721901E+00 0.55433180E+04</pdfrwt>
<totfact> 0.28166600E-03</totfact>
</mgrwt>
</event>
<event>
12    1  0.1960998E-007  0.2222434E+04  0.7818608E-02  0.8509148E-01
          1   -1    0    0  501    0  0.00000000000E+00  0.00000000000E+00  0.10099923497E+04  0.10099923497E+04  0.00000000000E+00 0. -1.
         -1   -1    0    0    0  501 -0.00000000000E+00 -0.00000000000E+00 -0.12225867627E+04  0.12225867627E+04  0.00000000000E+00 0.  1.
         23    2    1    2    0    0 -0.17151080902E+03  0.36178539695E+03  0.75026740706E+03  0.85540790096E+03  0.92286856499E+02 0.  0.
        254    2    1    2    0    0  0.17151080902E+03 -0.36178539695E+03 -0.96286182000E+03  0.13771712114E+04  0.89955157167E+03 0.  0.
        -24    2    4    4    0    0  0.48277273045E+03 -0.91050757982E+02 -0.26782100645E+03  0.56518570468E+03  0.79668309149E+02 0.  0.
         24    2    4    4    0    0 -0.31126192143E+03 -0.27073463896E+03 -0.69504081355E+03  0.81198550674E+03  0.77829956857E+02 0.  0.
         11    1    3    3    0    0 -0.11154633129E+03  0.24842146564E+03  0.59256294511E+03  0.65214005592E+03  0.00000000000E+00 0. -1.
        -11    1    3    3    0    0 -0.59964477728E+02  0.11336393131E+03  0.15770446194E+03  0.20326784504E+03  0.00000000000E+00 0.  1.
          4    1    6    6  502    0 -0.54538614889E+02 -0.88298047253E+02 -0.19832449724E+03  0.22383836103E+03  0.00000000000E+00 0. -1.
          3    1    5    5  503    0  0.38282774716E+03 -0.68785752340E+02 -0.17324386177E+03  0.42579572492E+03  0.00000000000E+00 0. -1.
         -4    1    5    5    0  503  0.99944983290E+02 -0.22265005643E+02 -0.94577144679E+02  0.13938997976E+03  0.00000000000E+00 0.  1.
         -3    1    6    6    0  502 -0.25672330654E+03 -0.18243659171E+03 -0.49671631631E+03  0.58814714571E+03  0.00000000000E+00 0.  1.
<mgrwt>
<rscale>  0 0.22224341E+04</rscale>
<asrwt>0</asrwt>
<pdfrwt beam="1">  1        1 0.15538344E+00 0.22224341E+04</pdfrwt>
<pdfrwt beam="2">  1       -1 0.18809027E+00 0.22224341E+04</pdfrwt>
<totfact> 0.24646427E+00</totfact>
</mgrwt>
</event>
<event>
12    1  0.1960998E-007  0.4302217E+04  0.7818608E-02  0.7946208E-01
          2   -1    0    0  501    0  0.00000000000E+00  0.00000000000E+00  0.39932247140E+04  0.39932247140E+04  0.00000000000E+00 0. -1.
         -2   -1    0    0    0  501 -0.00000000000E+00 -0.00000000000E+00 -0.11587799051E+04  0.11587799051E+04  0.00000000000E+00 0.  1.
         23    2    1    2    0    0 -0.18761876231E+04 -0.69284591697E+03  0.19251632928E+04  0.27775742824E+04  0.92464742525E+02 0.  0.
        254    2    1    2    0    0  0.18761876231E+04  0.69284591697E+03  0.90928151614E+03  0.23744303367E+04  0.90056153955E+03 0.  0.
        -24    2    4    4    0    0  0.58216368411E+03 -0.51356571785E+02  0.61272747420E+03  0.85035304864E+03  0.78187576625E+02 0.  0.
         24    2    4    4    0    0  0.12940239390E+04  0.74420248876E+03  0.29655404195E+03  0.15240772880E+04  0.80820673362E+02 0.  0.
         11    1    3    3    0    0 -0.37166653722E+03 -0.10876065126E+03  0.33858718284E+03  0.51439884772E+03  0.00000000000E+00 0. -1.
        -11    1    3    3    0    0 -0.15045210858E+04 -0.58408526572E+03  0.15865761099E+04  0.22631754346E+04  0.00000000000E+00 0.  1.
          4    1    6    6  502    0  0.19220388403E+03  0.91860115772E+02  0.18872197627E+02  0.21386157614E+03  0.00000000000E+00 0. -1.
          3    1    5    5  503    0  0.23751766162E+03  0.17540184731E+02  0.24637933679E+03  0.34267342362E+03  0.00000000000E+00 0. -1.
         -4    1    5    5    0  503  0.34464602249E+03 -0.68896756517E+02  0.36634813741E+03  0.50767962501E+03  0.00000000000E+00 0.  1.
         -3    1    6    6    0  502  0.11018200549E+04  0.65234237299E+03  0.27768184432E+03  0.13102157119E+04  0.00000000000E+00 0.  1.
<mgrwt>
<rscale>  0 0.43022174E+04</rscale>
<asrwt>0</asrwt>
<pdfrwt beam="1">  1        2 0.61434226E+00 0.43022174E+04</pdfrwt>
<pdfrwt beam="2">  1       -2 0.17827383E+00 0.43022174E+04</pdfrwt>
<totfact> 0.49522295E-02</totfact>
</mgrwt>
</event>
<event>
12    1  0.1960998E-007  0.1762617E+04  0.7818608E-02  0.8726436E-01
         -2   -1    0    0    0  501 -0.00000000000E+00  0.00000000000E+00  0.60102948716E+03  0.60102948716E+03  0.00000000000E+00 0.  1.
          2   -1    0    0  501    0  0.00000000000E+00 -0.00000000000E+00 -0.12922902016E+04  0.12922902016E+04  0.00000000000E+00 0. -1.
         23    2    1    2    0    0  0.47203909141E+03 -0.68010891354E+02  0.21360653864E+03  0.53120209856E+03  0.95401944457E+02 0.  0.
        254    2    1    2    0    0 -0.47203909141E+03  0.68010891354E+02 -0.90486725303E+03  0.13621175902E+04  0.89951831479E+03 0.  0.
        -24    2    4    4    0    0 -0.16495149127E+03  0.46594981081E+03 -0.53552572087E+03  0.73313906430E+03  0.79917890509E+02 0.  0.
         24    2    4    4    0    0 -0.30708760014E+03 -0.39793891946E+03 -0.36934153216E+03  0.62897852586E+03  0.80886592389E+02 0.  0.
         13    1    3    3    0    0  0.26054940238E+03 -0.77884069569E+02  0.92217204452E+02  0.28715140983E+03  0.00000000000E+00 0. -1.
        -13    1    3    3    0    0  0.21148968903E+03  0.98731782159E+01  0.12138933419E+03  0.24405068873E+03  0.00000000000E+00 0.  1.
          4    1    6    6  502    0 -0.20907653488E+03 -0.31780706336E+03 -0.30112302389E+03  0.48516945749E+03  0.00000000000E+00 0. -1.
          1    1    5    5  503    0 -0.63627805884E+02  0.90536449282E+02 -0.98269546859E+02  0.14799408830E+03  0.00000000000E+00 0. -1.
         -2    1    5    5    0  503 -0.10132368539E+03  0.37541336153E+03 -0.43725617401E+03  0.58514497601E+03  0.00000000000E+00 0.  1.
         -3    1    6    6    0  502 -0.98011065255E+02 -0.80131856099E+02 -0.68218508269E+02  0.14380906837E+03  0.00000000000E+00 0.  1.
<mgrwt>
<rscale>  0 0.17626168E+04</rscale>
<asrwt>0</asrwt>
<pdfrwt beam="1">  1        2 0.19881388E+00 0.17626168E+04</pdfrwt>
<pdfrwt beam="2">  1       -2 0.92466075E-01 0.17626168E+04</pdfrwt>
<totfact> 0.15702313E+01</totfact>
</mgrwt>
</event>
<event>
12    1  0.1960998E-007  0.2176646E+04  0.7818608E-02  0.8528212E-01
         -2   -1    0    0    0  501 -0.00000000000E+00  0.00000000000E+00  0.15213447907E+04  0.15213447907E+04  0.00000000000E+00 0. -1.
          2   -1    0    0  501    0  0.00000000000E+00 -0.00000000000E+00 -0.77855266194E+03  0.77855266194E+03  0.00000000000E+00 0.  1.
         23    2    1    2    0    0 -0.61521119085E+03  0.65000002325E+03  0.28679335939E+03  0.94403054949E+03  0.89209908662E+02 0.  0.
        254    2    1    2    0    0  0.61521119085E+03 -0.65000002325E+03  0.45599876941E+03  0.13558669032E+04  0.91074438887E+03 0.  0.
        -24    2    4    4    0    0  0.57511932581E+03 -0.84585053864E+03  0.24609047809E+03  0.10551442090E+04  0.80891320547E+02 0.  0.
         24    2    4    4    0    0  0.40091865042E+02  0.19585051539E+03  0.20990829132E+03  0.30072269418E+03  0.80049147464E+02 0.  0.
         13    1    3    3    0    0 -0.55208172090E+03  0.57721381528E+03  0.22593424192E+03  0.83007005534E+03  0.00000000000E+00 0.  1.
        -13    1    3    3    0    0 -0.63129469956E+02  0.72786207963E+02  0.60859117472E+02  0.11396049415E+03  0.00000000000E+00 0. -1.
          2    1    6    6  502    0  0.21325030913E+02  0.87917239093E+02  0.15180079684E+03  0.17671355294E+03  0.00000000000E+00 0. -1.
          1    1    5    5  503    0  0.24457447579E+02 -0.68012796219E+02  0.72108662899E+01  0.72635416873E+02  0.00000000000E+00 0. -1.
         -2    1    5    5    0  503  0.55066187823E+03 -0.77783774242E+03  0.23887961180E+03  0.98250879213E+03  0.00000000000E+00 0.  1.
         -1    1    6    6    0  502  0.18766834129E+02  0.10793327630E+03  0.58107494480E+02  0.12400914124E+03  0.00000000000E+00 0.  1.
<mgrwt>
<rscale>  0 0.21766461E+04</rscale>
<asrwt>0</asrwt>
<pdfrwt beam="1">  1        2 0.11977733E+00 0.21766461E+04</pdfrwt>
<pdfrwt beam="2">  1       -2 0.23405304E+00 0.21766461E+04</pdfrwt>
<totfact> 0.26367942E+00</totfact>
</mgrwt>
</event>
<event>
12    1  0.1960998E-007  0.1522021E+04  0.7818608E-02  0.8869940E-01
          2   -1    0    0  501    0  0.00000000000E+00  0.00000000000E+00  0.12864853950E+04  0.12864853950E+04  0.00000000000E+00 0.  1.
         -2   -1    0    0    0  501 -0.00000000000E+00 -0.00000000000E+00 -0.45016970500E+03  0.45016970500E+03  0.00000000000E+00 0. -1.
         23    2    1    2    0    0  0.43689853866E+03  0.11231387054E+03  0.57310801002E+02  0.46371347461E+03  0.90834575006E+02 0.  0.
        254    2    1    2    0    0 -0.43689853866E+03 -0.11231387054E+03  0.77900488897E+03  0.12729416254E+04  0.90002056974E+03 0.  0.
        -24    2    4    4    0    0 -0.61517386376E+03 -0.31209511356E+03  0.69018169829E+03  0.97907686913E+03  0.79990602256E+02 0.  0.
         24    2    4    4    0    0  0.17827532509E+03  0.19978124303E+03  0.88823190671E+02  0.29386475624E+03  0.82293980065E+02 0.  0.
         11    1    3    3    0    0  0.29519987702E+03  0.11851473156E+03  0.46283139293E+02  0.32145114399E+03  0.00000000000E+00 0. -1.
        -11    1    3    3    0    0  0.14169866165E+03 -0.62008610227E+01  0.11027661709E+02  0.14226233062E+03  0.00000000000E+00 0.  1.
          2    1    6    6  502    0  0.16282902735E+03  0.20457751477E+03  0.92374899434E+02  0.27730556024E+03  0.00000000000E+00 0. -1.
          3    1    5    5  503    0 -0.25152398633E+03 -0.16905979451E+03  0.28125377663E+03  0.41346005453E+03  0.00000000000E+00 0. -1.
         -4    1    5    5    0  503 -0.36364987742E+03 -0.14303531905E+03  0.40892792166E+03  0.56561681460E+03  0.00000000000E+00 0.  1.
         -1    1    6    6    0  502  0.15446297745E+02 -0.47962717481E+01 -0.35517087623E+01  0.16559195990E+02  0.00000000000E+00 0.  1.
<mgrwt>
<rscale>  0 0.15220207E+04</rscale>
<asrwt>0</asrwt>
<pdfrwt beam="1">  1        2 0.19792083E+00 0.15220207E+04</pdfrwt>
<pdfrwt beam="2">  1       -2 0.69256878E-01 0.15220207E+04</pdfrwt>
<totfact> 0.30899764E+01</totfact>
</mgrwt>
</event>
<event>
12    1  0.1960998E-007  0.3716687E+04  0.7818608E-02  0.8064274E-01
         -2   -1    0    0    0  501 -0.00000000000E+00  0.00000000000E+00  0.19247524601E+04  0.19247524601E+04  0.00000000000E+00 0.  1.
          2   -1    0    0  501    0  0.00000000000E+00 -0.00000000000E+00 -0.17942262999E+04  0.17942262999E+04  0.00000000000E+00 0. -1.
         23    2    1    2    0    0  0.23640954726E+03 -0.14119548022E+04  0.10595655233E+04  0.17830433618E+04  0.84016036562E+02 0.  0.
        254    2    1    2    0    0 -0.23640954726E+03  0.14119548022E+04 -0.92903936314E+03  0.19359353982E+04  0.91390693749E+03 0.  0.
        -24    2    4    4    0    0  0.42377304790E+02  0.47999025358E+03 -0.81915711973E+03  0.95379066240E+03  0.80695485567E+02 0.  0.
         24    2    4    4    0    0 -0.27878685205E+03  0.93196454861E+03 -0.10988224341E+03  0.98214473582E+03  0.79083158439E+02 0.  0.
         11    1    3    3    0    0  0.14961263273E+03 -0.68216686712E+03  0.54531096409E+03  0.88605847551E+03  0.00000000000E+00 0. -1.
        -11    1    3    3    0    0  0.86796914530E+02 -0.72978793507E+03  0.51425455918E+03  0.89698488626E+03  0.00000000000E+00 0.  1.
          4    1    6    6  502    0 -0.26583367211E+03  0.88171315189E+03 -0.12169967484E+03  0.92892218959E+03  0.00000000000E+00 0. -1.
          1    1    5    5  503    0  0.45358768834E+02  0.47635502923E+03 -0.81960828140E+03  0.94906757753E+03  0.00000000000E+00 0. -1.
         -2    1    5    5    0  503 -0.29814640438E+01  0.36352243419E+01  0.45116166484E+00  0.47230848720E+01  0.00000000000E+00 0.  1.
         -1    1    6    6    0  502 -0.12953179941E+02  0.50251396717E+02  0.11817431429E+02  0.53222546239E+02  0.00000000000E+00 0.  1.
<mgrwt>
<rscale>  0 0.37166875E+04</rscale>
<asrwt>0</asrwt>
<pdfrwt beam="1">  1        2 0.27603481E+00 0.37166875E+04</pdfrwt>
<pdfrwt beam="2">  1       -2 0.29611576E+00 0.37166875E+04</pdfrwt>
<totfact> 0.23558699E-01</totfact>
</mgrwt>
</event>
<event>
12    1  0.1960998E-007  0.1357713E+04  0.7818608E-02  0.8985010E-01
         -2   -1    0    0    0  501 -0.00000000000E+00  0.00000000000E+00  0.73484627694E+03  0.73484627694E+03  0.00000000000E+00 0.  1.
          2   -1    0    0  501    0  0.00000000000E+00 -0.00000000000E+00 -0.62713308267E+03  0.62713308267E+03  0.00000000000E+00 0. -1.
         23    2    1    2    0    0  0.20333056522E+03  0.27810177937E+03 -0.55049040566E+02  0.36092318896E+03  0.92472877235E+02 0.  0.
        254    2    1    2    0    0 -0.20333056522E+03 -0.27810177937E+03  0.16276223484E+03  0.10010561706E+04  0.92570945401E+03 0.  0.
        -24    2    4    4    0    0 -0.53510925323E+03 -0.24083285276E+03  0.25653257239E+03  0.64536144451E+03  0.79624478047E+02 0.  0.
         24    2    4    4    0    0  0.33177868801E+03 -0.37268926607E+02 -0.93770337558E+02  0.35569472613E+03  0.79118842750E+02 0.  0.
         13    1    3    3    0    0  0.11691754960E+03  0.13705468137E+03  0.16080006524E+02  0.18086532476E+03  0.00000000000E+00 0.  1.
        -13    1    3    3    0    0  0.86413015612E+02  0.14104709800E+03 -0.71129047090E+02  0.18005786420E+03  0.00000000000E+00 0. -1.
          4    1    6    6  502    0  0.23747098978E+03 -0.61557375537E+02 -0.59261332466E+02  0.25237608245E+03  0.00000000000E+00 0. -1.
          3    1    5    5  503    0 -0.24743792970E+03 -0.68530790466E+02  0.10517799831E+03  0.27746064518E+03  0.00000000000E+00 0. -1.
         -4    1    5    5    0  503 -0.28767132353E+03 -0.17230206230E+03  0.15135457408E+03  0.36790079933E+03  0.00000000000E+00 0.  1.
         -1    1    6    6    0  502  0.94307698238E+02  0.24288448930E+02 -0.34509005092E+02  0.10331864367E+03  0.00000000000E+00 0.  1.
<mgrwt>
<rscale>  0 0.13577134E+04</rscale>
<asrwt>0</asrwt>
<pdfrwt beam="1">  1        2 0.96482012E-01 0.13577134E+04</pdfrwt>
<pdfrwt beam="2">  1       -2 0.11305327E+00 0.13577134E+04</pdfrwt>
<totfact> 0.28200573E+01</totfact>
</mgrwt>
</event>
<event>
12    1  0.1960998E-007  0.2135000E+04  0.7818608E-02  0.8545980E-01
          1   -1    0    0  501    0  0.00000000000E+00  0.00000000000E+00  0.83672683456E+03  0.83672683456E+03  0.00000000000E+00 0. -1.
         -1   -1    0    0    0  501 -0.00000000000E+00 -0.00000000000E+00 -0.13619217760E+04  0.13619217760E+04  0.00000000000E+00 0.  1.
         23    2    1    2    0    0  0.21552633180E+03  0.83862654464E+03 -0.34539316640E+03  0.93662911793E+03  0.90728077628E+02 0.  0.
        254    2    1    2    0    0 -0.21552633180E+03 -0.83862654464E+03 -0.17980177505E+03  0.12620194926E+04  0.90034351245E+03 0.  0.
        -24    2    4    4    0    0 -0.13624867913E+03 -0.51543972629E+02  0.29257987783E+03  0.33716385814E+03  0.82800958010E+02 0.  0.
         24    2    4    4    0    0 -0.79277652678E+02 -0.78708257201E+03 -0.47238165287E+03  0.92485563450E+03  0.80184769857E+02 0.  0.
         13    1    3    3    0    0  0.13764386761E+03  0.39948724541E+03 -0.20048798311E+03  0.46768720841E+03  0.00000000000E+00 0.  1.
        -13    1    3    3    0    0  0.77882464195E+02  0.43913929923E+03 -0.14490518329E+03  0.46894190952E+03  0.00000000000E+00 0. -1.
          4    1    6    6  502    0  0.21740529475E+01 -0.11668506149E+03 -0.99858984655E+02  0.15359670210E+03  0.00000000000E+00 0. -1.
          3    1    5    5  503    0 -0.14692831167E+03 -0.53670053292E+02  0.27770085806E+03  0.31872585392E+03  0.00000000000E+00 0. -1.
         -4    1    5    5    0  503  0.10679632545E+02  0.21260806632E+01  0.14879019770E+02  0.18438004219E+02  0.00000000000E+00 0.  1.
         -3    1    6    6    0  502 -0.81451705626E+02 -0.67039751052E+03 -0.37252266822E+03  0.77125893240E+03  0.00000000000E+00 0.  1.
<mgrwt>
<rscale>  0 0.21350002E+04</rscale>
<asrwt>0</asrwt>
<pdfrwt beam="1">  1        1 0.12872721E+00 0.21350002E+04</pdfrwt>
<pdfrwt beam="2">  1       -1 0.20952643E+00 0.21350002E+04</pdfrwt>
<totfact> 0.24405930E+00</totfact>
</mgrwt>
</event>
<event>
12    1  0.1960998E-007  0.2009717E+04  0.7818608E-02  0.8602091E-01
         -1   -1    0    0    0  501 -0.00000000000E+00  0.00000000000E+00  0.98732301777E+03  0.98732301777E+03  0.00000000000E+00 0.  1.
          1   -1    0    0  501    0  0.00000000000E+00 -0.00000000000E+00 -0.10227058435E+04  0.10227058435E+04  0.00000000000E+00 0. -1.
         23    2    1    2    0    0 -0.55872112967E+03 -0.31026768251E+02 -0.57269334474E+03  0.80577439293E+03  0.90347905890E+02 0.  0.
        254    2    1    2    0    0  0.55872112967E+03  0.31026768251E+02  0.53731051897E+03  0.12042544684E+04  0.92108320457E+03 0.  0.
        -24    2    4    4    0    0  0.21654620770E+03 -0.30933892217E+02  0.75245985065E+03  0.78765760205E+03  0.79746507531E+02 0.  0.
         24    2    4    4    0    0  0.34217492197E+03  0.61960660468E+02 -0.21514933168E+03  0.41659686634E+03  0.79629852728E+02 0.  0.
         13    1    3    3    0    0 -0.21956473639E+03 -0.54541031879E+02 -0.21049020732E+03  0.30901379419E+03  0.00000000000E+00 0. -1.
        -13    1    3    3    0    0 -0.33915639329E+03  0.23514263627E+02 -0.36220313742E+03  0.49676059874E+03  0.00000000000E+00 0.  1.
          2    1    6    6  502    0  0.14980163149E+03 -0.10257523306E+02 -0.10713113585E+03  0.18445277404E+03  0.00000000000E+00 0. -1.
          3    1    5    5  503    0  0.13490025243E+03 -0.74132329071E+01  0.32725076453E+03  0.35404250736E+03  0.00000000000E+00 0. -1.
         -4    1    5    5    0  503  0.81645955272E+02 -0.23520659310E+02  0.42520908612E+03  0.43361509469E+03  0.00000000000E+00 0.  1.
         -3    1    6    6    0  502  0.19237329048E+03  0.72218183774E+02 -0.10801819583E+03  0.23214409230E+03  0.00000000000E+00 0.  1.
<mgrwt>
<rscale>  0 0.20097174E+04</rscale>
<asrwt>0</asrwt>
<pdfrwt beam="1">  1        1 0.15733936E+00 0.20097174E+04</pdfrwt>
<pdfrwt beam="2">  1       -1 0.15189585E+00 0.20097174E+04</pdfrwt>
<totfact> 0.45410883E+00</totfact>
</mgrwt>
</event>
<event>
12    1  0.1960998E-007  0.3322115E+04  0.7818608E-02  0.8157291E-01
          2   -1    0    0  501    0  0.00000000000E+00  0.00000000000E+00  0.44402618384E+04  0.44402618384E+04  0.00000000000E+00 0. -1.
         -2   -1    0    0    0  501 -0.00000000000E+00 -0.00000000000E+00 -0.62138515061E+03  0.62138515061E+03  0.00000000000E+00 0.  1.
         23    2    1    2    0    0  0.11383184515E+04  0.14371913033E+03  0.21104561858E+03  0.11701992037E+04  0.91661538931E+02 0.  0.
        254    2    1    2    0    0 -0.11383184515E+04 -0.14371913033E+03  0.36078310692E+04  0.38914477853E+04  0.90027593343E+03 0.  0.
        -24    2    4    4    0    0 -0.48508406933E+03 -0.45669094713E+03  0.11883268524E+04  0.13645854378E+04  0.78099511170E+02 0.  0.
         24    2    4    4    0    0 -0.65323438220E+03  0.31297181680E+03  0.24195042169E+04  0.25268623475E+04  0.79788165989E+02 0.  0.
         11    1    3    3    0    0  0.77599960290E+03  0.61095767793E+02  0.16547630445E+03  0.79579550380E+03  0.00000000000E+00 0. -1.
        -11    1    3    3    0    0  0.36231884864E+03  0.82623362540E+02  0.45569314130E+02  0.37440369991E+03  0.00000000000E+00 0.  1.
          2    1    6    6  502    0 -0.18779063404E+03  0.59387876612E+02  0.58089612949E+03  0.61337798736E+03  0.00000000000E+00 0. -1.
          3    1    5    5  503    0 -0.81560089506E+02 -0.11060216870E+03  0.28598463849E+03  0.31728867199E+03  0.00000000000E+00 0. -1.
         -4    1    5    5    0  503 -0.40352397983E+03 -0.34608877844E+03  0.90234221387E+03  0.10472967659E+04  0.00000000000E+00 0.  1.
         -1    1    6    6    0  502 -0.46544374816E+03  0.25358394019E+03  0.18386080874E+04  0.19134843601E+04  0.00000000000E+00 0.  1.
<mgrwt>
<rscale>  0 0.33221155E+04</rscale>
<asrwt>0</asrwt>
<pdfrwt beam="1">  1        2 0.68311719E+00 0.33221155E+04</pdfrwt>
<pdfrwt beam="2">  1       -2 0.95597718E-01 0.33221155E+04</pdfrwt>
<totfact> 0.10727388E-01</totfact>
</mgrwt>
</event>
<event>
12    1  0.1960998E-007  0.1613536E+04  0.7818608E-02  0.8812275E-01
          2   -1    0    0  501    0  0.00000000000E+00  0.00000000000E+00  0.15445384555E+04  0.15445384555E+04  0.00000000000E+00 0. -1.
         -2   -1    0    0    0  501 -0.00000000000E+00 -0.00000000000E+00 -0.42140398435E+03  0.42140398435E+03  0.00000000000E+00 0.  1.
         23    2    1    2    0    0 -0.51724597495E+03 -0.97473723681E+02  0.18617925405E+03  0.56423040050E+03  0.81539590380E+02 0.  0.
        254    2    1    2    0    0  0.51724597495E+03  0.97473723681E+02  0.93695521712E+03  0.14017120394E+04  0.89992612864E+03 0.  0.
        -24    2    4    4    0    0 -0.63861382767E+02  0.20875420881E+03 -0.59721595297E+02  0.23990979330E+03  0.79582938314E+02 0.  0.
         24    2    4    4    0    0  0.58110735772E+03 -0.11128048513E+03  0.99667681242E+03  0.11618022461E+04  0.79691172610E+02 0.  0.
         11    1    3    3    0    0 -0.47876597023E+03 -0.97375848396E+02  0.19270822089E+03  0.52520031273E+03  0.00000000000E+00 0. -1.
        -11    1    3    3    0    0 -0.38480004726E+02 -0.97875284260E-01 -0.65289668365E+01  0.39030087769E+02  0.00000000000E+00 0.  1.
          2    1    6    6  502    0  0.29421028605E+03 -0.86710986853E+02  0.56530162782E+03  0.64315194012E+03  0.00000000000E+00 0. -1.
          3    1    5    5  503    0  0.69012820545E+01  0.66255631290E+02  0.78086074117E+01  0.67070192495E+02  0.00000000000E+00 0. -1.
         -4    1    5    5    0  503 -0.70762664821E+02  0.14249857752E+03 -0.67530202709E+02  0.17283960080E+03  0.00000000000E+00 0.  1.
         -1    1    6    6    0  502  0.28689707167E+03 -0.24569498276E+02  0.43137518459E+03  0.51865030595E+03  0.00000000000E+00 0.  1.
<mgrwt>
<rscale>  0 0.16135361E+04</rscale>
<asrwt>0</asrwt>
<pdfrwt beam="1">  1        2 0.23762130E+00 0.16135361E+04</pdfrwt>
<pdfrwt beam="2">  1       -2 0.64831383E-01 0.16135361E+04</pdfrwt>
<totfact> 0.25193026E+01</totfact>
</mgrwt>
</event>
<event>
12    1  0.1960998E-007  0.1708181E+04  0.7818608E-02  0.8756712E-01
          3   -1    0    0  501    0  0.00000000000E+00  0.00000000000E+00  0.42304309923E+03  0.42304309923E+03  0.00000000000E+00 0. -1.
         -3   -1    0    0    0  501 -0.00000000000E+00 -0.00000000000E+00 -0.17243410147E+04  0.17243410147E+04  0.00000000000E+00 0.  1.
         23    2    1    2    0    0 -0.26283770751E+03 -0.33233007279E+03 -0.10223136970E+04  0.11103238104E+04  0.90369968149E+02 0.  0.
        254    2    1    2    0    0  0.26283770751E+03  0.33233007279E+03 -0.27898421846E+03  0.10370603035E+04  0.90450812111E+03 0.  0.
        -24    2    4    4    0    0 -0.12872702564E+03  0.19893895885E+02 -0.47029538118E+03  0.49455101839E+03  0.80228112299E+02 0.  0.
         24    2    4    4    0    0  0.39156473316E+03  0.31243617690E+03  0.19131116272E+03  0.54250928511E+03  0.82322892055E+02 0.  0.
         13    1    3    3    0    0 -0.11052573877E+03 -0.20936854089E+03 -0.59160747462E+03  0.63722094196E+03  0.00000000000E+00 0.  1.
        -13    1    3    3    0    0 -0.15231196875E+03 -0.12296153190E+03 -0.43070622240E+03  0.47310286848E+03  0.00000000000E+00 0. -1.
          2    1    6    6  502    0  0.36700263118E+03  0.29367961644E+03  0.15524849533E+03  0.49501590248E+03  0.00000000000E+00 0. -1.
          3    1    5    5  503    0 -0.11061798267E+03  0.84194803761E+01 -0.45470683651E+03  0.46804437066E+03  0.00000000000E+00 0. -1.
         -4    1    5    5    0  503 -0.18109042971E+02  0.11474415508E+02 -0.15588544669E+02  0.26506647722E+02  0.00000000000E+00 0.  1.
         -1    1    6    6    0  502  0.24562101979E+02  0.18756560458E+02  0.36062667394E+02  0.47493382627E+02  0.00000000000E+00 0.  1.
<mgrwt>
<rscale>  0 0.17081810E+04</rscale>
<asrwt>0</asrwt>
<pdfrwt beam="1">  1        3 0.65083554E-01 0.17081810E+04</pdfrwt>
<pdfrwt beam="2">  1       -3 0.26528323E+00 0.17081810E+04</pdfrwt>
<totfact> 0.33987697E-01</totfact>
</mgrwt>
</event>
<event>
12    1  0.1960998E-007  0.3408506E+04  0.7818608E-02  0.8135822E-01
         -1   -1    0    0    0  501 -0.00000000000E+00  0.00000000000E+00  0.24858973117E+04  0.24858973117E+04  0.00000000000E+00 0.  1.
          1   -1    0    0  501    0  0.00000000000E+00 -0.00000000000E+00 -0.11683821288E+04  0.11683821288E+04  0.00000000000E+00 0. -1.
         23    2    1    2    0    0 -0.64521922311E+03  0.14306361695E+04  0.84028136773E+03  0.17825791561E+04  0.92130209357E+02 0.  0.
        254    2    1    2    0    0  0.64521922311E+03 -0.14306361695E+04  0.47723381519E+03  0.18717002844E+04  0.90137791448E+03 0.  0.
        -24    2    4    4    0    0 -0.86440444420E+02 -0.82746030311E+03  0.37158543426E+03  0.91458386300E+03  0.78901228468E+02 0.  0.
         24    2    4    4    0    0  0.73165966753E+03 -0.60317586643E+03  0.10564838093E+03  0.95711642138E+03  0.75916195551E+02 0.  0.
         11    1    3    3    0    0 -0.49440193467E+03  0.10325149428E+04  0.57640997243E+03  0.12817054406E+04  0.00000000000E+00 0. -1.
        -11    1    3    3    0    0 -0.15081728844E+03  0.39812122674E+03  0.26387139530E+03  0.50087371555E+03  0.00000000000E+00 0.  1.
          4    1    6    6  502    0  0.70982783541E+02 -0.45275915617E+02 -0.96341577416E+01  0.84742439719E+02  0.00000000000E+00 0. -1.
          1    1    5    5  503    0 -0.87630885947E+01 -0.75785415608E+02  0.60548733932E+02  0.97397998549E+02  0.00000000000E+00 0. -1.
         -2    1    5    5    0  503 -0.77677355825E+02 -0.75167488751E+03  0.31103670032E+03  0.81718586445E+03  0.00000000000E+00 0.  1.
         -3    1    6    6    0  502  0.66067688398E+03 -0.55789995081E+03  0.11528253867E+03  0.87237398166E+03  0.00000000000E+00 0.  1.
<mgrwt>
<rscale>  0 0.34085058E+04</rscale>
<asrwt>0</asrwt>
<pdfrwt beam="1">  1        1 0.17975110E+00 0.34085058E+04</pdfrwt>
<pdfrwt beam="2">  1       -1 0.38244574E+00 0.34085058E+04</pdfrwt>
<totfact> 0.87225155E-02</totfact>
</mgrwt>
</event>
<event>
12    1  0.4590754E-007  0.2575337E+04  0.7818608E-02  0.8376627E-01
          2   -1    0    0  501    0  0.00000000000E+00  0.00000000000E+00  0.98465759851E+03  0.98465759851E+03  0.00000000000E+00 0. -1.
         -2   -1    0    0    0  501 -0.00000000000E+00 -0.00000000000E+00 -0.16839251607E+04  0.16839251607E+04  0.00000000000E+00 0.  1.
         23    2    1    2    0    0  0.10468278549E+04 -0.40515163462E+03 -0.37326971000E+03  0.11882750513E+04  0.11256516483E+03 0.  0.
        254    2    1    2    0    0 -0.10468278549E+04  0.40515163462E+03 -0.32599785221E+03  0.14803077079E+04  0.90831707332E+03 0.  0.
        -24    2    4    4    0    0 -0.56640206072E+03  0.21474081624E+03 -0.62761440672E+03  0.87652633555E+03  0.86450337400E+02 0.  0.
         24    2    4    4    0    0 -0.48042579417E+03  0.19041081838E+03  0.30161655451E+03  0.60378137238E+03  0.80710446744E+02 0.  0.
         11    1    3    3    0    0  0.58817461366E+03 -0.28509508834E+03 -0.23179505381E+03  0.69351101831E+03  0.00000000000E+00 0.  1.
        -11    1    3    3    0    0  0.45865324123E+03 -0.12005654628E+03 -0.14147465619E+03  0.49476403299E+03  0.00000000000E+00 0. -1.
          2    1    6    6  502    0 -0.82264863958E+02  0.59251660691E+01  0.66446434642E+02  0.10591385231E+03  0.00000000000E+00 0. -1.
          3    1    5    5  503    0 -0.11893956404E+03  0.46807876868E+02 -0.85314588999E+02  0.15367555540E+03  0.00000000000E+00 0. -1.
         -4    1    5    5    0  503 -0.44746249669E+03  0.16793293937E+03 -0.54229981772E+03  0.72285078015E+03  0.00000000000E+00 0.  1.
         -3    1    6    6    0  502 -0.39816093022E+03  0.18448565231E+03  0.23517011987E+03  0.49786752007E+03  0.00000000000E+00 0.  1.
<mgrwt>
<rscale>  0 0.25753366E+04</rscale>
<asrwt>0</asrwt>
<pdfrwt beam="1">  1        2 0.15148579E+00 0.25753366E+04</pdfrwt>
<pdfrwt beam="2">  1       -2 0.25906541E+00 0.25753366E+04</pdfrwt>
<totfact> 0.12911872E+00</totfact>
</mgrwt>
</event>
<event>
12    1  0.1960998E-007  0.2357341E+04  0.7818608E-02  0.8455649E-01
         -2   -1    0    0    0  501 -0.00000000000E+00  0.00000000000E+00  0.77795462361E+03  0.77795462361E+03  0.00000000000E+00 0.  1.
          2   -1    0    0  501    0  0.00000000000E+00 -0.00000000000E+00 -0.17857906489E+04  0.17857906489E+04  0.00000000000E+00 0. -1.
         23    2    1    2    0    0 -0.99870767973E+03 -0.10617274673E+03 -0.39712504708E+03  0.10838421232E+04  0.91190807362E+02 0.  0.
        254    2    1    2    0    0  0.99870767973E+03  0.10617274673E+03 -0.61071097823E+03  0.14799031493E+04  0.89914167443E+03 0.  0.
        -24    2    4    4    0    0  0.90490430576E+03 -0.18008938143E+03 -0.17222408017E+03  0.94192179629E+03  0.79193109908E+02 0.  0.
         24    2    4    4    0    0  0.93803373973E+02  0.28626212815E+03 -0.43848689806E+03  0.53798135301E+03  0.80050592968E+02 0.  0.
         13    1    3    3    0    0 -0.42951658875E+03 -0.79163888797E+02 -0.20523201199E+03  0.48256771551E+03  0.00000000000E+00 0. -1.
        -13    1    3    3    0    0 -0.56919109098E+03 -0.27008857931E+02 -0.19189303508E+03  0.60127440771E+03  0.00000000000E+00 0.  1.
          2    1    6    6  502    0  0.76884671943E+02  0.23179498503E+03 -0.40170904482E+03  0.47011735190E+03  0.00000000000E+00 0. -1.
          1    1    5    5  503    0  0.80059513079E+03 -0.13686836557E+03 -0.16486027812E+03  0.82877284236E+03  0.00000000000E+00 0. -1.
         -2    1    5    5    0  503  0.10430917497E+03 -0.43221015860E+02 -0.73638020518E+01  0.11314895393E+03  0.00000000000E+00 0.  1.
         -1    1    6    6    0  502  0.16918702030E+02  0.54467143122E+02 -0.36777853241E+02  0.67864001114E+02  0.00000000000E+00 0.  1.
<mgrwt>
<rscale>  0 0.23573410E+04</rscale>
<asrwt>0</asrwt>
<pdfrwt beam="1">  1        2 0.27473702E+00 0.23573410E+04</pdfrwt>
<pdfrwt beam="2">  1       -2 0.11968533E+00 0.23573410E+04</pdfrwt>
<totfact> 0.42383579E+00</totfact>
</mgrwt>
</event>
<event>
12    1  0.1960998E-007  0.1282791E+04  0.7818608E-02  0.9043325E-01
          2   -1    0    0  501    0  0.00000000000E+00  0.00000000000E+00  0.19188971585E+04  0.19188971585E+04  0.00000000000E+00 0. -1.
         -2   -1    0    0    0  501 -0.00000000000E+00 -0.00000000000E+00 -0.21438774729E+03  0.21438774729E+03  0.00000000000E+00 0.  1.
         23    2    1    2    0    0  0.31551004489E+03 -0.13777038658E+02  0.41733721452E+03  0.53062774327E+03  0.87516033304E+02 0.  0.
        254    2    1    2    0    0 -0.31551004489E+03  0.13777038658E+02  0.12871721967E+04  0.16026571625E+04  0.90108896420E+03 0.  0.
        -24    2    4    4    0    0 -0.16022681516E+03  0.23519626128E+03  0.12870525430E+04  0.13207032501E+04  0.82236931504E+02 0.  0.
         24    2    4    4    0    0 -0.15528322973E+03 -0.22141922262E+03  0.11965369655E+00  0.28195391237E+03  0.79741086030E+02 0.  0.
         13    1    3    3    0    0  0.62193370666E+02 -0.35494474223E+02  0.69614365181E+02  0.99870080077E+02  0.00000000000E+00 0. -1.
        -13    1    3    3    0    0  0.25331667423E+03  0.21717435566E+02  0.34772284934E+03  0.43075766320E+03  0.00000000000E+00 0.  1.
          2    1    6    6  502    0 -0.10722994551E+03 -0.16634233900E+03  0.34974723018E+02  0.20097578513E+03  0.00000000000E+00 0. -1.
          1    1    5    5  503    0 -0.14686203527E+03  0.15973357586E+03  0.86875129133E+03  0.89543960089E+03  0.00000000000E+00 0. -1.
         -2    1    5    5    0  503 -0.13364779889E+02  0.75462685416E+02  0.41830125164E+03  0.42526364923E+03  0.00000000000E+00 0.  1.
         -1    1    6    6    0  502 -0.48053284228E+02 -0.55076883623E+02 -0.34855069321E+02  0.80978127245E+02  0.00000000000E+00 0.  1.
<mgrwt>
<rscale>  0 0.12827908E+04</rscale>
<asrwt>0</asrwt>
<pdfrwt beam="1">  1        2 0.29521494E+00 0.12827908E+04</pdfrwt>
<pdfrwt beam="2">  1       -2 0.32982732E-01 0.12827908E+04</pdfrwt>
<totfact> 0.62434006E+01</totfact>
</mgrwt>
</event>
<event>
12    1  0.1960998E-007  0.2175214E+04  0.7818608E-02  0.8528816E-01
         -2   -1    0    0    0  501 -0.00000000000E+00  0.00000000000E+00  0.79297201554E+03  0.79297201554E+03  0.00000000000E+00 0.  1.
          2   -1    0    0  501    0  0.00000000000E+00 -0.00000000000E+00 -0.14917160068E+04  0.14917160068E+04  0.00000000000E+00 0. -1.
         23    2    1    2    0    0 -0.99634661708E+02 -0.87876779674E+03 -0.45200852575E+03  0.99729957343E+03  0.90193266951E+02 0.  0.
        254    2    1    2    0    0  0.99634661708E+02  0.87876779674E+03 -0.24673546551E+03  0.12873884489E+04  0.90240274935E+03 0.  0.
        -24    2    4    4    0    0 -0.57105621999E+02  0.20175258644E+02  0.25676102269E+03  0.27653869243E+03  0.82941741678E+02 0.  0.
         24    2    4    4    0    0  0.15674028371E+03  0.85859253810E+03 -0.50349648820E+03  0.10108497565E+04  0.80992922613E+02 0.  0.
         11    1    3    3    0    0 -0.34057901915E+02 -0.11102037953E+03 -0.35724432752E+02  0.12149773845E+03  0.00000000000E+00 0. -1.
        -11    1    3    3    0    0 -0.65576759793E+02 -0.76774741721E+03 -0.41628409300E+03  0.87580183497E+03  0.00000000000E+00 0.  1.
          4    1    6    6  502    0  0.70120453969E+01  0.10884567753E+03 -0.91430227012E+02  0.14232370396E+03  0.00000000000E+00 0. -1.
          3    1    5    5  503    0 -0.11709695251E+02 -0.12711399441E+02  0.41384134895E+01  0.17771412572E+02  0.00000000000E+00 0. -1.
         -2    1    5    5    0  503 -0.45395926748E+02  0.32886658085E+02  0.25262260920E+03  0.25876727986E+03  0.00000000000E+00 0.  1.
         -3    1    6    6    0  502  0.14972823831E+03  0.74974686057E+03 -0.41206626119E+03  0.86852605251E+03  0.00000000000E+00 0.  1.
<mgrwt>
<rscale>  0 0.21752141E+04</rscale>
<asrwt>0</asrwt>
<pdfrwt beam="1">  1        2 0.22949477E+00 0.21752141E+04</pdfrwt>
<pdfrwt beam="2">  1       -2 0.12199569E+00 0.21752141E+04</pdfrwt>
<totfact> 0.59901575E+00</totfact>
</mgrwt>
</event>
<event>
12    1  0.1960998E-007  0.3125303E+04  0.7818608E-02  0.8208828E-01
          2   -1    0    0  501    0  0.00000000000E+00  0.00000000000E+00  0.20090329084E+04  0.20090329084E+04  0.00000000000E+00 0. -1.
         -2   -1    0    0    0  501 -0.00000000000E+00 -0.00000000000E+00 -0.12154501959E+04  0.12154501959E+04  0.00000000000E+00 0.  1.
         23    2    1    2    0    0  0.12795971371E+04 -0.58075432846E+03  0.64279854144E+03  0.15483450406E+04  0.97662564179E+02 0.  0.
        254    2    1    2    0    0 -0.12795971371E+04  0.58075432846E+03  0.15078417113E+03  0.16761380637E+04  0.90114289605E+03 0.  0.
        -24    2    4    4    0    0 -0.17247186544E+03  0.71823945985E+02 -0.31010000340E+03  0.37076176778E+03  0.79981577615E+02 0.  0.
         24    2    4    4    0    0 -0.11071252717E+04  0.50893038248E+03  0.46088417452E+03  0.13053762959E+04  0.82804289300E+02 0.  0.
         13    1    3    3    0    0  0.11433611208E+04 -0.49094295645E+03  0.58773244742E+03  0.13761282894E+04  0.00000000000E+00 0. -1.
        -13    1    3    3    0    0  0.13623601628E+03 -0.89811372014E+02  0.55066094019E+02  0.17221675118E+03  0.00000000000E+00 0.  1.
          4    1    6    6  502    0 -0.15966460304E+03  0.76329707046E+02  0.98806310084E+02  0.20268620218E+03  0.00000000000E+00 0. -1.
          3    1    5    5  503    0 -0.17446699545E+03  0.70427468107E+02 -0.31406494262E+03  0.36610865729E+03  0.00000000000E+00 0. -1.
         -4    1    5    5    0  503  0.19951300075E+01  0.13964778778E+01  0.39649392200E+01  0.46531104896E+01  0.00000000000E+00 0.  1.
         -3    1    6    6    0  502 -0.94746066862E+03  0.43260067543E+03  0.36207786444E+03  0.11026900938E+04  0.00000000000E+00 0.  1.
<mgrwt>
<rscale>  0 0.31253028E+04</rscale>
<asrwt>0</asrwt>
<pdfrwt beam="1">  1        2 0.30908199E+00 0.31253028E+04</pdfrwt>
<pdfrwt beam="2">  1       -2 0.18699234E+00 0.31253028E+04</pdfrwt>
<totfact> 0.90884851E-01</totfact>
</mgrwt>
</event>
<event>
12    1  0.1960998E-007  0.2170631E+04  0.7818608E-02  0.8530753E-01
         -1   -1    0    0    0  501 -0.00000000000E+00  0.00000000000E+00  0.10469996871E+04  0.10469996871E+04  0.00000000000E+00 0.  1.
          1   -1    0    0  501    0  0.00000000000E+00 -0.00000000000E+00 -0.11250333447E+04  0.11250333447E+04  0.00000000000E+00 0. -1.
         23    2    1    2    0    0  0.50592055246E+03 -0.10660106764E+03 -0.76403375755E+03  0.92695730059E+03  0.90459169948E+02 0.  0.
        254    2    1    2    0    0 -0.50592055246E+03  0.10660106764E+03  0.68600009992E+03  0.12450757312E+04  0.90127578809E+03 0.  0.
        -24    2    4    4    0    0 -0.47067892504E+03 -0.31939191275E+03  0.24162015316E+03  0.62324080637E+03  0.80616126799E+02 0.  0.
         24    2    4    4    0    0 -0.35241627412E+02  0.42599298038E+03  0.44437994676E+03  0.62183492479E+03  0.80580053121E+02 0.  0.
         11    1    3    3    0    0  0.41417976842E+03 -0.12201644298E+03 -0.62244791967E+03  0.75754491987E+03  0.00000000000E+00 0. -1.
        -11    1    3    3    0    0  0.91740784039E+02  0.15415375344E+02 -0.14158583788E+03  0.16941238072E+03  0.00000000000E+00 0.  1.
          4    1    6    6  502    0 -0.28222900036E+00  0.29126223938E+02  0.67061612710E+02  0.73114133199E+02  0.00000000000E+00 0. -1.
          1    1    5    5  503    0 -0.12912161156E+03 -0.46312133733E+02  0.55489264993E+02  0.14797385861E+03  0.00000000000E+00 0. -1.
         -2    1    5    5    0  503 -0.34155731349E+03 -0.27307977901E+03  0.18613088817E+03  0.47526694776E+03  0.00000000000E+00 0.  1.
         -3    1    6    6    0  502 -0.34959398412E+02  0.39686675645E+03  0.37731833405E+03  0.54872079159E+03  0.00000000000E+00 0.  1.
<mgrwt>
<rscale>  0 0.21706308E+04</rscale>
<asrwt>0</asrwt>
<pdfrwt beam="1">  1        1 0.17308205E+00 0.21706308E+04</pdfrwt>
<pdfrwt beam="2">  1       -1 0.16107688E+00 0.21706308E+04</pdfrwt>
<totfact> 0.31831989E+00</totfact>
</mgrwt>
</event>
<event>
12    1  0.1960998E-007  0.1422912E+04  0.7818608E-02  0.8937399E-01
         -2   -1    0    0    0  501 -0.00000000000E+00  0.00000000000E+00  0.88637656684E+03  0.88637656684E+03  0.00000000000E+00 0.  1.
          2   -1    0    0  501    0  0.00000000000E+00 -0.00000000000E+00 -0.57105458116E+03  0.57105458116E+03  0.00000000000E+00 0. -1.
         23    2    1    2    0    0 -0.29931101636E+03  0.26209608187E+03  0.23258332083E+03  0.46970700531E+03  0.90819761392E+02 0.  0.
        254    2    1    2    0    0  0.29931101636E+03 -0.26209608187E+03  0.82738664844E+02  0.98772414269E+03  0.90026210336E+03 0.  0.
        -24    2    4    4    0    0  0.22414164389E+03 -0.55664681015E+03  0.22035979715E+03  0.64425698527E+03  0.80084175058E+02 0.  0.
         24    2    4    4    0    0  0.75169372472E+02  0.29455072828E+03 -0.13762113231E+03  0.34346715742E+03  0.81360592930E+02 0.  0.
         13    1    3    3    0    0 -0.73975031078E+02  0.36475066971E+02  0.84651585269E+02  0.11818894458E+03  0.00000000000E+00 0.  1.
        -13    1    3    3    0    0 -0.22533598528E+03  0.22562101490E+03  0.14793173556E+03  0.35151806072E+03  0.00000000000E+00 0. -1.
          2    1    6    6  502    0  0.51521526724E+02  0.24471645488E+03 -0.14294247562E+03  0.28805062462E+03  0.00000000000E+00 0. -1.
          1    1    5    5  503    0  0.20421719284E+03 -0.54188405776E+03  0.21996119269E+03  0.61945614873E+03  0.00000000000E+00 0. -1.
         -2    1    5    5    0  503  0.19924451050E+02 -0.14762752389E+02  0.39860446113E+00  0.24800836543E+02  0.00000000000E+00 0.  1.
         -1    1    6    6    0  502  0.23647845748E+02  0.49834273397E+02  0.53213433106E+01  0.55416532805E+02  0.00000000000E+00 0.  1.
<mgrwt>
<rscale>  0 0.14229117E+04</rscale>
<asrwt>0</asrwt>
<pdfrwt beam="1">  1        2 0.87854551E-01 0.14229117E+04</pdfrwt>
<pdfrwt beam="2">  1       -2 0.13636563E+00 0.14229117E+04</pdfrwt>
<totfact> 0.19654772E+01</totfact>
</mgrwt>
</event>
<event>
12    1  0.1960998E-007  0.1128265E+04  0.7818608E-02  0.9178072E-01
          1   -1    0    0  501    0  0.00000000000E+00  0.00000000000E+00  0.11253438345E+04  0.11253438345E+04  0.00000000000E+00 0. -1.
         -1   -1    0    0    0  501 -0.00000000000E+00 -0.00000000000E+00 -0.28279858277E+03  0.28279858277E+03  0.00000000000E+00 0.  1.
         23    2    1    2    0    0 -0.17643030391E+03  0.17749385400E+02  0.14790211067E+03  0.25984585070E+03  0.11917272742E+03 0.  0.
        254    2    1    2    0    0  0.17643030391E+03 -0.17749385400E+02  0.69464314107E+03  0.11482965666E+04  0.89700235149E+03 0.  0.
        -24    2    4    4    0    0  0.22580843292E+03 -0.24862051426E+03 -0.63011470571E+02  0.35073912941E+03  0.79030898958E+02 0.  0.
         24    2    4    4    0    0 -0.49378129009E+02  0.23087112886E+03  0.75765461164E+03  0.79755743717E+03  0.79483817785E+02 0.  0.
         13    1    3    3    0    0 -0.14198034784E+03  0.34654164833E+02  0.49626966296E+02  0.15434431022E+03  0.00000000000E+00 0.  1.
        -13    1    3    3    0    0 -0.34449956077E+02 -0.16904779433E+02  0.98275144375E+02  0.10550154048E+03  0.00000000000E+00 0. -1.
          2    1    6    6  502    0 -0.14696411826E+02  0.11223787171E+02  0.13755565309E+03  0.13879306761E+03  0.00000000000E+00 0. -1.
          1    1    5    5  503    0  0.14098970916E+02 -0.57788759755E+02 -0.36130961974E+01  0.59593424125E+02  0.00000000000E+00 0. -1.
         -2    1    5    5    0  503  0.21170946201E+03 -0.19083175450E+03 -0.59398374374E+02  0.29114570529E+03  0.00000000000E+00 0.  1.
         -1    1    6    6    0  502 -0.34681717184E+02  0.21964734168E+03  0.62009895855E+03  0.65876436956E+03  0.00000000000E+00 0.  1.
<mgrwt>
<rscale>  0 0.11282653E+04</rscale>
<asrwt>0</asrwt>
<pdfrwt beam="1">  1        1 0.17312982E+00 0.11282653E+04</pdfrwt>
<pdfrwt beam="2">  1       -1 0.43507475E-01 0.11282653E+04</pdfrwt>
<totfact> 0.62913084E+01</totfact>
</mgrwt>
</event>
<event>
12    1  0.1960998E-007  0.3798249E+04  0.7818608E-02  0.8046531E-01
          2   -1    0    0  501    0  0.00000000000E+00  0.00000000000E+00  0.13774628250E+04  0.13774628250E+04  0.00000000000E+00 0. -1.
         -2   -1    0    0    0  501 -0.00000000000E+00 -0.00000000000E+00 -0.26183458133E+04  0.26183458133E+04  0.00000000000E+00 0.  1.
         23    2    1    2    0    0  0.15182137268E+04 -0.41901647857E+03 -0.14835126549E+04  0.21656563647E+04  0.93327183432E+02 0.  0.
        254    2    1    2    0    0 -0.15182137268E+04  0.41901647857E+03  0.24262966663E+03  0.18301522737E+04  0.90002247767E+03 0.  0.
        -24    2    4    4    0    0 -0.42792236373E+03 -0.19564074270E+02 -0.30318007456E+03  0.53184661894E+03  0.86269149052E+02 0.  0.
         24    2    4    4    0    0 -0.10902913630E+04  0.43858055284E+03  0.54580974118E+03  0.12983056548E+04  0.81247412046E+02 0.  0.
         13    1    3    3    0    0  0.11184088261E+04 -0.27121808018E+03 -0.10543544594E+04  0.15607885428E+04  0.00000000000E+00 0. -1.
        -13    1    3    3    0    0  0.39980490064E+03 -0.14779839839E+03 -0.42915819550E+03  0.60486782185E+03  0.00000000000E+00 0.  1.
          4    1    6    6  502    0 -0.79368164140E+03  0.35762504318E+03  0.40580948196E+03  0.96047256861E+03  0.00000000000E+00 0. -1.
          1    1    5    5  503    0 -0.42795418274E+03 -0.15697761098E+02 -0.28774459903E+03  0.51593425598E+03  0.00000000000E+00 0. -1.
         -2    1    5    5    0  503  0.31819001222E-01 -0.38663131725E+01 -0.15435475529E+02  0.15912362954E+02  0.00000000000E+00 0.  1.
         -3    1    6    6    0  502 -0.29660972163E+03  0.80955509663E+02  0.14000025922E+03  0.33783308614E+03  0.00000000000E+00 0.  1.
<mgrwt>
<rscale>  0 0.37982491E+04</rscale>
<asrwt>0</asrwt>
<pdfrwt beam="1">  1        2 0.21191736E+00 0.37982491E+04</pdfrwt>
<pdfrwt beam="2">  1       -2 0.40282243E+00 0.37982491E+04</pdfrwt>
<totfact> 0.84982303E-02</totfact>
</mgrwt>
</event>
<event>
12    1  0.1960998E-007  0.1399596E+04  0.7818608E-02  0.8954111E-01
          2   -1    0    0  501    0  0.00000000000E+00  0.00000000000E+00  0.29994110590E+04  0.29994110590E+04  0.00000000000E+00 0.  1.
         -2   -1    0    0    0  501 -0.00000000000E+00 -0.00000000000E+00 -0.16327108929E+03  0.16327108929E+03  0.00000000000E+00 0. -1.
         23    2    1    2    0    0 -0.39079689640E+03 -0.35573656509E+01  0.61222278308E+03  0.73200617439E+03  0.91002385384E+02 0.  0.
        254    2    1    2    0    0  0.39079689640E+03  0.35573656509E+01  0.22239171866E+04  0.24306759739E+04  0.89980173818E+03 0.  0.
        -24    2    4    4    0    0 -0.21221863332E+03 -0.68494982590E+02  0.13041330991E+04  0.13255382678E+04  0.80995359846E+02 0.  0.
         24    2    4    4    0    0  0.60301552972E+03  0.72052348241E+02  0.91978408753E+03  0.11051377061E+04  0.80667910379E+02 0.  0.
         11    1    3    3    0    0 -0.22585938840E+03 -0.32191939053E+02  0.41266238855E+03  0.47152839914E+03  0.00000000000E+00 0.  1.
        -11    1    3    3    0    0 -0.16493750800E+03  0.28634573402E+02  0.19956039453E+03  0.26047777526E+03  0.00000000000E+00 0. -1.
          2    1    6    6  502    0  0.57654278114E+03  0.53077847902E+02  0.85445564896E+03  0.10321401516E+04  0.00000000000E+00 0. -1.
          1    1    5    5  503    0 -0.18783620482E+03 -0.54525539026E+02  0.12425130874E+04  0.12578132797E+04  0.00000000000E+00 0. -1.
         -2    1    5    5    0  503 -0.24382428491E+02 -0.13969443564E+02  0.61620011695E+02  0.67724988106E+02  0.00000000000E+00 0.  1.
         -1    1    6    6    0  502  0.26472748581E+02  0.18974500339E+02  0.65328438575E+02  0.72997554528E+02  0.00000000000E+00 0.  1.
<mgrwt>
<rscale>  0 0.13995958E+04</rscale>
<asrwt>0</asrwt>
<pdfrwt beam="1">  1        2 0.46144781E+00 0.13995958E+04</pdfrwt>
<pdfrwt beam="2">  1       -2 0.25118631E-01 0.13995958E+04</pdfrwt>
<totfact> 0.24346980E+01</totfact>
</mgrwt>
</event>
<event>
12    1  0.1960998E-007  0.2740105E+04  0.7818608E-02  0.8322109E-01
         -2   -1    0    0    0  501 -0.00000000000E+00  0.00000000000E+00  0.10008959374E+04  0.10008959374E+04  0.00000000000E+00 0. -1.
          2   -1    0    0  501    0  0.00000000000E+00 -0.00000000000E+00 -0.18753630145E+04  0.18753630145E+04  0.00000000000E+00 0.  1.
         23    2    1    2    0    0  0.95055077626E+03 -0.75753800823E+03 -0.49841883190E+03  0.13169124096E+04  0.91795154588E+02 0.  0.
        254    2    1    2    0    0 -0.95055077626E+03  0.75753800823E+03 -0.37604824514E+03  0.15593465423E+04  0.90152024052E+03 0.  0.
        -24    2    4    4    0    0 -0.26709779381E+03  0.73915087555E+03 -0.32812513858E+02  0.79055002122E+03  0.78787224243E+02 0.  0.
         24    2    4    4    0    0 -0.68345298246E+03  0.18387132674E+02 -0.34323573128E+03  0.76879652105E+03  0.76100313266E+02 0.  0.
         13    1    3    3    0    0  0.45816150674E+03 -0.31600680837E+03 -0.20100797467E+03  0.59175710818E+03  0.00000000000E+00 0. -1.
        -13    1    3    3    0    0  0.49238926952E+03 -0.44153119985E+03 -0.29741085723E+03  0.72515530142E+03  0.00000000000E+00 0.  1.
          2    1    6    6  502    0 -0.37040792390E+03  0.46485349541E+02 -0.17492032634E+03  0.41226209913E+03  0.00000000000E+00 0. -1.
          3    1    5    5  503    0 -0.77337143690E+02  0.28351644060E+03 -0.42203928748E+02  0.29689017748E+03  0.00000000000E+00 0. -1.
         -4    1    5    5    0  503 -0.18976065012E+03  0.45563443495E+03  0.93914148895E+01  0.49365984374E+03  0.00000000000E+00 0.  1.
         -1    1    6    6    0  502 -0.31304505855E+03 -0.28098216867E+02 -0.16831540495E+03  0.35653442193E+03  0.00000000000E+00 0.  1.
<mgrwt>
<rscale>  0 0.27401045E+04</rscale>
<asrwt>0</asrwt>
<pdfrwt beam="1">  1        2 0.28851738E+00 0.27401045E+04</pdfrwt>
<pdfrwt beam="2">  1       -2 0.15398399E+00 0.27401045E+04</pdfrwt>
<totfact> 0.19148100E+00</totfact>
</mgrwt>
</event>
<event>
12    1  0.1960998E-007  0.1972295E+04  0.7818608E-02  0.8619684E-01
          1   -1    0    0  501    0  0.00000000000E+00  0.00000000000E+00  0.44344119920E+03  0.44344119920E+03  0.00000000000E+00 0. -1.
         -1   -1    0    0    0  501 -0.00000000000E+00 -0.00000000000E+00 -0.21930464585E+04  0.21930464585E+04  0.00000000000E+00 0.  1.
         23    2    1    2    0    0 -0.75239290993E+03 -0.12432252787E+03 -0.49202943324E+03  0.91237667119E+03  0.93739239993E+02 0.  0.
        254    2    1    2    0    0  0.75239290993E+03  0.12432252787E+03 -0.12575758260E+04  0.17241109865E+04  0.89972804427E+03 0.  0.
        -24    2    4    4    0    0 -0.99851394011E+02 -0.11487687717E+03  0.16231257211E+02  0.17088503195E+03  0.75968695119E+02 0.  0.
         24    2    4    4    0    0  0.85224430394E+03  0.23919940504E+03 -0.12738070833E+04  0.15532259546E+04  0.79935421174E+02 0.  0.
         11    1    3    3    0    0 -0.76072354369E+02 -0.40670025361E+02 -0.44193514555E+02  0.96923272699E+02  0.00000000000E+00 0. -1.
        -11    1    3    3    0    0 -0.67632055556E+03 -0.83652502506E+02 -0.44783591868E+03  0.81545339849E+03  0.00000000000E+00 0.  1.
          4    1    6    6  502    0  0.35510367248E+03  0.96651808969E+02 -0.46178166386E+03  0.59049343389E+03  0.00000000000E+00 0. -1.
          3    1    5    5  503    0  0.43070625123E+01 -0.12855021143E+02  0.21013395950E+02  0.25007302242E+02  0.00000000000E+00 0. -1.
         -4    1    5    5    0  503 -0.10415845652E+03 -0.10202185603E+03 -0.47821387386E+01  0.14587772970E+03  0.00000000000E+00 0.  1.
         -3    1    6    6    0  502  0.49714063146E+03  0.14254759607E+03 -0.81202541940E+03  0.96273252066E+03  0.00000000000E+00 0.  1.
<mgrwt>
<rscale>  0 0.19722953E+04</rscale>
<asrwt>0</asrwt>
<pdfrwt beam="1">  1        1 0.68221723E-01 0.19722953E+04</pdfrwt>
<pdfrwt beam="2">  1       -1 0.33739176E+00 0.19722953E+04</pdfrwt>
<totfact> 0.91561383E-01</totfact>
</mgrwt>
</event>
<event>
12    1  0.1960998E-007  0.1778422E+04  0.7818608E-02  0.8717859E-01
          2   -1    0    0  501    0  0.00000000000E+00  0.00000000000E+00  0.13130153327E+04  0.13130153327E+04  0.00000000000E+00 0.  1.
         -2   -1    0    0    0  501 -0.00000000000E+00 -0.00000000000E+00 -0.60219885728E+03  0.60219885728E+03  0.00000000000E+00 0. -1.
         23    2    1    2    0    0  0.51693174162E+03  0.36840118512E+02  0.70082831099E+03  0.87675378509E+03  0.94663923218E+02 0.  0.
        254    2    1    2    0    0 -0.51693174162E+03 -0.36840118512E+02  0.99881644174E+01  0.10384604049E+04  0.89984700323E+03 0.  0.
        -24    2    4    4    0    0 -0.47786289939E+03 -0.31766982984E+03  0.27539323023E+03  0.64150817465E+03  0.80151328653E+02 0.  0.
         24    2    4    4    0    0 -0.39068842230E+02  0.28082971133E+03 -0.26540506581E+03  0.39695223022E+03  0.82094597367E+02 0.  0.
         11    1    3    3    0    0  0.45280638533E+03  0.62481778341E+02  0.59337019726E+03  0.74901654602E+03  0.00000000000E+00 0. -1.
        -11    1    3    3    0    0  0.64125356290E+02 -0.25641659829E+02  0.10745811373E+03  0.12773723907E+03  0.00000000000E+00 0.  1.
          4    1    6    6  502    0 -0.50455329651E+01  0.11832225789E+03 -0.59772558371E+02  0.13265885891E+03  0.00000000000E+00 0. -1.
          1    1    5    5  503    0 -0.30618267043E+03 -0.22983548887E+03  0.14838858801E+03  0.41059877334E+03  0.00000000000E+00 0. -1.
         -2    1    5    5    0  503 -0.17168022895E+03 -0.87834340970E+02  0.12700464222E+03  0.23090940131E+03  0.00000000000E+00 0.  1.
         -3    1    6    6    0  502 -0.34023309265E+02  0.16250745344E+03 -0.20563250744E+03  0.26429337130E+03  0.00000000000E+00 0.  1.
<mgrwt>
<rscale>  0 0.17784221E+04</rscale>
<asrwt>0</asrwt>
<pdfrwt beam="1">  1        2 0.20200236E+00 0.17784221E+04</pdfrwt>
<pdfrwt beam="2">  1       -2 0.92645979E-01 0.17784221E+04</pdfrwt>
<totfact> 0.15183062E+01</totfact>
</mgrwt>
</event>
<event>
12    1  0.1960998E-007  0.1696959E+04  0.7818608E-02  0.8763101E-01
         -2   -1    0    0    0  501 -0.00000000000E+00  0.00000000000E+00  0.19296145248E+04  0.19296145248E+04  0.00000000000E+00 0. -1.
          2   -1    0    0  501    0  0.00000000000E+00 -0.00000000000E+00 -0.37308852873E+03  0.37308852873E+03  0.00000000000E+00 0.  1.
         23    2    1    2    0    0 -0.10335513842E+03 -0.48877025353E+03  0.10250049101E+04  0.11439867013E+04  0.92151296935E+02 0.  0.
        254    2    1    2    0    0  0.10335513842E+03  0.48877025353E+03  0.53152108596E+03  0.11587163523E+04  0.90029454894E+03 0.  0.
        -24    2    4    4    0    0 -0.45397486852E+02  0.67448897858E+03  0.14165557372E+03  0.69526235829E+03  0.79543266547E+02 0.  0.
         24    2    4    4    0    0  0.14875262527E+03 -0.18571872506E+03  0.38986551224E+03  0.46345399399E+03  0.78585612863E+02 0.  0.
         11    1    3    3    0    0 -0.45826958600E+02 -0.22735731889E+03  0.58042721256E+03  0.62504976575E+03  0.00000000000E+00 0. -1.
        -11    1    3    3    0    0 -0.57528179821E+02 -0.26141293464E+03  0.44457769755E+03  0.51893693550E+03  0.00000000000E+00 0.  1.
          2    1    6    6  502    0  0.65962433906E+02 -0.27382635029E+02  0.98524814804E+02  0.12168808701E+03  0.00000000000E+00 0. -1.
          3    1    5    5  503    0 -0.24782405816E+02  0.12595111128E+03  0.54520544893E+02  0.13946447536E+03  0.00000000000E+00 0. -1.
         -4    1    5    5    0  503 -0.20615081036E+02  0.54853786730E+03  0.87135028830E+02  0.55579788294E+03  0.00000000000E+00 0.  1.
         -1    1    6    6    0  502  0.82790191367E+02 -0.15833609003E+03  0.29134069743E+03  0.34176590698E+03  0.00000000000E+00 0.  1.
<mgrwt>
<rscale>  0 0.16969585E+04</rscale>
<asrwt>0</asrwt>
<pdfrwt beam="1">  1        2 0.57398236E-01 0.16969585E+04</pdfrwt>
<pdfrwt beam="2">  1       -2 0.29686377E+00 0.16969585E+04</pdfrwt>
<totfact> 0.27252519E+00</totfact>
</mgrwt>
</event>
<event>
12    1  0.1960998E-007  0.2675467E+04  0.7818608E-02  0.8343009E-01
         -1   -1    0    0    0  501 -0.00000000000E+00  0.00000000000E+00  0.82468090404E+03  0.82468090404E+03  0.00000000000E+00 0.  1.
          1   -1    0    0  501    0  0.00000000000E+00 -0.00000000000E+00 -0.21699679721E+04  0.21699679721E+04  0.00000000000E+00 0. -1.
         23    2    1    2    0    0  0.95205910891E+03 -0.61300953272E+03 -0.20820070077E+03  0.11551227444E+04  0.93615110332E+02 0.  0.
        254    2    1    2    0    0 -0.95205910891E+03  0.61300953272E+03 -0.11370863673E+04  0.18395261317E+04  0.89927401188E+03 0.  0.
        -24    2    4    4    0    0 -0.83279062324E+03  0.74547114787E+03 -0.11927589027E+04  0.16366079043E+04  0.80896094530E+02 0.  0.
         24    2    4    4    0    0 -0.11926848567E+03 -0.13246161515E+03  0.55672535395E+02  0.20291822737E+03  0.79406074322E+02 0.  0.
         11    1    3    3    0    0  0.78541232342E+03 -0.46142404879E+03 -0.16804828405E+03  0.92629633290E+03  0.00000000000E+00 0.  1.
        -11    1    3    3    0    0  0.16664678549E+03 -0.15158548393E+03 -0.40152416721E+02  0.22882641155E+03  0.00000000000E+00 0. -1.
          2    1    6    6  502    0 -0.11320060806E+03 -0.12862249406E+03  0.71404389094E+02  0.18562518801E+03  0.00000000000E+00 0. -1.
          1    1    5    5  503    0 -0.39849060049E+03  0.33362978947E+03 -0.60783482210E+03  0.79972918295E+03  0.00000000000E+00 0. -1.
         -2    1    5    5    0  503 -0.43430002275E+03  0.41184135840E+03 -0.58492408056E+03  0.83687872136E+03  0.00000000000E+00 0.  1.
         -1    1    6    6    0  502 -0.60678776137E+01 -0.38391210915E+01 -0.15731853698E+02  0.17293039359E+02  0.00000000000E+00 0.  1.
<mgrwt>
<rscale>  0 0.26754672E+04</rscale>
<asrwt>0</asrwt>
<pdfrwt beam="1">  1        1 0.33384122E+00 0.26754672E+04</pdfrwt>
<pdfrwt beam="2">  1       -1 0.12687399E+00 0.26754672E+04</pdfrwt>
<totfact> 0.10771827E+00</totfact>
</mgrwt>
</event>
<event>
12    1  0.1960998E-007  0.3871052E+04  0.7818608E-02  0.8031077E-01
          2   -1    0    0  501    0  0.00000000000E+00  0.00000000000E+00  0.31998775463E+04  0.31998775463E+04  0.00000000000E+00 0. -1.
         -2   -1    0    0    0  501 -0.00000000000E+00 -0.00000000000E+00 -0.11707511686E+04  0.11707511686E+04  0.00000000000E+00 0.  1.
         23    2    1    2    0    0 -0.14838606177E+02  0.17612447280E+04  0.15202675097E+04  0.23284279063E+04  0.90332926646E+02 0.  0.
        254    2    1    2    0    0  0.14838606177E+02 -0.17612447280E+04  0.50885886799E+03  0.20422008086E+04  0.89969084635E+03 0.  0.
        -24    2    4    4    0    0 -0.20549216132E+03 -0.49135672771E+02 -0.37310981352E+02  0.22988809253E+03  0.82553516317E+02 0.  0.
         24    2    4    4    0    0  0.22033076749E+03 -0.17121090553E+04  0.54616984934E+03  0.18123127161E+04  0.79453208951E+02 0.  0.
         11    1    3    3    0    0  0.15619750850E+02  0.88576130375E+03  0.81564608674E+03  0.12041991541E+04  0.00000000000E+00 0.  1.
        -11    1    3    3    0    0 -0.30458357027E+02  0.87548342429E+03  0.70462142294E+03  0.11242287523E+04  0.00000000000E+00 0. -1.
          2    1    6    6  502    0  0.20436300787E+03 -0.14017740571E+04  0.46783094385E+03  0.14918446763E+04  0.00000000000E+00 0. -1.
          3    1    5    5  503    0 -0.17863112395E+03 -0.12025097800E+02 -0.17210584915E+02  0.17986073961E+03  0.00000000000E+00 0. -1.
         -4    1    5    5    0  503 -0.26861037369E+02 -0.37110574971E+02 -0.20100396437E+02  0.50027352919E+02  0.00000000000E+00 0.  1.
         -1    1    6    6    0  502  0.15967759626E+02 -0.31033499812E+03  0.78338905487E+02  0.32046803978E+03  0.00000000000E+00 0.  1.
<mgrwt>
<rscale>  0 0.38710517E+04</rscale>
<asrwt>0</asrwt>
<pdfrwt beam="1">  1        2 0.49228885E+00 0.38710517E+04</pdfrwt>
<pdfrwt beam="2">  1       -2 0.18011557E+00 0.38710517E+04</pdfrwt>
<totfact> 0.18694085E-01</totfact>
</mgrwt>
</event>
<event>
12    1  0.1960998E-007  0.1394687E+04  0.7818608E-02  0.8957673E-01
          2   -1    0    0  501    0  0.00000000000E+00  0.00000000000E+00  0.13998649046E+04  0.13998649046E+04  0.00000000000E+00 0. -1.
         -2   -1    0    0    0  501 -0.00000000000E+00 -0.00000000000E+00 -0.34738202625E+03  0.34738202625E+03  0.00000000000E+00 0.  1.
         23    2    1    2    0    0 -0.35251179763E+03 -0.61413841132E+02  0.86587500524E+02  0.37895766926E+03  0.89862631270E+02 0.  0.
        254    2    1    2    0    0  0.35251179763E+03  0.61413841132E+02  0.96589537778E+03  0.13682892615E+04  0.90068051777E+03 0.  0.
        -24    2    4    4    0    0 -0.18519908554E+03  0.67481823790E+02  0.75600171254E+03  0.78539325932E+03  0.80321134195E+02 0.  0.
         24    2    4    4    0    0  0.53771088316E+03 -0.60679826575E+01  0.20989366524E+03  0.58289600223E+03  0.80886243666E+02 0.  0.
         13    1    3    3    0    0 -0.92575740118E+02 -0.57107196746E+02  0.31084375821E+02  0.11312708782E+03  0.00000000000E+00 0. -1.
        -13    1    3    3    0    0 -0.25993605751E+03 -0.43066443867E+01  0.55503124703E+02  0.26583058144E+03  0.00000000000E+00 0.  1.
          2    1    6    6  502    0  0.17795875646E+02  0.11868268955E+02  0.19442212273E+02  0.28905857816E+02  0.00000000000E+00 0. -1.
          1    1    5    5  503    0  0.60957024101E+00 -0.78374963417E+01  0.77255019272E+02  0.77653949851E+02  0.00000000000E+00 0. -1.
         -2    1    5    5    0  503 -0.18580865578E+03  0.75319320131E+02  0.67874669327E+03  0.70773930947E+03  0.00000000000E+00 0.  1.
         -1    1    6    6    0  502  0.51991500752E+03 -0.17936251613E+02  0.19045145297E+03  0.55399014441E+03  0.00000000000E+00 0.  1.
<mgrwt>
<rscale>  0 0.13946869E+04</rscale>
<asrwt>0</asrwt>
<pdfrwt beam="1">  1        2 0.21536383E+00 0.13946869E+04</pdfrwt>
<pdfrwt beam="2">  1       -2 0.53443390E-01 0.13946869E+04</pdfrwt>
<totfact> 0.46494100E+01</totfact>
</mgrwt>
</event>
<event>
12    1  0.1960998E-007  0.2912839E+04  0.7818608E-02  0.8269068E-01
         -1   -1    0    0    0  501 -0.00000000000E+00  0.00000000000E+00  0.16118366699E+04  0.16118366699E+04  0.00000000000E+00 0.  1.
          1   -1    0    0  501    0  0.00000000000E+00 -0.00000000000E+00 -0.13159877504E+04  0.13159877504E+04  0.00000000000E+00 0. -1.
         23    2    1    2    0    0 -0.38666910435E+03 -0.12557340266E+04  0.19657974285E+03  0.13323591560E+04  0.10077888380E+03 0.  0.
        254    2    1    2    0    0  0.38666910435E+03  0.12557340266E+04  0.99269176658E+02  0.15954652643E+04  0.89959663092E+03 0.  0.
        -24    2    4    4    0    0  0.36983531479E+02 -0.98435339576E+02  0.14258147653E+03  0.19383413102E+03  0.78644104800E+02 0.  0.
         24    2    4    4    0    0  0.34968557287E+03  0.13541693662E+04 -0.43312299876E+02  0.14016311333E+04  0.81481324864E+02 0.  0.
         11    1    3    3    0    0 -0.19460593034E+03 -0.56666987329E+03  0.13652478484E+03  0.61451218889E+03  0.00000000000E+00 0.  1.
        -11    1    3    3    0    0 -0.19206317401E+03 -0.68906415334E+03  0.60054958014E+02  0.71784696713E+03  0.00000000000E+00 0. -1.
          2    1    6    6  502    0  0.23254188975E+03  0.76858958630E+03 -0.47992190460E+02  0.80443081306E+03  0.00000000000E+00 0. -1.
          3    1    5    5  503    0 -0.80942715570E+01 -0.75815084790E+02  0.10981791892E+03  0.13369150919E+03  0.00000000000E+00 0. -1.
         -4    1    5    5    0  503  0.45077803036E+02 -0.22620254785E+02  0.32763557617E+02  0.60142621832E+02  0.00000000000E+00 0.  1.
         -1    1    6    6    0  502  0.11714368311E+03  0.58557977991E+03  0.46798905837E+01  0.59720032025E+03  0.00000000000E+00 0.  1.
<mgrwt>
<rscale>  0 0.29128387E+04</rscale>
<asrwt>0</asrwt>
<pdfrwt beam="1">  1        1 0.20245965E+00 0.29128387E+04</pdfrwt>
<pdfrwt beam="2">  1       -1 0.24797487E+00 0.29128387E+04</pdfrwt>
<totfact> 0.54299600E-01</totfact>
</mgrwt>
</event>
<event>
12    1  0.1960998E-007  0.2944839E+04  0.7818608E-02  0.8259660E-01
         -1   -1    0    0    0  501 -0.00000000000E+00  0.00000000000E+00  0.95941091069E+03  0.95941091069E+03  0.00000000000E+00 0.  1.
          1   -1    0    0  501    0  0.00000000000E+00 -0.00000000000E+00 -0.22597394848E+04  0.22597394848E+04  0.00000000000E+00 0. -1.
         23    2    1    2    0    0 -0.81135552491E+03  0.40503264235E+03 -0.16592204193E+04  0.18925153506E+04  0.79074163717E+02 0.  0.
        254    2    1    2    0    0  0.81135552491E+03 -0.40503264235E+03  0.35889184523E+03  0.13266350448E+04  0.89933750975E+03 0.  0.
        -24    2    4    4    0    0  0.37621580708E+03 -0.65191564095E+03  0.30878495001E+03  0.81743176901E+03  0.79462036329E+02 0.  0.
         24    2    4    4    0    0  0.43513971782E+03  0.24688299860E+03  0.50106895214E+02  0.50920327582E+03  0.80495255349E+02 0.  0.
         13    1    3    3    0    0 -0.56797128416E+03  0.24512663334E+03 -0.11556439708E+04  0.13107980139E+04  0.00000000000E+00 0.  1.
        -13    1    3    3    0    0 -0.24338424074E+03  0.15990600900E+03 -0.50357644847E+03  0.58171733669E+03  0.00000000000E+00 0. -1.
          4    1    6    6  502    0  0.62766437600E+02  0.42878295842E+02 -0.20614915604E+02  0.78760070395E+02  0.00000000000E+00 0. -1.
          1    1    5    5  503    0  0.29862664780E+03 -0.49137018987E+03  0.26863921247E+03  0.63465704498E+03  0.00000000000E+00 0. -1.
         -2    1    5    5    0  503  0.77589159280E+02 -0.16054545108E+03  0.40145737548E+02  0.18277472403E+03  0.00000000000E+00 0.  1.
         -3    1    6    6    0  502  0.37237328022E+03  0.20400470276E+03  0.70721810818E+02  0.43044320542E+03  0.00000000000E+00 0.  1.
<mgrwt>
<rscale>  0 0.29448387E+04</rscale>
<asrwt>0</asrwt>
<pdfrwt beam="1">  1        1 0.34765223E+00 0.29448387E+04</pdfrwt>
<pdfrwt beam="2">  1       -1 0.14760168E+00 0.29448387E+04</pdfrwt>
<totfact> 0.61772519E-01</totfact>
</mgrwt>
</event>
<event>
12    1  0.1960998E-007  0.2091257E+04  0.7818608E-02  0.8565105E-01
         -2   -1    0    0    0  501 -0.00000000000E+00  0.00000000000E+00  0.74297477348E+03  0.74297477348E+03  0.00000000000E+00 0.  1.
          2   -1    0    0  501    0  0.00000000000E+00 -0.00000000000E+00 -0.14715690807E+04  0.14715690807E+04  0.00000000000E+00 0. -1.
         23    2    1    2    0    0  0.76470217276E+03 -0.51169144432E+02 -0.68468151725E+03  0.10318563764E+04  0.92472196760E+02 0.  0.
        254    2    1    2    0    0 -0.76470217276E+03  0.51169144432E+02 -0.43912789933E+02  0.11826874777E+04  0.89968530190E+03 0.  0.
        -24    2    4    4    0    0 -0.37201292955E+02 -0.34001317868E+03  0.96601970709E+01  0.35100701578E+03  0.78228561585E+02 0.  0.
         24    2    4    4    0    0 -0.72750087980E+03  0.39118232311E+03 -0.53572987004E+02  0.83168046193E+03  0.80877597606E+02 0.  0.
         13    1    3    3    0    0  0.29106989018E+03 -0.59093828559E+02 -0.29284344385E+03  0.41709836268E+03  0.00000000000E+00 0. -1.
        -13    1    3    3    0    0  0.47363228258E+03  0.79246841269E+01 -0.39183807340E+03  0.61475801376E+03  0.00000000000E+00 0.  1.
          2    1    6    6  502    0 -0.93903159549E+02  0.81794371025E+02  0.20689963077E+00  0.12453178435E+03  0.00000000000E+00 0. -1.
          1    1    5    5  503    0 -0.56474633937E+02 -0.31000771248E+03  0.61152856829E+01  0.31516910191E+03  0.00000000000E+00 0. -1.
         -2    1    5    5    0  503  0.19273340982E+02 -0.30005466198E+02  0.35449113880E+01  0.35837913877E+02  0.00000000000E+00 0.  1.
         -1    1    6    6    0  502 -0.63359772025E+03  0.30938795209E+03 -0.53779886635E+02  0.70714867759E+03  0.00000000000E+00 0.  1.
<mgrwt>
<rscale>  0 0.20912568E+04</rscale>
<asrwt>0</asrwt>
<pdfrwt beam="1">  1        2 0.22639524E+00 0.20912568E+04</pdfrwt>
<pdfrwt beam="2">  1       -2 0.11430381E+00 0.20912568E+04</pdfrwt>
<totfact> 0.72714809E+00</totfact>
</mgrwt>
</event>
<event>
12    1  0.1960998E-007  0.2641532E+04  0.7818608E-02  0.8354229E-01
         -1   -1    0    0    0  501 -0.00000000000E+00  0.00000000000E+00  0.68806498012E+03  0.68806498012E+03  0.00000000000E+00 0.  1.
          1   -1    0    0  501    0  0.00000000000E+00 -0.00000000000E+00 -0.25352592534E+04  0.25352592534E+04  0.00000000000E+00 0. -1.
         23    2    1    2    0    0  0.30073306071E+02  0.90391285774E+03  0.79546481918E+02  0.91265256457E+03  0.92974204549E+02 0.  0.
        254    2    1    2    0    0 -0.30073306071E+02 -0.90391285774E+03 -0.19267407552E+04  0.23106716690E+04  0.89939466632E+03 0.  0.
        -24    2    4    4    0    0  0.24877029527E+03 -0.19511682639E+03 -0.12397612935E+04  0.12818409054E+04  0.78427075205E+02 0.  0.
         24    2    4    4    0    0 -0.27884360134E+03 -0.70879603135E+03 -0.68697946170E+03  0.10288307635E+04  0.80039934821E+02 0.  0.
         13    1    3    3    0    0 -0.19456128145E+02  0.39590714759E+03  0.67533345959E+02  0.40209670883E+03  0.00000000000E+00 0.  1.
        -13    1    3    3    0    0  0.49529434216E+02  0.50800571015E+03  0.12013135959E+02  0.51055585575E+03  0.00000000000E+00 0. -1.
          4    1    6    6  502    0 -0.14233597419E+03 -0.43785902888E+03 -0.37672546158E+03  0.59489674072E+03  0.00000000000E+00 0. -1.
          1    1    5    5  503    0  0.17590896238E+03 -0.13636506391E+03 -0.99972094749E+03  0.10241979138E+04  0.00000000000E+00 0. -1.
         -2    1    5    5    0  503  0.72861332888E+02 -0.58751762477E+02 -0.24004034604E+03  0.25764299166E+03  0.00000000000E+00 0.  1.
         -3    1    6    6    0  502 -0.13650762715E+03 -0.27093700247E+03 -0.31025400012E+03  0.43393402283E+03  0.00000000000E+00 0.  1.
<mgrwt>
<rscale>  0 0.26415322E+04</rscale>
<asrwt>0</asrwt>
<pdfrwt beam="1">  1        1 0.39003988E+00 0.26415322E+04</pdfrwt>
<pdfrwt beam="2">  1       -1 0.10585615E+00 0.26415322E+04</pdfrwt>
<totfact> 0.93824166E-01</totfact>
</mgrwt>
</event>
<event>
12    1  0.1960998E-007  0.1953853E+04  0.7818608E-02  0.8628505E-01
          2   -1    0    0  501    0  0.00000000000E+00  0.00000000000E+00  0.21395635986E+04  0.21395635986E+04  0.00000000000E+00 0. -1.
         -2   -1    0    0    0  501 -0.00000000000E+00 -0.00000000000E+00 -0.44606548479E+03  0.44606548479E+03  0.00000000000E+00 0.  1.
         23    2    1    2    0    0  0.68595750311E+03 -0.38554120090E+02  0.21904296899E+03  0.72701060033E+03  0.92414687572E+02 0.  0.
        254    2    1    2    0    0 -0.68595750311E+03  0.38554120090E+02  0.14744551449E+04  0.18586184831E+04  0.89912211367E+03 0.  0.
        -24    2    4    4    0    0 -0.53839453506E+03  0.32516668127E+03  0.43919091792E+03  0.77143859503E+03  0.81405144405E+02 0.  0.
         24    2    4    4    0    0 -0.14756296806E+03 -0.28661256118E+03  0.10352642269E+04  0.10871798881E+04  0.79161225844E+02 0.  0.
         11    1    3    3    0    0  0.38838761440E+03 -0.60982284696E+02  0.14941509951E+03  0.42058132392E+03  0.00000000000E+00 0. -1.
        -11    1    3    3    0    0  0.29756988871E+03  0.22428164606E+02  0.69627869481E+02  0.30642927642E+03  0.00000000000E+00 0.  1.
          2    1    6    6  502    0 -0.92684026160E+02 -0.20305146009E+03  0.81998392287E+03  0.84981989734E+03  0.00000000000E+00 0. -1.
          3    1    5    5  503    0 -0.50039770084E+03  0.28894938659E+03  0.42427723934E+03  0.71686873473E+03  0.00000000000E+00 0. -1.
         -4    1    5    5    0  503 -0.37996834215E+02  0.36217294681E+02  0.14913678585E+02  0.54569860301E+02  0.00000000000E+00 0.  1.
         -1    1    6    6    0  502 -0.54878941895E+02 -0.83561101095E+02  0.21528030406E+03  0.23735999072E+03  0.00000000000E+00 0.  1.
<mgrwt>
<rscale>  0 0.19538531E+04</rscale>
<asrwt>0</asrwt>
<pdfrwt beam="1">  1        2 0.32916363E+00 0.19538531E+04</pdfrwt>
<pdfrwt beam="2">  1       -2 0.68625460E-01 0.19538531E+04</pdfrwt>
<totfact> 0.10107399E+01</totfact>
</mgrwt>
</event>
<event>
12    1  0.1960998E-007  0.1388933E+04  0.7818608E-02  0.8961869E-01
         -1   -1    0    0    0  501 -0.00000000000E+00  0.00000000000E+00  0.42293180698E+03  0.42293180698E+03  0.00000000000E+00 0.  1.
          1   -1    0    0  501    0  0.00000000000E+00 -0.00000000000E+00 -0.11403338124E+04  0.11403338124E+04  0.00000000000E+00 0. -1.
         23    2    1    2    0    0 -0.28595518104E+03  0.21581173489E+03 -0.41027985791E+03  0.55258155406E+03  0.93122186381E+02 0.  0.
        254    2    1    2    0    0  0.28595518104E+03 -0.21581173489E+03 -0.30712214755E+03  0.10106840654E+04  0.89376350115E+03 0.  0.
        -24    2    4    4    0    0  0.37985865278E+03 -0.25305853124E+03  0.18722681465E+03  0.49967964947E+03  0.79338865938E+02 0.  0.
         24    2    4    4    0    0 -0.93903471734E+02  0.37246796352E+02 -0.49434896220E+03  0.51100441590E+03  0.80866747181E+02 0.  0.
         11    1    3    3    0    0 -0.28245752188E+03  0.21665352947E+03 -0.41492731871E+03  0.54670438384E+03  0.00000000000E+00 0. -1.
        -11    1    3    3    0    0 -0.34976591638E+01 -0.84179458669E+00  0.46474608053E+01  0.58771702110E+01  0.00000000000E+00 0.  1.
          2    1    6    6  502    0 -0.62336529541E+02  0.55072055108E+02 -0.42155619989E+03  0.42968407445E+03  0.00000000000E+00 0. -1.
          1    1    5    5  503    0  0.28437681347E+03 -0.22806205552E+03  0.15024644805E+03  0.39427968291E+03  0.00000000000E+00 0. -1.
         -2    1    5    5    0  503  0.95481839311E+02 -0.24996475717E+02  0.36980366595E+02  0.10539996656E+03  0.00000000000E+00 0.  1.
         -1    1    6    6    0  502 -0.31566942193E+02 -0.17825258757E+02 -0.72792762310E+02  0.81320341452E+02  0.00000000000E+00 0.  1.
<mgrwt>
<rscale>  0 0.13889326E+04</rscale>
<asrwt>0</asrwt>
<pdfrwt beam="1">  1        1 0.17543597E+00 0.13889326E+04</pdfrwt>
<pdfrwt beam="2">  1       -1 0.65066433E-01 0.13889326E+04</pdfrwt>
<totfact> 0.27639747E+01</totfact>
</mgrwt>
</event>
<event>
12    1  0.1960998E-007  0.2440259E+04  0.7818608E-02  0.8424583E-01
         -2   -1    0    0    0  501 -0.00000000000E+00  0.00000000000E+00  0.14445718540E+04  0.14445718540E+04  0.00000000000E+00 0. -1.
          2   -1    0    0  501    0  0.00000000000E+00 -0.00000000000E+00 -0.10305582974E+04  0.10305582974E+04  0.00000000000E+00 0.  1.
         23    2    1    2    0    0  0.69335509812E+03  0.77612408296E+03  0.33129285370E+03  0.10961432677E+04  0.93087185606E+02 0.  0.
        254    2    1    2    0    0 -0.69335509812E+03 -0.77612408296E+03  0.82720702841E+02  0.13789868837E+04  0.90091743603E+03 0.  0.
        -24    2    4    4    0    0 -0.38825635845E+03  0.58356110859E+02 -0.19220585649E+03  0.44550434292E+03  0.85922015471E+02 0.  0.
         24    2    4    4    0    0 -0.30509873967E+03 -0.83448019382E+03  0.27492655933E+03  0.93348254080E+03  0.79765945848E+02 0.  0.
         13    1    3    3    0    0  0.33951120356E+03  0.31567433529E+03  0.12891921266E+03  0.48118427520E+03  0.00000000000E+00 0. -1.
        -13    1    3    3    0    0  0.35384389456E+03  0.46044974767E+03  0.20237364104E+03  0.61495899249E+03  0.00000000000E+00 0.  1.
          4    1    6    6  502    0 -0.18405026353E+03 -0.47526293529E+03  0.11748359231E+03  0.52302175063E+03  0.00000000000E+00 0. -1.
          1    1    5    5  503    0 -0.16925035485E+03  0.66127933304E+02 -0.10323608041E+03  0.20898869462E+03  0.00000000000E+00 0. -1.
         -2    1    5    5    0  503 -0.21900600360E+03 -0.77718224448E+01 -0.88969776071E+02  0.23651564830E+03  0.00000000000E+00 0.  1.
         -3    1    6    6    0  502 -0.12104847614E+03 -0.35921725853E+03  0.15744296702E+03  0.41046079017E+03  0.00000000000E+00 0.  1.
<mgrwt>
<rscale>  0 0.24402586E+04</rscale>
<asrwt>0</asrwt>
<pdfrwt beam="1">  1        2 0.15854743E+00 0.24402586E+04</pdfrwt>
<pdfrwt beam="2">  1       -2 0.22224182E+00 0.24402586E+04</pdfrwt>
<totfact> 0.20642194E+00</totfact>
</mgrwt>
</event>
<event>
12    1  0.1960998E-007  0.1482350E+04  0.7818608E-02  0.8896276E-01
         -4   -1    0    0    0  501 -0.00000000000E+00  0.00000000000E+00  0.23779596408E+03  0.23779596408E+03  0.00000000000E+00 0.  1.
          4   -1    0    0  501    0  0.00000000000E+00 -0.00000000000E+00 -0.23101328473E+04  0.23101328473E+04  0.00000000000E+00 0. -1.
         23    2    1    2    0    0 -0.41850341454E+03 -0.18766704261E+03 -0.56277257198E+03  0.73150761280E+03  0.89590138717E+02 0.  0.
        254    2    1    2    0    0  0.41850341454E+03  0.18766704261E+03 -0.15095643112E+04  0.18164211985E+04  0.90013195365E+03 0.  0.
        -24    2    4    4    0    0  0.62308823963E+03  0.27897947178E+03 -0.13864286124E+04  0.15473818417E+04  0.78343900944E+02 0.  0.
         24    2    4    4    0    0 -0.20458482509E+03 -0.91312429170E+02 -0.12313569883E+03  0.26903935683E+03  0.83826396899E+02 0.  0.
         11    1    3    3    0    0 -0.13406275800E+03 -0.82846283046E+02 -0.25313591665E+03  0.29818471121E+03  0.00000000000E+00 0.  1.
        -11    1    3    3    0    0 -0.28444065654E+03 -0.10482075956E+03 -0.30963665532E+03  0.43332290160E+03  0.00000000000E+00 0. -1.
          2    1    6    6  502    0 -0.10948966734E+03 -0.22520467982E+02 -0.98773362591E+02  0.14916881675E+03  0.00000000000E+00 0. -1.
          1    1    5    5  503    0  0.61854246916E+02  0.30633482552E+02 -0.93832480041E+02  0.11648558892E+03  0.00000000000E+00 0. -1.
         -2    1    5    5    0  503  0.56123399272E+03  0.24834598923E+03 -0.12925961323E+04  0.14308962528E+04  0.00000000000E+00 0.  1.
         -1    1    6    6    0  502 -0.95095157755E+02 -0.68791961188E+02 -0.24362336237E+02  0.11987054008E+03  0.00000000000E+00 0.  1.
<mgrwt>
<rscale>  0 0.14823498E+04</rscale>
<asrwt>0</asrwt>
<pdfrwt beam="1">  1        4 0.35540507E+00 0.14823498E+04</pdfrwt>
<pdfrwt beam="2">  1       -4 0.36583993E-01 0.14823498E+04</pdfrwt>
<totfact> 0.19518256E-01</totfact>
</mgrwt>
</event>
<event>
12    1  0.1960998E-007  0.1298584E+04  0.7818608E-02  0.9030689E-01
         -1   -1    0    0    0  501 -0.00000000000E+00  0.00000000000E+00  0.22039492556E+03  0.22039492556E+03  0.00000000000E+00 0.  1.
          1   -1    0    0  501    0  0.00000000000E+00 -0.00000000000E+00 -0.19128381491E+04  0.19128381491E+04  0.00000000000E+00 0. -1.
         23    2    1    2    0    0  0.21935110342E+02 -0.32250316782E+03 -0.35895194804E+03  0.49245605982E+03  0.95796803353E+02 0.  0.
        254    2    1    2    0    0 -0.21935110342E+02  0.32250316782E+03 -0.13334912755E+04  0.16407770148E+04  0.89970038805E+03 0.  0.
        -24    2    4    4    0    0 -0.23779249902E+03  0.22469434072E+03 -0.59385737044E+02  0.34239041232E+03  0.81680532196E+02 0.  0.
         24    2    4    4    0    0  0.21585738868E+03  0.97808827099E+02 -0.12741055384E+04  0.12983866025E+04  0.79384303102E+02 0.  0.
         13    1    3    3    0    0  0.37429371045E+02 -0.31862436476E+03 -0.33674657218E+03  0.46510288917E+03  0.00000000000E+00 0.  1.
        -13    1    3    3    0    0 -0.15494260703E+02 -0.38788030638E+01 -0.22205375857E+02  0.27353170655E+02  0.00000000000E+00 0. -1.
          2    1    6    6  502    0  0.16680138847E+03  0.54051644120E+02 -0.75265947578E+03  0.77281341209E+03  0.00000000000E+00 0. -1.
          1    1    5    5  503    0 -0.17454921051E+03  0.14811398112E+03 -0.76993626831E+02  0.24152266325E+03  0.00000000000E+00 0. -1.
         -2    1    5    5    0  503 -0.63243288515E+02  0.76580359601E+02  0.17607889787E+02  0.10086774907E+03  0.00000000000E+00 0.  1.
         -1    1    6    6    0  502  0.49056000207E+02  0.43757182978E+02 -0.52144606264E+03  0.52557319040E+03  0.00000000000E+00 0.  1.
<mgrwt>
<rscale>  0 0.12985836E+04</rscale>
<asrwt>0</asrwt>
<pdfrwt beam="1">  1        1 0.29428279E+00 0.12985836E+04</pdfrwt>
<pdfrwt beam="2">  1       -1 0.33906911E-01 0.12985836E+04</pdfrwt>
<totfact> 0.27586307E+01</totfact>
</mgrwt>
</event>
<event>
12    1  0.1960998E-007  0.1177403E+04  0.7818608E-02  0.9132869E-01
          1   -1    0    0  501    0  0.00000000000E+00  0.00000000000E+00  0.44657528085E+03  0.44657528085E+03  0.00000000000E+00 0. -1.
         -1   -1    0    0    0  501 -0.00000000000E+00 -0.00000000000E+00 -0.77606067324E+03  0.77606067324E+03  0.00000000000E+00 0.  1.
         23    2    1    2    0    0 -0.11833592662E+03 -0.14618350985E+03 -0.20775182305E+03  0.29451578383E+03  0.90585412003E+02 0.  0.
        254    2    1    2    0    0  0.11833592662E+03  0.14618350985E+03 -0.12173356934E+03  0.92812017025E+03  0.90067473510E+03 0.  0.
        -24    2    4    4    0    0 -0.26231260246E+03 -0.23843503598E+03 -0.11501859159E+03  0.38108867139E+03  0.79624941215E+02 0.  0.
         24    2    4    4    0    0  0.38064852908E+03  0.38461854583E+03 -0.67149777531E+01  0.54703149886E+03  0.79835088349E+02 0.  0.
         11    1    3    3    0    0 -0.42808472324E+02 -0.11653507788E+03 -0.15107843968E+03  0.19554458473E+03  0.00000000000E+00 0.  1.
        -11    1    3    3    0    0 -0.75527454299E+02 -0.29648431969E+02 -0.56673383364E+02  0.98971199109E+02  0.00000000000E+00 0. -1.
          2    1    6    6  502    0  0.33146923012E+03  0.30504938810E+03 -0.27124886427E+02  0.45129008316E+03  0.00000000000E+00 0. -1.
          3    1    5    5  503    0 -0.12096558814E+03 -0.66986732248E+02 -0.21189888619E+02  0.13988891018E+03  0.00000000000E+00 0. -1.
         -4    1    5    5    0  503 -0.14134701431E+03 -0.17144830373E+03 -0.93828702970E+02  0.24119976121E+03  0.00000000000E+00 0.  1.
         -1    1    6    6    0  502  0.49179298962E+02  0.79569157726E+02  0.20409908673E+02  0.95741415697E+02  0.00000000000E+00 0.  1.
<mgrwt>
<rscale>  0 0.11774031E+04</rscale>
<asrwt>0</asrwt>
<pdfrwt beam="1">  1        1 0.68703890E-01 0.11774031E+04</pdfrwt>
<pdfrwt beam="2">  1       -1 0.11939395E+00 0.11774031E+04</pdfrwt>
<totfact> 0.32160008E+01</totfact>
</mgrwt>
</event>
<event>
12    1  0.1960998E-007  0.2623122E+04  0.7818608E-02  0.8360390E-01
         -1   -1    0    0    0  501 -0.00000000000E+00  0.00000000000E+00  0.18410498564E+04  0.18410498564E+04  0.00000000000E+00 0.  1.
          1   -1    0    0  501    0  0.00000000000E+00 -0.00000000000E+00 -0.93435366468E+03  0.93435366468E+03  0.00000000000E+00 0. -1.
         23    2    1    2    0    0  0.71917948390E+03 -0.27301986319E+03  0.13122231274E+04  0.15239042801E+04  0.92713231100E+02 0.  0.
        254    2    1    2    0    0 -0.71917948390E+03  0.27301986319E+03 -0.40552693565E+03  0.12514992410E+04  0.90002182130E+03 0.  0.
        -24    2    4    4    0    0 -0.54115244157E+03 -0.23163309172E+03 -0.39002663330E+03  0.71027742632E+03  0.76638067939E+02 0.  0.
         24    2    4    4    0    0 -0.17802704234E+03  0.50465295491E+03 -0.15500302348E+02  0.54122181464E+03  0.79451624076E+02 0.  0.
         11    1    3    3    0    0  0.51059544933E+03 -0.16917266460E+03  0.84252404631E+03  0.99958685063E+03  0.00000000000E+00 0. -1.
        -11    1    3    3    0    0  0.20858403457E+03 -0.10384719860E+03  0.46969908108E+03  0.52431742952E+03  0.00000000000E+00 0.  1.
          2    1    6    6  502    0 -0.42992965963E+02  0.10471059873E+03 -0.35487023100E+02  0.11862560186E+03  0.00000000000E+00 0. -1.
          3    1    5    5  503    0 -0.26305198574E+02 -0.31819832168E+02 -0.24522235134E+02  0.48018800559E+02  0.00000000000E+00 0. -1.
         -4    1    5    5    0  503 -0.51484724299E+03 -0.19981325955E+03 -0.36550439817E+03  0.66225862576E+03  0.00000000000E+00 0.  1.
         -1    1    6    6    0  502 -0.13503407637E+03  0.39994235618E+03  0.19986720752E+02  0.42259621278E+03  0.00000000000E+00 0.  1.
<mgrwt>
<rscale>  0 0.26231216E+04</rscale>
<asrwt>0</asrwt>
<pdfrwt beam="1">  1        1 0.14374672E+00 0.26231216E+04</pdfrwt>
<pdfrwt beam="2">  1       -1 0.28323844E+00 0.26231216E+04</pdfrwt>
<totfact> 0.63599687E-01</totfact>
</mgrwt>
</event>
<event>
12    1  0.1960998E-007  0.1551208E+04  0.7818608E-02  0.8851096E-01
          2   -1    0    0  501    0  0.00000000000E+00  0.00000000000E+00  0.15254354232E+04  0.15254354232E+04  0.00000000000E+00 0. -1.
         -2   -1    0    0    0  501 -0.00000000000E+00 -0.00000000000E+00 -0.39435420563E+03  0.39435420563E+03  0.00000000000E+00 0.  1.
         23    2    1    2    0    0  0.18664274411E+03 -0.46172576110E+03  0.41223981887E+03  0.65290675558E+03  0.91210585105E+02 0.  0.
        254    2    1    2    0    0 -0.18664274411E+03  0.46172576110E+03  0.71884139871E+03  0.12668828733E+04  0.91664227791E+03 0.  0.
        -24    2    4    4    0    0  0.47139808604E+02  0.18106306173E+03  0.84702179296E+03  0.87113138850E+03  0.80112323620E+02 0.  0.
         24    2    4    4    0    0 -0.23378255271E+03  0.28066269937E+03 -0.12818039425E+03  0.39575148476E+03  0.82238625012E+02 0.  0.
         11    1    3    3    0    0  0.51182346564E+02 -0.86494847821E+02  0.42983625659E+02  0.10930957586E+03  0.00000000000E+00 0.  1.
        -11    1    3    3    0    0  0.13546039755E+03 -0.37523091328E+03  0.36925619321E+03  0.54359717973E+03  0.00000000000E+00 0. -1.
          2    1    6    6  502    0 -0.15752343088E+03  0.18477355915E+03 -0.12523313789E+03  0.27319999682E+03  0.00000000000E+00 0. -1.
          3    1    5    5  503    0  0.37356116720E+02  0.78574081822E+02  0.23661955241E+03  0.25210747385E+03  0.00000000000E+00 0. -1.
         -4    1    5    5    0  503  0.97836918838E+01  0.10248897990E+03  0.61040224056E+03  0.61902391465E+03  0.00000000000E+00 0.  1.
         -1    1    6    6    0  502 -0.76259121829E+02  0.95889140220E+02 -0.29472563637E+01  0.12255148793E+03  0.00000000000E+00 0.  1.
<mgrwt>
<rscale>  0 0.15512084E+04</rscale>
<asrwt>0</asrwt>
<pdfrwt beam="1">  1        2 0.23468237E+00 0.15512084E+04</pdfrwt>
<pdfrwt beam="2">  1       -2 0.60669879E-01 0.15512084E+04</pdfrwt>
<totfact> 0.29898065E+01</totfact>
</mgrwt>
</event>
<event>
12    1  0.1960998E-007  0.1967815E+04  0.7818608E-02  0.8621818E-01
         -2   -1    0    0    0  501 -0.00000000000E+00  0.00000000000E+00  0.10104965929E+04  0.10104965929E+04  0.00000000000E+00 0. -1.
          2   -1    0    0  501    0  0.00000000000E+00 -0.00000000000E+00 -0.95801814662E+03  0.95801814662E+03  0.00000000000E+00 0.  1.
         23    2    1    2    0    0  0.54639409678E+02 -0.60898699245E+03  0.49857321447E+03  0.79408232013E+03  0.90226708317E+02 0.  0.
        254    2    1    2    0    0 -0.54639409678E+02  0.60898699245E+03 -0.44609476815E+03  0.11744324194E+04  0.89802023561E+03 0.  0.
        -24    2    4    4    0    0 -0.59173574774E+02  0.89724865765E+02 -0.60965008327E+03  0.62432100383E+03  0.80940893920E+02 0.  0.
         24    2    4    4    0    0  0.45341650950E+01  0.51926212668E+03  0.16355531512E+03  0.55011141559E+03  0.78857552623E+02 0.  0.
         13    1    3    3    0    0  0.73710125880E+02 -0.53378079164E+03  0.45397647251E+03  0.70459190584E+03  0.00000000000E+00 0. -1.
        -13    1    3    3    0    0 -0.19070716202E+02 -0.75206200802E+02  0.44596741958E+02  0.89490414284E+02  0.00000000000E+00 0.  1.
          4    1    6    6  502    0  0.90705051163E+01  0.46993146276E+03  0.12236743238E+03  0.48568677382E+03  0.00000000000E+00 0. -1.
          1    1    5    5  503    0 -0.73285113353E+02  0.42082438298E+02 -0.36168848294E+03  0.37142993706E+03  0.00000000000E+00 0. -1.
         -2    1    5    5    0  503  0.14111538580E+02  0.47642427468E+02 -0.24796160033E+03  0.25289106677E+03  0.00000000000E+00 0.  1.
         -3    1    6    6    0  502 -0.45363400213E+01  0.49330663918E+02  0.41187882734E+02  0.64424641773E+02  0.00000000000E+00 0.  1.
<mgrwt>
<rscale>  0 0.19678151E+04</rscale>
<asrwt>0</asrwt>
<pdfrwt beam="1">  1        2 0.14738741E+00 0.19678151E+04</pdfrwt>
<pdfrwt beam="2">  1       -2 0.15546101E+00 0.19678151E+04</pdfrwt>
<totfact> 0.68028275E+00</totfact>
</mgrwt>
</event>
<event>
12    1  0.1960998E-007  0.2487324E+04  0.7818608E-02  0.8407515E-01
         -1   -1    0    0    0  501 -0.00000000000E+00  0.00000000000E+00  0.55470862075E+03  0.55470862075E+03  0.00000000000E+00 0.  1.
          1   -1    0    0  501    0  0.00000000000E+00 -0.00000000000E+00 -0.27883028446E+04  0.27883028446E+04  0.00000000000E+00 0. -1.
         23    2    1    2    0    0  0.82111577407E+03  0.69418398414E+03 -0.87272694477E+03  0.13880555532E+04  0.94463646223E+02 0.  0.
        254    2    1    2    0    0 -0.82111577407E+03 -0.69418398414E+03 -0.13608672791E+04  0.19549559122E+04  0.90209220640E+03 0.  0.
        -24    2    4    4    0    0 -0.35999562360E+03  0.20718043651E+02 -0.92423157821E+03  0.99529961608E+03  0.79945164197E+02 0.  0.
         24    2    4    4    0    0 -0.46112015048E+03 -0.71490202779E+03 -0.43663570091E+03  0.95965629608E+03  0.81072614221E+02 0.  0.
         11    1    3    3    0    0  0.19155190223E+03  0.21619338898E+03 -0.22667428083E+03  0.36716881986E+03  0.00000000000E+00 0. -1.
        -11    1    3    3    0    0  0.62956387184E+03  0.47799059516E+03 -0.64605266394E+03  0.10208867334E+04  0.00000000000E+00 0.  1.
          4    1    6    6  502    0 -0.52455579763E+02 -0.77121589812E+02 -0.20865588609E+02  0.95575625823E+02  0.00000000000E+00 0. -1.
          1    1    5    5  503    0  0.25156914764E+01 -0.22257961030E+01 -0.28843480982E+02  0.29038410202E+02  0.00000000000E+00 0. -1.
         -2    1    5    5    0  503 -0.36251131507E+03  0.22943839754E+02 -0.89538809723E+03  0.96626120588E+03  0.00000000000E+00 0.  1.
         -3    1    6    6    0  502 -0.40866457071E+03 -0.63778043798E+03 -0.41577011230E+03  0.86408067026E+03  0.00000000000E+00 0.  1.
<mgrwt>
<rscale>  0 0.24873244E+04</rscale>
<asrwt>0</asrwt>
<pdfrwt beam="1">  1        1 0.42896966E+00 0.24873244E+04</pdfrwt>
<pdfrwt beam="2">  1       -1 0.85339789E-01 0.24873244E+04</pdfrwt>
<totfact> 0.10253269E+00</totfact>
</mgrwt>
</event>
<event>
12    1  0.1960998E-007  0.2401859E+04  0.7818608E-02  0.8438808E-01
         -1   -1    0    0    0  501 -0.00000000000E+00  0.00000000000E+00  0.65686825101E+03  0.65686825101E+03  0.00000000000E+00 0.  1.
          1   -1    0    0  501    0  0.00000000000E+00 -0.00000000000E+00 -0.21956180407E+04  0.21956180407E+04  0.00000000000E+00 0. -1.
         23    2    1    2    0    0  0.51882512193E+03  0.25911398147E+03 -0.16721958504E+04  0.17723227685E+04  0.92571439068E+02 0.  0.
        254    2    1    2    0    0 -0.51882512193E+03 -0.25911398147E+03  0.13344606064E+03  0.10801635232E+04  0.90145761033E+03 0.  0.
        -24    2    4    4    0    0 -0.10007780000E+03 -0.53970003043E+03  0.13229962208E+03  0.57005468752E+03  0.78533227695E+02 0.  0.
         24    2    4    4    0    0 -0.41874732193E+03  0.28058604897E+03  0.11464385652E+01  0.51010883569E+03  0.78306190214E+02 0.  0.
         11    1    3    3    0    0  0.37879942562E+03  0.15055940309E+03 -0.12375252967E+04  0.13029297751E+04  0.00000000000E+00 0. -1.
        -11    1    3    3    0    0  0.14002569631E+03  0.10855457838E+03 -0.43467055364E+03  0.46939299347E+03  0.00000000000E+00 0.  1.
          4    1    6    6  502    0 -0.73394924209E+02  0.53040223134E+02 -0.29915192991E+02  0.95367703870E+02  0.00000000000E+00 0. -1.
          1    1    5    5  503    0 -0.48517149456E+02 -0.10094235535E+03  0.15214556658E+02  0.11302546451E+03  0.00000000000E+00 0. -1.
         -2    1    5    5    0  503 -0.51560650547E+02 -0.43875767509E+03  0.11708506542E+03  0.45702922300E+03  0.00000000000E+00 0.  1.
         -3    1    6    6    0  502 -0.34535239772E+03  0.22754582583E+03  0.31061631556E+02  0.41474113182E+03  0.00000000000E+00 0.  1.
<mgrwt>
<rscale>  0 0.24018591E+04</rscale>
<asrwt>0</asrwt>
<pdfrwt beam="1">  1        1 0.33778740E+00 0.24018591E+04</pdfrwt>
<pdfrwt beam="2">  1       -1 0.10105665E+00 0.24018591E+04</pdfrwt>
<totfact> 0.18280978E+00</totfact>
</mgrwt>
</event>
<event>
12    1  0.1960998E-007  0.1410366E+04  0.7818608E-02  0.8946349E-01
         -1   -1    0    0    0  501 -0.00000000000E+00  0.00000000000E+00  0.89147124060E+03  0.89147124060E+03  0.00000000000E+00 0.  1.
          1   -1    0    0  501    0  0.00000000000E+00 -0.00000000000E+00 -0.55782256485E+03  0.55782256485E+03  0.00000000000E+00 0. -1.
         23    2    1    2    0    0  0.38965507218E+03  0.91330926485E+02  0.37580760963E+01  0.40975061383E+03  0.87801076242E+02 0.  0.
        254    2    1    2    0    0 -0.38965507218E+03 -0.91330926485E+02  0.32989059965E+03  0.10395431916E+04  0.90091610380E+03 0.  0.
        -24    2    4    4    0    0 -0.18431727556E+03 -0.48831266532E+03  0.13854737896E+03  0.54586226147E+03  0.79675059448E+02 0.  0.
         24    2    4    4    0    0 -0.20533779662E+03  0.39698173883E+03  0.19134322069E+03  0.49368093015E+03  0.85735179487E+02 0.  0.
         13    1    3    3    0    0  0.20667874508E+03  0.59442656131E+02  0.44470248761E+02  0.21960677599E+03  0.00000000000E+00 0.  1.
        -13    1    3    3    0    0  0.18297632710E+03  0.31888270353E+02 -0.40712172665E+02  0.19014383784E+03  0.00000000000E+00 0. -1.
          4    1    6    6  502    0 -0.13483760685E+02  0.56162452560E+02 -0.11476988897E+01  0.57769802601E+02  0.00000000000E+00 0. -1.
          3    1    5    5  503    0 -0.13647407981E+03 -0.43025529644E+03  0.10468139855E+03  0.46336053973E+03  0.00000000000E+00 0. -1.
         -4    1    5    5    0  503 -0.47843195755E+02 -0.58057368874E+02  0.33865980406E+02  0.82501721736E+02  0.00000000000E+00 0.  1.
         -3    1    6    6    0  502 -0.19185403594E+03  0.34081928627E+03  0.19249091958E+03  0.43591112755E+03  0.00000000000E+00 0.  1.
<mgrwt>
<rscale>  0 0.14103656E+04</rscale>
<asrwt>0</asrwt>
<pdfrwt beam="1">  1        1 0.85818856E-01 0.14103656E+04</pdfrwt>
<pdfrwt beam="2">  1       -1 0.13714942E+00 0.14103656E+04</pdfrwt>
<totfact> 0.16386101E+01</totfact>
</mgrwt>
</event>
<event>
12    1  0.1960998E-007  0.1465412E+04  0.7818608E-02  0.8907785E-01
         -1   -1    0    0    0  501 -0.00000000000E+00  0.00000000000E+00  0.22416365939E+03  0.22416365939E+03  0.00000000000E+00 0.  1.
          1   -1    0    0  501    0  0.00000000000E+00 -0.00000000000E+00 -0.23949367254E+04  0.23949367254E+04  0.00000000000E+00 0. -1.
         23    2    1    2    0    0 -0.21472118418E+03 -0.14425188900E+03 -0.13363688826E+04  0.13643466638E+04  0.92985129824E+02 0.  0.
        254    2    1    2    0    0  0.21472118418E+03  0.14425188900E+03 -0.83440418347E+03  0.12547537210E+04  0.90070126266E+03 0.  0.
        -24    2    4    4    0    0  0.41563782059E+03  0.39268323737E+03 -0.67721256935E+03  0.88974022863E+03  0.77883807990E+02 0.  0.
         24    2    4    4    0    0 -0.20091663641E+03 -0.24843134836E+03 -0.15719161412E+03  0.36501349237E+03  0.80249712908E+02 0.  0.
         13    1    3    3    0    0 -0.22326553818E+03 -0.14125324958E+03 -0.13123082189E+04  0.13386384285E+04  0.00000000000E+00 0. -1.
        -13    1    3    3    0    0  0.85443539962E+01 -0.29986394229E+01 -0.24060663685E+02  0.25708235267E+02  0.00000000000E+00 0.  1.
          2    1    6    6  502    0 -0.20580688195E+03 -0.24861471930E+03 -0.15901174894E+03  0.35979228398E+03  0.00000000000E+00 0. -1.
          1    1    5    5  503    0  0.28416106339E+03  0.23325553275E+03 -0.47461582014E+03  0.60034642518E+03  0.00000000000E+00 0. -1.
         -2    1    5    5    0  503  0.13147675720E+03  0.15942770462E+03 -0.20259674921E+03  0.28939380345E+03  0.00000000000E+00 0.  1.
         -1    1    6    6    0  502  0.48902455340E+01  0.18337093383E+00  0.18201348193E+01  0.52212083891E+01  0.00000000000E+00 0.  1.
<mgrwt>
<rscale>  0 0.14654116E+04</rscale>
<asrwt>0</asrwt>
<pdfrwt beam="1">  1        1 0.36845180E+00 0.14654116E+04</pdfrwt>
<pdfrwt beam="2">  1       -1 0.34486718E-01 0.14654116E+04</pdfrwt>
<totfact> 0.12407763E+01</totfact>
</mgrwt>
</event>
<event>
12    1  0.1960998E-007  0.2153643E+04  0.7818608E-02  0.8537975E-01
         -2   -1    0    0    0  501 -0.00000000000E+00  0.00000000000E+00  0.58100173427E+03  0.58100173427E+03  0.00000000000E+00 0. -1.
          2   -1    0    0  501    0  0.00000000000E+00 -0.00000000000E+00 -0.19957675611E+04  0.19957675611E+04  0.00000000000E+00 0.  1.
         23    2    1    2    0    0 -0.32599104678E+03  0.76334695877E+03 -0.95777519638E+03  0.12704494588E+04  0.87975897747E+02 0.  0.
        254    2    1    2    0    0  0.32599104678E+03 -0.76334695877E+03 -0.45699063045E+03  0.13063198366E+04  0.89925654682E+03 0.  0.
        -24    2    4    4    0    0 -0.21537946003E+03  0.52195484978E+02 -0.14183141158E+03  0.27463132410E+03  0.78699011503E+02 0.  0.
         24    2    4    4    0    0  0.54137050681E+03 -0.81554244374E+03 -0.31515921887E+03  0.10316885125E+04  0.82851374705E+02 0.  0.
         11    1    3    3    0    0 -0.12363501060E+03  0.19455485498E+03 -0.24602680974E+03  0.33714447727E+03  0.00000000000E+00 0. -1.
        -11    1    3    3    0    0 -0.20235603618E+03  0.56879210379E+03 -0.71174838664E+03  0.93330498156E+03  0.00000000000E+00 0.  1.
          4    1    6    6  502    0  0.31117381310E+03 -0.47265824344E+03 -0.22493487141E+03  0.60895866315E+03  0.00000000000E+00 0. -1.
          3    1    5    5  503    0 -0.38731996070E+02  0.26814749616E+02 -0.70818420266E+00  0.47113690594E+02  0.00000000000E+00 0. -1.
         -4    1    5    5    0  503 -0.17664746396E+03  0.25380735362E+02 -0.14112322738E+03  0.22751763350E+03  0.00000000000E+00 0.  1.
         -3    1    6    6    0  502  0.23019669371E+03 -0.34288420031E+03 -0.90224347460E+02  0.42272984930E+03  0.00000000000E+00 0.  1.
<mgrwt>
<rscale>  0 0.21536429E+04</rscale>
<asrwt>0</asrwt>
<pdfrwt beam="1">  1        2 0.30704116E+00 0.21536429E+04</pdfrwt>
<pdfrwt beam="2">  1       -2 0.89384884E-01 0.21536429E+04</pdfrwt>
<totfact> 0.66169696E+00</totfact>
</mgrwt>
</event>
<event>
12    1  0.1960998E-007  0.3903348E+04  0.7818608E-02  0.8024333E-01
          2   -1    0    0  501    0  0.00000000000E+00  0.00000000000E+00  0.18274919616E+04  0.18274919616E+04  0.00000000000E+00 0. -1.
         -2   -1    0    0    0  501 -0.00000000000E+00 -0.00000000000E+00 -0.20842943157E+04  0.20842943157E+04  0.00000000000E+00 0.  1.
         23    2    1    2    0    0  0.17973947695E+04  0.78526130750E+02  0.29563982167E+03  0.18254395772E+04  0.89623854081E+02 0.  0.
        254    2    1    2    0    0 -0.17973947695E+04 -0.78526130750E+02 -0.55244217579E+03  0.20863467001E+04  0.90047536598E+03 0.  0.
        -24    2    4    4    0    0 -0.65887520041E+03  0.25116467955E+03  0.12223620708E+03  0.72016076745E+03  0.80558144782E+02 0.  0.
         24    2    4    4    0    0 -0.11385195691E+04 -0.32969081030E+03 -0.67467838286E+03  0.13661859327E+04  0.79688409647E+02 0.  0.
         13    1    3    3    0    0  0.20525843368E+03 -0.17031102863E+02  0.21998575672E+02  0.20713527076E+03  0.00000000000E+00 0. -1.
        -13    1    3    3    0    0  0.15921363358E+04  0.95557233613E+02  0.27364124600E+03  0.16183043065E+04  0.00000000000E+00 0.  1.
          4    1    6    6  502    0 -0.86495085624E+03 -0.25908351318E+03 -0.47523331482E+03  0.10203484474E+04  0.00000000000E+00 0. -1.
          3    1    5    5  503    0 -0.70492001638E+02  0.37215358709E+02 -0.98065812131E+01  0.80313599433E+02  0.00000000000E+00 0. -1.
         -4    1    5    5    0  503 -0.58838319877E+03  0.21394932084E+03  0.13204278829E+03  0.63984716802E+03  0.00000000000E+00 0.  1.
         -3    1    6    6    0  502 -0.27356871287E+03 -0.70607297122E+02 -0.19944506804E+03  0.34583748529E+03  0.00000000000E+00 0.  1.
<mgrwt>
<rscale>  0 0.39033478E+04</rscale>
<asrwt>0</asrwt>
<pdfrwt beam="1">  1        2 0.28115261E+00 0.39033478E+04</pdfrwt>
<pdfrwt beam="2">  1       -2 0.32066066E+00 0.39033478E+04</pdfrwt>
<totfact> 0.15709438E-01</totfact>
</mgrwt>
</event>
<event>
12    1  0.1960998E-007  0.1685799E+04  0.7818608E-02  0.8769506E-01
          2   -1    0    0  501    0  0.00000000000E+00  0.00000000000E+00  0.84522819981E+03  0.84522819981E+03  0.00000000000E+00 0. -1.
         -2   -1    0    0    0  501 -0.00000000000E+00 -0.00000000000E+00 -0.84057694038E+03  0.84057694038E+03  0.00000000000E+00 0.  1.
         23    2    1    2    0    0 -0.13587386089E+03  0.21160276354E+03  0.54421045221E+03  0.60650910996E+03  0.91928496995E+02 0.  0.
        254    2    1    2    0    0  0.13587386089E+03 -0.21160276354E+03 -0.53955919279E+03  0.10792960302E+04  0.90028793323E+03 0.  0.
        -24    2    4    4    0    0  0.50650911335E+03 -0.20598860319E+03 -0.27437851694E+03  0.61673800856E+03  0.78098745806E+02 0.  0.
         24    2    4    4    0    0 -0.37063525246E+03 -0.56141603502E+01 -0.26518067585E+03  0.46255802166E+03  0.78975460720E+02 0.  0.
         13    1    3    3    0    0 -0.58625960095E+02  0.12014318134E+03  0.38333901936E+03  0.40598053030E+03  0.00000000000E+00 0. -1.
        -13    1    3    3    0    0 -0.77247900798E+02  0.91459582195E+02  0.16087143285E+03  0.20052857966E+03  0.00000000000E+00 0.  1.
          4    1    6    6  502    0 -0.15482729239E+03 -0.41141925052E+02 -0.11694612649E+03  0.19834451081E+03  0.00000000000E+00 0. -1.
          1    1    5    5  503    0  0.27712594117E+03 -0.82436662869E+02 -0.17452072097E+03  0.33771596454E+03  0.00000000000E+00 0. -1.
         -2    1    5    5    0  503  0.22938317218E+03 -0.12355194032E+03 -0.99857795963E+02  0.27902204402E+03  0.00000000000E+00 0.  1.
         -3    1    6    6    0  502 -0.21580796007E+03  0.35527764701E+02 -0.14823454936E+03  0.26421351085E+03  0.00000000000E+00 0.  1.
<mgrwt>
<rscale>  0 0.16857987E+04</rscale>
<asrwt>0</asrwt>
<pdfrwt beam="1">  1        2 0.13003511E+00 0.16857987E+04</pdfrwt>
<pdfrwt beam="2">  1       -2 0.12931953E+00 0.16857987E+04</pdfrwt>
<totfact> 0.13407558E+01</totfact>
</mgrwt>
</event>
<event>
12    1  0.1960998E-007  0.1622767E+04  0.7818608E-02  0.8806682E-01
         -2   -1    0    0    0  501 -0.00000000000E+00  0.00000000000E+00  0.20967961916E+03  0.20967961916E+03  0.00000000000E+00 0.  1.
          2   -1    0    0  501    0  0.00000000000E+00 -0.00000000000E+00 -0.31397575743E+04  0.31397575743E+04  0.00000000000E+00 0. -1.
         23    2    1    2    0    0 -0.27313190062E+03 -0.47834507696E+03 -0.85060974382E+03  0.10174405169E+04  0.90737099910E+02 0.  0.
        254    2    1    2    0    0  0.27313190062E+03  0.47834507696E+03 -0.20794682113E+04  0.23319966766E+04  0.90033627605E+03 0.  0.
        -24    2    4    4    0    0  0.47459953625E+03  0.57999807713E+03 -0.11698404761E+04  0.13916215481E+04  0.80257736208E+02 0.  0.
         24    2    4    4    0    0 -0.20146763563E+03 -0.10165300017E+03 -0.90962773514E+03  0.94037512847E+03  0.77202493809E+02 0.  0.
         11    1    3    3    0    0 -0.40547780851E+02 -0.14083138880E+03 -0.18922984060E+03  0.23934396833E+03  0.00000000000E+00 0.  1.
        -11    1    3    3    0    0 -0.23258411977E+03 -0.33751368816E+03 -0.66137990322E+03  0.77809654854E+03  0.00000000000E+00 0. -1.
          2    1    6    6  502    0 -0.26949852145E+02 -0.40366870007E+02 -0.27864425378E+03  0.28283988207E+03  0.00000000000E+00 0. -1.
          3    1    5    5  503    0  0.35412520115E+02  0.48467490160E+02 -0.58846408391E+02  0.84059764238E+02  0.00000000000E+00 0. -1.
         -4    1    5    5    0  503  0.43918701614E+03  0.53153058697E+03 -0.11109940678E+04  0.13075617839E+04  0.00000000000E+00 0.  1.
         -1    1    6    6    0  502 -0.17451778349E+03 -0.61286130163E+02 -0.63098348136E+03  0.65753524640E+03  0.00000000000E+00 0.  1.
<mgrwt>
<rscale>  0 0.16227670E+04</rscale>
<asrwt>0</asrwt>
<pdfrwt beam="1">  1        2 0.48303960E+00 0.16227670E+04</pdfrwt>
<pdfrwt beam="2">  1       -2 0.32258404E-01 0.16227670E+04</pdfrwt>
<totfact> 0.12239023E+01</totfact>
</mgrwt>
</event>
<event>
12    1  0.1960998E-007  0.1242295E+04  0.7818608E-02  0.9076620E-01
          2   -1    0    0  501    0  0.00000000000E+00  0.00000000000E+00  0.10671614197E+04  0.10671614197E+04  0.00000000000E+00 0. -1.
         -2   -1    0    0    0  501 -0.00000000000E+00 -0.00000000000E+00 -0.36154271773E+03  0.36154271773E+03  0.00000000000E+00 0.  1.
         23    2    1    2    0    0 -0.11701630941E+03  0.21182485584E+03 -0.17654392816E+01  0.25842617099E+03  0.90655296890E+02 0.  0.
        254    2    1    2    0    0  0.11701630941E+03 -0.21182485584E+03  0.70738414123E+03  0.11702779664E+04  0.90033083319E+03 0.  0.
        -24    2    4    4    0    0  0.12226405934E+03 -0.91531908490E+02  0.90906781043E+03  0.92514254249E+03  0.78471966224E+02 0.  0.
         24    2    4    4    0    0 -0.52477499312E+01 -0.12029294735E+03 -0.20168366921E+03  0.24513542392E+03  0.70122332918E+02 0.  0.
         11    1    3    3    0    0 -0.66052389742E+02  0.15665163731E+03  0.36873951081E+02  0.17396074824E+03  0.00000000000E+00 0. -1.
        -11    1    3    3    0    0 -0.50963919667E+02  0.55173218540E+02 -0.38639390363E+02  0.84465422745E+02  0.00000000000E+00 0.  1.
          4    1    6    6  502    0 -0.15219971305E+02 -0.37361620654E+01 -0.52891748449E+01  0.16540308462E+02  0.00000000000E+00 0. -1.
          3    1    5    5  503    0 -0.10872706201E+02 -0.17647108811E+01  0.67516599242E+02  0.68409218076E+02  0.00000000000E+00 0. -1.
         -4    1    5    5    0  503  0.13313676554E+03 -0.89767197609E+02  0.84155121119E+03  0.85673332441E+03  0.00000000000E+00 0.  1.
         -3    1    6    6    0  502  0.99722213734E+01 -0.11655678529E+03 -0.19639449436E+03  0.22859511546E+03  0.00000000000E+00 0.  1.
<mgrwt>
<rscale>  0 0.12422954E+04</rscale>
<asrwt>0</asrwt>
<pdfrwt beam="1">  1        2 0.16417868E+00 0.12422954E+04</pdfrwt>
<pdfrwt beam="2">  1       -2 0.55621957E-01 0.12422954E+04</pdfrwt>
<totfact> 0.68237441E+01</totfact>
</mgrwt>
</event>
<event>
12    1  0.1960998E-007  0.4178102E+04  0.7818608E-02  0.7969551E-01
          2   -1    0    0  501    0  0.00000000000E+00  0.00000000000E+00  0.36347150233E+04  0.36347150233E+04  0.00000000000E+00 0. -1.
         -2   -1    0    0    0  501 -0.00000000000E+00 -0.00000000000E+00 -0.12006812855E+04  0.12006812855E+04  0.00000000000E+00 0.  1.
         23    2    1    2    0    0  0.19913679946E+03 -0.15668179290E+04 -0.23206332310E+03  0.15989010862E+04  0.89763077221E+02 0.  0.
        254    2    1    2    0    0 -0.19913679946E+03  0.15668179290E+04  0.26660970609E+04  0.32364952225E+04  0.93394534083E+03 0.  0.
        -24    2    4    4    0    0 -0.11979432672E+03  0.14374318106E+04  0.26988395973E+04  0.30611298533E+04  0.78866446293E+02 0.  0.
         24    2    4    4    0    0 -0.79342472735E+02  0.12938611843E+03 -0.32742536391E+02  0.17536536917E+03  0.81516522214E+02 0.  0.
         11    1    3    3    0    0  0.10984182474E+03 -0.10999510561E+04 -0.13342726312E+03  0.11134452779E+04  0.00000000000E+00 0. -1.
        -11    1    3    3    0    0  0.89294974717E+02 -0.46686687287E+03 -0.98636059974E+02  0.48545580831E+03  0.00000000000E+00 0.  1.
          2    1    6    6  502    0 -0.32348080379E+01  0.17737799613E+02  0.22976831540E+02  0.29206648315E+02  0.00000000000E+00 0. -1.
          3    1    5    5  503    0 -0.27037682845E+02  0.77838865189E+03  0.14316700796E+04  0.16298156787E+04  0.00000000000E+00 0. -1.
         -4    1    5    5    0  503 -0.92756643879E+02  0.65904315868E+03  0.12671695177E+04  0.14313141746E+04  0.00000000000E+00 0.  1.
         -1    1    6    6    0  502 -0.76107664697E+02  0.11164831881E+03 -0.55719367931E+02  0.14615872086E+03  0.00000000000E+00 0.  1.
<mgrwt>
<rscale>  0 0.41781021E+04</rscale>
<asrwt>0</asrwt>
<pdfrwt beam="1">  1        2 0.55918692E+00 0.41781021E+04</pdfrwt>
<pdfrwt beam="2">  1       -2 0.18472020E+00 0.41781021E+04</pdfrwt>
<totfact> 0.85082835E-02</totfact>
</mgrwt>
</event>
<event>
12    1  0.1960998E-007  0.1963332E+04  0.7818608E-02  0.8623959E-01
          2   -1    0    0  501    0  0.00000000000E+00  0.00000000000E+00  0.21593509185E+04  0.21593509185E+04  0.00000000000E+00 0. -1.
         -2   -1    0    0    0  501 -0.00000000000E+00 -0.00000000000E+00 -0.44627678535E+03  0.44627678535E+03  0.00000000000E+00 0.  1.
         23    2    1    2    0    0  0.43583040247E+03  0.46876231287E+03  0.10521607958E+03  0.65536540334E+03  0.93526161090E+02 0.  0.
        254    2    1    2    0    0 -0.43583040247E+03 -0.46876231287E+03  0.16078580536E+04  0.19502623005E+04  0.89923816352E+03 0.  0.
        -24    2    4    4    0    0 -0.45782145552E+03 -0.51699899433E+03  0.16872993477E+04  0.18249076265E+04  0.80126846051E+02 0.  0.
         24    2    4    4    0    0  0.21991053057E+02  0.48236681465E+02 -0.79441294082E+02  0.12535467400E+03  0.81194157645E+02 0.  0.
         11    1    3    3    0    0  0.17283049365E+03  0.24426438317E+03  0.24111187633E+02  0.30019463318E+03  0.00000000000E+00 0.  1.
        -11    1    3    3    0    0  0.26299990882E+03  0.22449792970E+03  0.81104891947E+02  0.35517077016E+03  0.00000000000E+00 0. -1.
          4    1    6    6  502    0 -0.71647580186E+01  0.42540273957E+02 -0.84824220358E+02  0.95163843056E+02  0.00000000000E+00 0. -1.
          3    1    5    5  503    0 -0.29936303634E+02 -0.49618309128E+02  0.20052527082E+03  0.20873079101E+03  0.00000000000E+00 0. -1.
         -4    1    5    5    0  503 -0.42788515189E+03 -0.46738068521E+03  0.14867740768E+04  0.16161768355E+04  0.00000000000E+00 0.  1.
         -3    1    6    6    0  502  0.29155811076E+02  0.56964075071E+01  0.53829262759E+01  0.30190830947E+02  0.00000000000E+00 0.  1.
<mgrwt>
<rscale>  0 0.19633321E+04</rscale>
<asrwt>0</asrwt>
<pdfrwt beam="1">  1        2 0.33220783E+00 0.19633321E+04</pdfrwt>
<pdfrwt beam="2">  1       -2 0.68657968E-01 0.19633321E+04</pdfrwt>
<totfact> 0.98347911E+00</totfact>
</mgrwt>
</event>
<event>
12    1  0.1960998E-007  0.1124593E+04  0.7818608E-02  0.9181548E-01
         -2   -1    0    0    0  501 -0.00000000000E+00  0.00000000000E+00  0.97786824688E+02  0.97786824688E+02  0.00000000000E+00 0.  1.
          2   -1    0    0  501    0  0.00000000000E+00 -0.00000000000E+00 -0.32333348968E+04  0.32333348968E+04  0.00000000000E+00 0. -1.
         23    2    1    2    0    0 -0.32221300853E+02  0.18060291881E+03 -0.53619760952E+03  0.57401691140E+03  0.91279305463E+02 0.  0.
        254    2    1    2    0    0  0.32221300853E+02 -0.18060291881E+03 -0.25993504626E+04  0.27571048101E+04  0.90074884397E+03 0.  0.
        -24    2    4    4    0    0  0.43884586653E+03  0.29028504906E+02 -0.10881131331E+04  0.11761470597E+04  0.76833369950E+02 0.  0.
         24    2    4    4    0    0 -0.40662456567E+03 -0.20963142371E+03 -0.15112373294E+04  0.15809577504E+04  0.79374249817E+02 0.  0.
         11    1    3    3    0    0 -0.55808918223E+02  0.11120954762E+03 -0.40562529061E+03  0.42428065619E+03  0.00000000000E+00 0. -1.
        -11    1    3    3    0    0  0.23587617370E+02  0.69393371191E+02 -0.13057231891E+03  0.14973625521E+03  0.00000000000E+00 0.  1.
          2    1    6    6  502    0 -0.36835955127E+03 -0.16348829400E+03 -0.13530298234E+04  0.14117743745E+04  0.00000000000E+00 0. -1.
          1    1    5    5  503    0  0.38443744087E+03  0.44245197462E+02 -0.98979050063E+03  0.10627488031E+04  0.00000000000E+00 0. -1.
         -2    1    5    5    0  503  0.54408425654E+02 -0.15216692555E+02 -0.98322632516E+02  0.11339825651E+03  0.00000000000E+00 0.  1.
         -1    1    6    6    0  502 -0.38265014408E+02 -0.46143129712E+02 -0.15820750598E+03  0.16918337594E+03  0.00000000000E+00 0.  1.
<mgrwt>
<rscale>  0 0.11245934E+04</rscale>
<asrwt>0</asrwt>
<pdfrwt beam="1">  1        2 0.49743616E+00 0.11245934E+04</pdfrwt>
<pdfrwt beam="2">  1       -2 0.15044126E-01 0.11245934E+04</pdfrwt>
<totfact> 0.43715581E+01</totfact>
</mgrwt>
</event>
<event>
12    1  0.1960998E-007  0.2242948E+04  0.7818608E-02  0.8500762E-01
          1   -1    0    0  501    0  0.00000000000E+00  0.00000000000E+00  0.26024986694E+04  0.26024986694E+04  0.00000000000E+00 0. -1.
         -1   -1    0    0    0  501 -0.00000000000E+00 -0.00000000000E+00 -0.48326768645E+03  0.48326768645E+03  0.00000000000E+00 0.  1.
         23    2    1    2    0    0  0.68359266226E+02 -0.88577535288E+03  0.13061334063E+04  0.15823760850E+04  0.93051783128E+02 0.  0.
        254    2    1    2    0    0 -0.68359266226E+02  0.88577535288E+03  0.81309757673E+03  0.15033902709E+04  0.89987980993E+03 0.  0.
        -24    2    4    4    0    0 -0.10059124977E+03  0.45313697062E+03 -0.10702041772E+03  0.48311161958E+03  0.80571418576E+02 0.  0.
         24    2    4    4    0    0  0.32231983546E+02  0.43263838226E+03  0.92011799445E+03  0.10202786513E+04  0.78336020273E+02 0.  0.
         11    1    3    3    0    0  0.75058779056E+02 -0.37625670572E+03  0.56806533049E+03  0.68549336147E+03  0.00000000000E+00 0. -1.
        -11    1    3    3    0    0 -0.66995128307E+01 -0.50951864716E+03  0.73806807578E+03  0.89688272353E+03  0.00000000000E+00 0.  1.
          4    1    6    6  502    0  0.33251183408E+02  0.35426943811E+03  0.81383234441E+03  0.88822044606E+03  0.00000000000E+00 0. -1.
          3    1    5    5  503    0 -0.10812155360E+03  0.43423427707E+03 -0.89708272896E+02  0.45639593771E+03  0.00000000000E+00 0. -1.
         -4    1    5    5    0  503  0.75303038309E+01  0.18902693553E+02 -0.17312144823E+02  0.26715681869E+02  0.00000000000E+00 0.  1.
         -3    1    6    6    0  502 -0.10191998623E+01  0.78368944150E+02  0.10628565004E+03  0.13205820527E+03  0.00000000000E+00 0.  1.
<mgrwt>
<rscale>  0 0.22429476E+04</rscale>
<asrwt>0</asrwt>
<pdfrwt beam="1">  1        1 0.40038440E+00 0.22429476E+04</pdfrwt>
<pdfrwt beam="2">  1       -1 0.74348877E-01 0.22429476E+04</pdfrwt>
<totfact> 0.19008175E+00</totfact>
</mgrwt>
</event>
<event>
12    1  0.2076342E-007  0.2248802E+04  0.7818608E-02  0.8498386E-01
          2   -1    0    0  501    0  0.00000000000E+00  0.00000000000E+00  0.16887617626E+04  0.16887617626E+04  0.00000000000E+00 0. -1.
         -2   -1    0    0    0  501 -0.00000000000E+00 -0.00000000000E+00 -0.74864147077E+03  0.74864147077E+03  0.00000000000E+00 0.  1.
         23    2    1    2    0    0 -0.73067883701E+03 -0.58732128379E+03  0.29969384860E+03  0.98824223606E+03  0.89266236532E+02 0.  0.
        254    2    1    2    0    0  0.73067883701E+03  0.58732128379E+03  0.64042644321E+03  0.14491609973E+04  0.90060186189E+03 0.  0.
        -24    2    4    4    0    0  0.25785665611E+03 -0.11135083844E+03 -0.11540457514E+03  0.31383566938E+03  0.79281442264E+02 0.  0.
         24    2    4    4    0    0  0.47282218090E+03  0.69867212223E+03  0.75583101835E+03  0.11353253279E+04  0.77327373896E+02 0.  0.
         11    1    3    3    0    0 -0.38357936674E+03 -0.27602575186E+03  0.18952828392E+03  0.50916040369E+03  0.00000000000E+00 0.  1.
        -11    1    3    3    0    0 -0.34709947027E+03 -0.31129553193E+03  0.11016556468E+03  0.47908183237E+03  0.00000000000E+00 0. -1.
          2    1    6    6  502    0  0.15363218422E+03  0.16631619541E+03  0.19759135710E+03  0.30051001528E+03  0.00000000000E+00 0. -1.
          1    1    5    5  503    0  0.15414448460E+02  0.45757367080E+01 -0.26095295521E+02  0.30651379024E+02  0.00000000000E+00 0. -1.
         -2    1    5    5    0  503  0.24244220765E+03 -0.11592657515E+03 -0.89309279620E+02  0.28318429035E+03  0.00000000000E+00 0.  1.
         -1    1    6    6    0  502  0.31918999668E+03  0.53235592682E+03  0.55823966125E+03  0.83481531263E+03  0.00000000000E+00 0.  1.
<mgrwt>
<rscale>  0 0.22488015E+04</rscale>
<asrwt>0</asrwt>
<pdfrwt beam="1">  1        2 0.25980950E+00 0.22488015E+04</pdfrwt>
<pdfrwt beam="2">  1       -2 0.11517561E+00 0.22488015E+04</pdfrwt>
<totfact> 0.53216015E+00</totfact>
</mgrwt>
</event>
<event>
12    1  0.1960998E-007  0.1845692E+04  0.7818608E-02  0.8682371E-01
          1   -1    0    0  501    0  0.00000000000E+00  0.00000000000E+00  0.69845778789E+03  0.69845778789E+03  0.00000000000E+00 0. -1.
         -1   -1    0    0    0  501 -0.00000000000E+00 -0.00000000000E+00 -0.12193218548E+04  0.12193218548E+04  0.00000000000E+00 0.  1.
         23    2    1    2    0    0 -0.30359999640E+03 -0.54715853408E+03  0.12631527204E+03  0.64453064892E+03  0.88931379202E+02 0.  0.
        254    2    1    2    0    0  0.30359999640E+03  0.54715853408E+03 -0.64717933891E+03  0.12732489937E+04  0.90042572380E+03 0.  0.
        -24    2    4    4    0    0  0.39654836716E+03  0.40190396683E+03 -0.83198766799E+03  0.10089070520E+04  0.83141769997E+02 0.  0.
         24    2    4    4    0    0 -0.92948370753E+02  0.14525456725E+03  0.18480832908E+03  0.26434194169E+03  0.77357964726E+02 0.  0.
         13    1    3    3    0    0 -0.25135462425E+03 -0.43991397002E+03  0.13672700522E+03  0.52478350022E+03  0.00000000000E+00 0. -1.
        -13    1    3    3    0    0 -0.52245372155E+02 -0.10724456406E+03 -0.10411733178E+02  0.11974714870E+03  0.00000000000E+00 0.  1.
          4    1    6    6  502    0 -0.26985033198E+02  0.10916803628E+03  0.12601502341E+03  0.16889534714E+03  0.00000000000E+00 0. -1.
          1    1    5    5  503    0  0.19982805322E+03  0.20585905679E+03 -0.49597152386E+03  0.57297203649E+03  0.00000000000E+00 0. -1.
         -2    1    5    5    0  503  0.19672031394E+03  0.19604491004E+03 -0.33601614413E+03  0.43593501555E+03  0.00000000000E+00 0.  1.
         -3    1    6    6    0  502 -0.65963337555E+02  0.36086530969E+02  0.58793305671E+02  0.95446594546E+02  0.00000000000E+00 0.  1.
<mgrwt>
<rscale>  0 0.18456921E+04</rscale>
<asrwt>0</asrwt>
<pdfrwt beam="1">  1        1 0.10745504E+00 0.18456921E+04</pdfrwt>
<pdfrwt beam="2">  1       -1 0.18758798E+00 0.18456921E+04</pdfrwt>
<totfact> 0.47206474E+00</totfact>
</mgrwt>
</event>
<event>
12    1  0.1960998E-007  0.1385144E+04  0.7818608E-02  0.8964643E-01
          2   -1    0    0  501    0  0.00000000000E+00  0.00000000000E+00  0.31902752443E+04  0.31902752443E+04  0.00000000000E+00 0. -1.
         -2   -1    0    0    0  501 -0.00000000000E+00 -0.00000000000E+00 -0.15034935650E+03  0.15034935650E+03  0.00000000000E+00 0.  1.
         23    2    1    2    0    0 -0.30013074409E+03  0.14790118976E+03  0.38787123760E+03  0.52027418802E+03  0.91037949692E+02 0.  0.
        254    2    1    2    0    0  0.30013074409E+03 -0.14790118976E+03  0.26520546502E+04  0.28203504128E+04  0.89946059263E+03 0.  0.
        -24    2    4    4    0    0  0.36669639822E+02 -0.50268463754E+03  0.14358603737E+04  0.15238788133E+04  0.80468115589E+02 0.  0.
         24    2    4    4    0    0  0.26346110427E+03  0.35478344778E+03  0.12161942765E+04  0.12964715994E+04  0.80168832538E+02 0.  0.
         11    1    3    3    0    0  0.63905261297E+01  0.34621726335E+01  0.13462177996E+02  0.15298879043E+02  0.00000000000E+00 0.  1.
        -11    1    3    3    0    0 -0.30652127022E+03  0.14443901713E+03  0.37440905961E+03  0.50497530898E+03  0.00000000000E+00 0. -1.
          2    1    6    6  502    0  0.11452526797E+03  0.21030417193E+03  0.58789216231E+03  0.63479215200E+03  0.00000000000E+00 0. -1.
          1    1    5    5  503    0 -0.20736518112E+02 -0.78543306318E+02  0.26894464706E+03  0.28094532802E+03  0.00000000000E+00 0. -1.
         -4    1    5    5    0  503  0.57406157934E+02 -0.42414133122E+03  0.11669157266E+04  0.12429334853E+04  0.00000000000E+00 0.  1.
         -3    1    6    6    0  502  0.14893583630E+03  0.14447927585E+03  0.62830211419E+03  0.66167944745E+03  0.00000000000E+00 0.  1.
<mgrwt>
<rscale>  0 0.13851438E+04</rscale>
<asrwt>0</asrwt>
<pdfrwt beam="1">  1        2 0.49081153E+00 0.13851438E+04</pdfrwt>
<pdfrwt beam="2">  1       -2 0.23130673E-01 0.13851438E+04</pdfrwt>
<totfact> 0.21425243E+01</totfact>
</mgrwt>
</event>
<event>
12    1  0.1960998E-007  0.1414900E+04  0.7818608E-02  0.8943103E-01
          2   -1    0    0  501    0  0.00000000000E+00  0.00000000000E+00  0.44758059067E+03  0.44758059067E+03  0.00000000000E+00 0.  1.
         -2   -1    0    0    0  501 -0.00000000000E+00 -0.00000000000E+00 -0.11182015804E+04  0.11182015804E+04  0.00000000000E+00 0. -1.
         23    2    1    2    0    0  0.10064947262E+03  0.30365979839E+03 -0.50185643428E+03  0.60258535558E+03  0.94390892740E+02 0.  0.
        254    2    1    2    0    0 -0.10064947262E+03 -0.30365979839E+03 -0.16876455547E+03  0.96319681551E+03  0.89270770173E+03 0.  0.
        -24    2    4    4    0    0  0.25777384166E+03  0.34600200900E+02  0.20434403089E+03  0.34005186680E+03  0.78957341698E+02 0.  0.
         24    2    4    4    0    0 -0.35842331428E+03 -0.33825999929E+03 -0.37310858636E+03  0.62314494871E+03  0.78819480727E+02 0.  0.
         11    1    3    3    0    0  0.75403246731E+02  0.26081936577E+03 -0.47219762289E+03  0.54468613554E+03  0.00000000000E+00 0. -1.
        -11    1    3    3    0    0  0.25246225888E+02  0.42840432621E+02 -0.29658811386E+02  0.57899220043E+02  0.00000000000E+00 0.  1.
          4    1    6    6  502    0 -0.32934482231E+03 -0.32327033726E+03 -0.32296981116E+03  0.56327721582E+03  0.00000000000E+00 0. -1.
          3    1    5    5  503    0  0.21442912987E+03  0.37571621888E+01  0.13805149941E+03  0.25505329736E+03  0.00000000000E+00 0. -1.
         -4    1    5    5    0  503  0.43344711789E+02  0.30843038711E+02  0.66292531479E+02  0.84998569440E+02  0.00000000000E+00 0.  1.
         -3    1    6    6    0  502 -0.29078491968E+02 -0.14989662032E+02 -0.50138775200E+02  0.59867732891E+02  0.00000000000E+00 0.  1.
<mgrwt>
<rscale>  0 0.14148997E+04</rscale>
<asrwt>0</asrwt>
<pdfrwt beam="1">  1        2 0.68858554E-01 0.14148997E+04</pdfrwt>
<pdfrwt beam="2">  1       -2 0.17203101E+00 0.14148997E+04</pdfrwt>
<totfact> 0.14011722E+01</totfact>
</mgrwt>
</event>
<event>
12    1  0.1960998E-007  0.2620614E+04  0.7818608E-02  0.8361233E-01
          2   -1    0    0  501    0  0.00000000000E+00  0.00000000000E+00  0.13260893772E+04  0.13260893772E+04  0.00000000000E+00 0.  1.
         -2   -1    0    0    0  501 -0.00000000000E+00 -0.00000000000E+00 -0.12947125542E+04  0.12947125542E+04  0.00000000000E+00 0. -1.
         23    2    1    2    0    0  0.79969662589E+03 -0.68857422726E+03  0.47822847357E+03  0.11621039837E+04  0.90188891066E+02 0.  0.
        254    2    1    2    0    0 -0.79969662589E+03  0.68857422726E+03 -0.44685165055E+03  0.14586979477E+04  0.90248221324E+03 0.  0.
        -24    2    4    4    0    0 -0.63597365920E+03  0.78119929107E+03 -0.62473217672E+03  0.11880149748E+04  0.79714867956E+02 0.  0.
         24    2    4    4    0    0 -0.16372296669E+03 -0.92625063814E+02  0.17788052616E+03  0.27068297292E+03  0.79013783453E+02 0.  0.
         11    1    3    3    0    0  0.74584099300E+03 -0.65621254527E+03  0.42816397264E+03  0.10817661849E+04  0.00000000000E+00 0. -1.
        -11    1    3    3    0    0  0.53855632887E+02 -0.32361681994E+02  0.50064500931E+02  0.80337798754E+02  0.00000000000E+00 0.  1.
          4    1    6    6  502    0 -0.47150021075E+02 -0.34589626791E+02  0.10820128380E+03  0.12299221351E+03  0.00000000000E+00 0. -1.
          1    1    5    5  503    0 -0.57628657519E+03  0.70163704068E+03 -0.58925561854E+03  0.10824153258E+04  0.00000000000E+00 0. -1.
         -2    1    5    5    0  503 -0.59687084012E+02  0.79562250394E+02 -0.35476558174E+02  0.10559964898E+03  0.00000000000E+00 0.  1.
         -3    1    6    6    0  502 -0.11657294561E+03 -0.58035437024E+02  0.69679242365E+02  0.14769075941E+03  0.00000000000E+00 0.  1.
<mgrwt>
<rscale>  0 0.26206141E+04</rscale>
<asrwt>0</asrwt>
<pdfrwt beam="1">  1        2 0.20401375E+00 0.26206141E+04</pdfrwt>
<pdfrwt beam="2">  1       -2 0.19918655E+00 0.26206141E+04</pdfrwt>
<totfact> 0.18981568E+00</totfact>
</mgrwt>
</event>
