<event>
12    1  0.8033771E-008  0.2000359E+04  0.7818608E-02  0.8606453E-01
         -1   -1    0    0    0  501 -0.00000000000E+00  0.00000000000E+00  0.27554827495E+04  0.27554827495E+04  0.00000000000E+00 0.  1.
          1   -1    0    0  501    0  0.00000000000E+00 -0.00000000000E+00 -0.20223087196E+04  0.20223087196E+04  0.00000000000E+00 0. -1.
         23    2    1    2    0    0 -0.90864086298E+03  0.17350680871E+04  0.16222230375E+04  0.25447439762E+04  0.89581449750E+02 0.  0.
    5000000    2    1    2    0    0  0.90864086298E+03 -0.17350680871E+04 -0.88904900764E+03  0.22330474929E+04  0.60000290222E+03 0.  0.
         23    2    4    4    0    0  0.43269578056E+03 -0.32029593904E+03 -0.16276752114E+03  0.57054246464E+03  0.95970364906E+02 0.  0.
         23    2    4    4    0    0  0.47594508243E+03 -0.14147721481E+04 -0.72628148650E+03  0.16625050283E+04  0.91291942912E+02 0.  0.
          4    1    3    3  502    0 -0.49029331527E+03  0.98026572080E+03  0.85617753169E+03  0.13908085361E+04  0.00000000000E+00 0. -1.
         -4    1    3    3    0  502 -0.41834754771E+03  0.75480236634E+03  0.76604550583E+03  0.11539354401E+04  0.00000000000E+00 0.  1.
         15    1    5    5    0    0  0.24667646250E+03 -0.12304905174E+03 -0.79032583589E+02  0.28677456876E+03  0.17770000000E+01 0.  1.
        -15    1    5    5    0    0  0.18601931805E+03 -0.19724688729E+03 -0.83734937554E+02  0.28376789588E+03  0.17770000000E+01 0. -1.
          3    1    6    6  503    0  0.20633020069E+03 -0.49138410355E+03 -0.23678087043E+03  0.58317721967E+03  0.00000000000E+00 0. -1.
         -3    1    6    6    0  503  0.26961488174E+03 -0.92338804455E+03 -0.48950061607E+03  0.10793278086E+04  0.00000000000E+00 0.  1.
<mgrwt>
<rscale>  0 0.20003587E+04</rscale>
<asrwt>0</asrwt>
<pdfrwt beam="1">  1        1 0.31112442E+00 0.20003587E+04</pdfrwt>
<pdfrwt beam="2">  1       -1 0.42392042E+00 0.20003587E+04</pdfrwt>
<totfact> 0.12487305E-02</totfact>
</mgrwt>
</event>
<event>
12    1  0.8033771E-008  0.4330543E+03  0.7818608E-02  0.1032899E+00
         -2   -1    0    0    0  501 -0.00000000000E+00  0.00000000000E+00  0.11457540850E+04  0.11457540850E+04  0.00000000000E+00 0.  1.
          2   -1    0    0  501    0  0.00000000000E+00 -0.00000000000E+00 -0.32575358898E+03  0.32575358898E+03  0.00000000000E+00 0. -1.
         23    2    1    2    0    0 -0.33901628368E+03  0.83949516813E+02  0.67020168005E+03  0.76127155796E+03  0.91567084869E+02 0.  0.
    5000000    2    1    2    0    0  0.33901628368E+03 -0.83949516813E+02  0.14979881600E+03  0.71023611605E+03  0.60001341093E+03 0.  0.
         23    2    4    4    0    0  0.39274312647E+03 -0.56149921988E+02  0.31410304779E+03  0.51442639402E+03  0.92594887041E+02 0.  0.
         23    2    4    4    0    0 -0.53726842788E+02 -0.27799594825E+02 -0.16430423179E+03  0.19580972203E+03  0.87670836353E+02 0.  0.
          2    1    3    3  502    0 -0.12272676312E+03 -0.49493060030E+01  0.17702679473E+03  0.21546424313E+03  0.00000000000E+00 0. -1.
         -2    1    3    3    0  502 -0.21628952057E+03  0.88898822816E+02  0.49317488532E+03  0.54580731483E+03  0.00000000000E+00 0.  1.
         15    1    5    5    0    0  0.20070170049E+03 -0.66591481952E+02  0.19843139572E+03  0.28998926632E+03  0.17770000000E+01 0. -1.
        -15    1    5    5    0    0  0.19204142598E+03  0.10441559964E+02  0.11567165208E+03  0.22443712770E+03  0.17770000000E+01 0.  1.
          3    1    6    6  503    0 -0.39646913923E+02  0.27707562629E+02 -0.62824073231E+02  0.79287142639E+02  0.00000000000E+00 0. -1.
         -3    1    6    6    0  503 -0.14079928865E+02 -0.55507157454E+02 -0.10148015856E+03  0.11652257939E+03  0.00000000000E+00 0.  1.
<mgrwt>
<rscale>  0 0.43305435E+03</rscale>
<asrwt>0</asrwt>
<pdfrwt beam="1">  1        2 0.50115937E-01 0.43305435E+03</pdfrwt>
<pdfrwt beam="2">  1       -2 0.17626986E+00 0.43305435E+03</pdfrwt>
<totfact> 0.20230387E+01</totfact>
</mgrwt>
</event>
<event>
12    1  0.8033771E-008  0.1202308E+04  0.7818608E-02  0.9110838E-01
          1   -1    0    0  501    0  0.00000000000E+00  0.00000000000E+00  0.17674477910E+04  0.17674477910E+04  0.00000000000E+00 0. -1.
         -1   -1    0    0    0  501 -0.00000000000E+00 -0.00000000000E+00 -0.89453901653E+03  0.89453901653E+03  0.00000000000E+00 0.  1.
         23    2    1    2    0    0  0.10407224646E+04 -0.49887550973E+03  0.13245169199E+03  0.11652683325E+04  0.91251376124E+02 0.  0.
    5000000    2    1    2    0    0 -0.10407224646E+04  0.49887550973E+03  0.74045708248E+03  0.14967184750E+04  0.59992456189E+03 0.  0.
         23    2    4    4    0    0 -0.99896121876E+03  0.54157194340E+03  0.77918009869E+03  0.13809158672E+04  0.92646206588E+02 0.  0.
         23    2    4    4    0    0 -0.41761245797E+02 -0.42696433670E+02 -0.38723016209E+02  0.11580260781E+03  0.91344320527E+02 0.  0.
          3    1    3    3  502    0  0.50149459127E+03 -0.27175868682E+03  0.29355329187E+02  0.57114914364E+03  0.00000000000E+00 0. -1.
         -3    1    3    3    0  502  0.53922787329E+03 -0.22711682292E+03  0.10309636280E+03  0.59411918889E+03  0.00000000000E+00 0.  1.
         15    1    5    5    0    0 -0.10580631761E+03  0.26975477678E+02  0.69571771237E+02  0.12948375313E+03  0.17770000000E+01 0. -1.
        -15    1    5    5    0    0 -0.89315490115E+03  0.51459646572E+03  0.70960832745E+03  0.12514321141E+04  0.17770000000E+01 0.  1.
          1    1    6    6  503    0 -0.23087932452E+02 -0.71306798390E+02 -0.27626863468E+02  0.79880884488E+02  0.00000000000E+00 0. -1.
         -1    1    6    6    0  503 -0.18673313345E+02  0.28610364720E+02 -0.11096152741E+02  0.35921723321E+02  0.00000000000E+00 0.  1.
<mgrwt>
<rscale>  0 0.12023084E+04</rscale>
<asrwt>0</asrwt>
<pdfrwt beam="1">  1        1 0.27191504E+00 0.12023084E+04</pdfrwt>
<pdfrwt beam="2">  1       -1 0.13762139E+00 0.12023084E+04</pdfrwt>
<totfact> 0.18455143E+00</totfact>
</mgrwt>
</event>
<event>
12    1  0.8033771E-008  0.1123952E+04  0.7818608E-02  0.9182156E-01
          2   -1    0    0  501    0  0.00000000000E+00  0.00000000000E+00  0.42828555068E+04  0.42828555068E+04  0.00000000000E+00 0. -1.
         -2   -1    0    0    0  501 -0.00000000000E+00 -0.00000000000E+00 -0.37549383170E+03  0.37549383170E+03  0.00000000000E+00 0.  1.
         23    2    1    2    0    0  0.20768478096E+03  0.10580930727E+04  0.27934738475E+04  0.29957271787E+04  0.90505656056E+02 0.  0.
    5000000    2    1    2    0    0 -0.20768478096E+03 -0.10580930727E+04  0.11138878275E+04  0.16626221597E+04  0.60072658930E+03 0.  0.
         23    2    4    4    0    0  0.61102754927E+02 -0.74006945115E+03  0.94080387605E+03  0.12027534907E+04  0.10033786453E+03 0.  0.
         23    2    4    4    0    0 -0.26878753588E+03 -0.31802362151E+03  0.17308395147E+03  0.45986866902E+03  0.90196314799E+02 0.  0.
          2    1    3    3  502    0  0.19197718212E+03  0.95673542382E+03  0.25931483537E+04  0.27706707299E+04  0.00000000000E+00 0. -1.
         -2    1    3    3    0  502  0.15707598834E+02  0.10135764884E+03  0.20032549387E+03  0.22505644877E+03  0.00000000000E+00 0.  1.
         15    1    5    5    0    0  0.72656416107E+02 -0.59164297975E+03  0.69753022437E+03  0.91753579872E+03  0.17770000000E+01 0.  1.
        -15    1    5    5    0    0 -0.11553661179E+02 -0.14842647140E+03  0.24327365169E+03  0.28521769200E+03  0.17770000000E+01 0. -1.
          3    1    6    6  503    0 -0.82710366230E+02 -0.45024898329E+02  0.54765531246E+02  0.10893809969E+03  0.00000000000E+00 0. -1.
         -3    1    6    6    0  503 -0.18607716965E+03 -0.27299872318E+03  0.11831842023E+03  0.35093056933E+03  0.00000000000E+00 0.  1.
<mgrwt>
<rscale>  0 0.11239523E+04</rscale>
<asrwt>0</asrwt>
<pdfrwt beam="1">  1        2 0.65890081E+00 0.11239523E+04</pdfrwt>
<pdfrwt beam="2">  1       -2 0.57768285E-01 0.11239523E+04</pdfrwt>
<totfact> 0.57454795E-01</totfact>
</mgrwt>
</event>
<event>
12    1  0.8033771E-008  0.8062901E+03  0.7818608E-02  0.9550957E-01
         -2   -1    0    0    0  501 -0.00000000000E+00  0.00000000000E+00  0.52855405958E+03  0.52855405958E+03  0.00000000000E+00 0.  1.
          2   -1    0    0  501    0  0.00000000000E+00 -0.00000000000E+00 -0.13142470942E+04  0.13142470942E+04  0.00000000000E+00 0. -1.
         23    2    1    2    0    0  0.40129848062E+03  0.60048854241E+03 -0.33691028198E+03  0.80214691557E+03  0.91127251325E+02 0.  0.
    5000000    2    1    2    0    0 -0.40129848062E+03 -0.60048854241E+03 -0.44878275267E+03  0.10406542382E+04  0.59994026731E+03 0.  0.
         23    2    4    4    0    0  0.11619030092E+03 -0.14660987118E+03  0.90247367519E+01  0.20880577175E+03  0.92324233480E+02 0.  0.
         23    2    4    4    0    0 -0.51748878154E+03 -0.45387867123E+03 -0.45780748942E+03  0.83184846649E+03  0.92648187278E+02 0.  0.
          3    1    3    3  502    0  0.65966705978E+02  0.97809433065E+02 -0.94167743330E+02  0.15094984391E+03  0.00000000000E+00 0. -1.
         -3    1    3    3    0  502  0.33533177464E+03  0.50267910935E+03 -0.24274253865E+03  0.65119707165E+03  0.00000000000E+00 0.  1.
         15    1    5    5    0    0  0.15311892837E+02 -0.79129865057E+02  0.29235008205E+02  0.85754492827E+02  0.17770000000E+01 0.  1.
        -15    1    5    5    0    0  0.10087840808E+03 -0.67480006119E+02 -0.20210271453E+02  0.12305127892E+03  0.17770000000E+01 0. -1.
          1    1    6    6  503    0 -0.29711328785E+03 -0.25789054951E+03 -0.31594751202E+03  0.50458564357E+03  0.00000000000E+00 0. -1.
         -1    1    6    6    0  503 -0.22037549369E+03 -0.19598812172E+03 -0.14185997740E+03  0.32726282292E+03  0.00000000000E+00 0.  1.
<mgrwt>
<rscale>  0 0.80629008E+03</rscale>
<asrwt>0</asrwt>
<pdfrwt beam="1">  1        2 0.20219186E+00 0.80629008E+03</pdfrwt>
<pdfrwt beam="2">  1       -2 0.81316010E-01 0.80629008E+03</pdfrwt>
<totfact> 0.21920591E+01</totfact>
</mgrwt>
</event>
<event>
12    1  0.8033771E-008  0.9217436E+03  0.7818608E-02  0.9398802E-01
         -2   -1    0    0    0  501 -0.00000000000E+00  0.00000000000E+00  0.24020193708E+03  0.24020193708E+03  0.00000000000E+00 0. -1.
          2   -1    0    0  501    0  0.00000000000E+00 -0.00000000000E+00 -0.43529424315E+04  0.43529424315E+04  0.00000000000E+00 0.  1.
         23    2    1    2    0    0  0.62066444628E+03 -0.60300711292E+03 -0.26600685329E+04  0.27989437620E+04  0.96330939463E+02 0.  0.
    5000000    2    1    2    0    0 -0.62066444628E+03  0.60300711292E+03 -0.14526719616E+04  0.17942006066E+04  0.60004837790E+03 0.  0.
         23    2    4    4    0    0 -0.45431345399E+03  0.64835858067E+03 -0.13639553853E+04  0.15797536356E+04  0.92074384965E+02 0.  0.
         23    2    4    4    0    0 -0.16635099230E+03 -0.45351467757E+02 -0.88716576237E+02  0.21444697105E+03  0.91583100123E+02 0.  0.
          1    1    3    3  502    0  0.44126049913E+03 -0.46727970786E+03 -0.18633670602E+04  0.19710905496E+04  0.00000000000E+00 0. -1.
         -1    1    3    3    0  502  0.17940394715E+03 -0.13572740506E+03 -0.79670147267E+03  0.82785321240E+03  0.00000000000E+00 0.  1.
         15    1    5    5    0    0 -0.28144150447E+03  0.33474231016E+03 -0.70024576336E+03  0.82559616126E+03  0.17770000000E+01 0.  1.
        -15    1    5    5    0    0 -0.17287194952E+03  0.31361627052E+03 -0.66370962196E+03  0.75415747432E+03  0.17770000000E+01 0. -1.
          2    1    6    6  503    0 -0.90708802256E+02 -0.51808087945E+02 -0.97643186833E+01  0.10491666551E+03  0.00000000000E+00 0. -1.
         -2    1    6    6    0  503 -0.75642190040E+02  0.64566201876E+01 -0.78952257553E+02  0.10953030554E+03  0.00000000000E+00 0.  1.
<mgrwt>
<rscale>  0 0.92174362E+03</rscale>
<asrwt>0</asrwt>
<pdfrwt beam="1">  1        2 0.66968343E+00 0.92174362E+03</pdfrwt>
<pdfrwt beam="2">  1       -2 0.36954145E-01 0.92174362E+03</pdfrwt>
<totfact> 0.12717349E+00</totfact>
</mgrwt>
</event>
<event>
12    1  0.8033771E-008  0.8268608E+03  0.7818608E-02  0.9521931E-01
         -2   -1    0    0    0  501 -0.00000000000E+00  0.00000000000E+00  0.16585572634E+04  0.16585572634E+04  0.00000000000E+00 0.  1.
          2   -1    0    0  501    0  0.00000000000E+00 -0.00000000000E+00 -0.67226506424E+03  0.67226506424E+03  0.00000000000E+00 0. -1.
         23    2    1    2    0    0 -0.10649631321E+03  0.71406897054E+03  0.11672973327E+04  0.13755810289E+04  0.91674122646E+02 0.  0.
    5000000    2    1    2    0    0  0.10649631321E+03 -0.71406897054E+03 -0.18100513352E+03  0.95524129875E+03  0.59873794022E+03 0.  0.
         23    2    4    4    0    0  0.22929037439E+03 -0.73899914630E+03 -0.18345791992E+03  0.80037224692E+03  0.90802594901E+02 0.  0.
         23    2    4    4    0    0 -0.12279406117E+03  0.24930175767E+02  0.24527863960E+01  0.15486905183E+03  0.90986328253E+02 0.  0.
          1    1    3    3  502    0 -0.60513100027E+02  0.19618415940E+03  0.28047470830E+03  0.34758613561E+03  0.00000000000E+00 0. -1.
         -1    1    3    3    0  502 -0.45983213185E+02  0.51788481113E+03  0.88682262439E+03  0.10279948933E+04  0.00000000000E+00 0.  1.
         15    1    5    5    0    0  0.71596850692E+02 -0.18612302432E+03 -0.92945094489E+01  0.19964326897E+03  0.17770000000E+01 0.  1.
        -15    1    5    5    0    0  0.15769352369E+03 -0.55287612198E+03 -0.17416341047E+03  0.60072897795E+03  0.17770000000E+01 0. -1.
          3    1    6    6  503    0 -0.99879858789E+02 -0.21676084468E+02 -0.53834663380E+01  0.10234657073E+03  0.00000000000E+00 0. -1.
         -3    1    6    6    0  503 -0.22914202385E+02  0.46606260234E+02  0.78362527340E+01  0.52522481100E+02  0.00000000000E+00 0.  1.
<mgrwt>
<rscale>  0 0.82686076E+03</rscale>
<asrwt>0</asrwt>
<pdfrwt beam="1">  1        2 0.10342540E+00 0.82686076E+03</pdfrwt>
<pdfrwt beam="2">  1       -2 0.25516265E+00 0.82686076E+03</pdfrwt>
<totfact> 0.26281871E+00</totfact>
</mgrwt>
</event>
<event>
12    1  0.8033771E-008  0.5260835E+03  0.7818608E-02  0.1007186E+00
          2   -1    0    0  501    0  0.00000000000E+00  0.00000000000E+00  0.24053390935E+04  0.24053390935E+04  0.00000000000E+00 0. -1.
         -2   -1    0    0    0  501 -0.00000000000E+00 -0.00000000000E+00 -0.23320508226E+03  0.23320508226E+03  0.00000000000E+00 0.  1.
         23    2    1    2    0    0  0.49080617333E+03 -0.13750388517E+03  0.15529860455E+04  0.16370312049E+04  0.91145433137E+02 0.  0.
    5000000    2    1    2    0    0 -0.49080617333E+03  0.13750388517E+03  0.61914796570E+03  0.10015129708E+04  0.59990500009E+03 0.  0.
         23    2    4    4    0    0 -0.22696047000E+03  0.66716028014E+01  0.64641375612E+03  0.69111159267E+03  0.90713417918E+02 0.  0.
         23    2    4    4    0    0 -0.26384570333E+03  0.13083228237E+03 -0.27265790423E+02  0.31040137818E+03  0.94201650587E+02 0.  0.
          2    1    3    3  502    0  0.40469745505E+03 -0.12211760432E+03  0.13783216621E+04  0.14416876720E+04  0.00000000000E+00 0. -1.
         -2    1    3    3    0  502  0.86108718281E+02 -0.15386280846E+02  0.17466438343E+03  0.19534353288E+03  0.00000000000E+00 0.  1.
         15    1    5    5    0    0 -0.22876930320E+03  0.10739250595E+02  0.56637206769E+03  0.61092651144E+03  0.17770000000E+01 0. -1.
        -15    1    5    5    0    0  0.18088331953E+01 -0.40676477935E+01  0.80041688430E+02  0.80185081230E+02  0.17770000000E+01 0.  1.
          4    1    6    6  503    0 -0.12931865860E+03  0.14182234058E+02  0.10948590379E+01  0.13009861621E+03  0.00000000000E+00 0. -1.
         -4    1    6    6    0  503 -0.13452704473E+03  0.11665004831E+03 -0.28360649461E+02  0.18030276197E+03  0.00000000000E+00 0.  1.
<mgrwt>
<rscale>  0 0.52608345E+03</rscale>
<asrwt>0</asrwt>
<pdfrwt beam="1">  1        2 0.37005215E+00 0.52608345E+03</pdfrwt>
<pdfrwt beam="2">  1       -2 0.35877707E-01 0.52608345E+03</pdfrwt>
<totfact> 0.31187074E+01</totfact>
</mgrwt>
</event>
<event>
12    1  0.8033771E-008  0.9236096E+03  0.7818608E-02  0.9396540E-01
          1   -1    0    0  501    0  0.00000000000E+00  0.00000000000E+00  0.48538990253E+03  0.48538990253E+03  0.00000000000E+00 0. -1.
         -1   -1    0    0    0  501 -0.00000000000E+00 -0.00000000000E+00 -0.21764929908E+04  0.21764929908E+04  0.00000000000E+00 0.  1.
         23    2    1    2    0    0 -0.79613911579E+03 -0.42807822197E+03 -0.11010112477E+04  0.14268902392E+04  0.81862881559E+02 0.  0.
    5000000    2    1    2    0    0  0.79613911579E+03  0.42807822197E+03 -0.59009184063E+03  0.12349926542E+04  0.59992501170E+03 0.  0.
         23    2    4    4    0    0  0.30518390781E+03  0.26714056202E+03 -0.57382754486E+03  0.70880367872E+03  0.92861758925E+02 0.  0.
         23    2    4    4    0    0  0.49095520797E+03  0.16093765996E+03 -0.16264295770E+02  0.52618897545E+03  0.98348177085E+02 0.  0.
          1    1    3    3  502    0 -0.27963977356E+03 -0.12420941367E+03 -0.32414566578E+03  0.44575418567E+03  0.00000000000E+00 0. -1.
         -1    1    3    3    0  502 -0.51649934223E+03 -0.30386880830E+03 -0.77686558189E+03  0.98113605351E+03  0.00000000000E+00 0.  1.
         15    1    5    5    0    0  0.24720948664E+02 -0.49970122004E+01 -0.34227214796E+02  0.42552971641E+02  0.17770000000E+01 0.  1.
        -15    1    5    5    0    0  0.28046295915E+03  0.27213757422E+03 -0.53960033006E+03  0.66625070708E+03  0.17770000000E+01 0. -1.
          4    1    6    6  503    0  0.14870425383E+03  0.97502722927E+02 -0.84972474138E+01  0.17802230000E+03  0.00000000000E+00 0. -1.
         -4    1    6    6    0  503  0.34225095415E+03  0.63434937032E+02 -0.77670483559E+01  0.34816667544E+03  0.00000000000E+00 0.  1.
<mgrwt>
<rscale>  0 0.92360959E+03</rscale>
<asrwt>0</asrwt>
<pdfrwt beam="1">  1        1 0.74675369E-01 0.92360959E+03</pdfrwt>
<pdfrwt beam="2">  1       -1 0.33484508E+00 0.92360959E+03</pdfrwt>
<totfact> 0.93076180E-01</totfact>
</mgrwt>
</event>
<event>
12    1  0.8033771E-008  0.1261251E+04  0.7818608E-02  0.9060871E-01
          1   -1    0    0  501    0  0.00000000000E+00  0.00000000000E+00  0.14752930789E+04  0.14752930789E+04  0.00000000000E+00 0. -1.
         -1   -1    0    0    0  501 -0.00000000000E+00 -0.00000000000E+00 -0.11005839343E+04  0.11005839343E+04  0.00000000000E+00 0.  1.
         23    2    1    2    0    0  0.83802163945E+03 -0.85168064164E+03  0.46352493987E+02  0.11991289958E+04  0.90119983564E+02 0.  0.
    5000000    2    1    2    0    0 -0.83802163945E+03  0.85168064164E+03  0.32835665062E+03  0.13767480174E+04  0.59998069127E+03 0.  0.
         23    2    4    4    0    0 -0.81761076684E+02 -0.66264559529E+02  0.68233562077E+02  0.15587777828E+03  0.92553753348E+02 0.  0.
         23    2    4    4    0    0 -0.75626056277E+03  0.91794520117E+03  0.26012308854E+03  0.12208702391E+04  0.91141035993E+02 0.  0.
          3    1    3    3  502    0  0.61860625675E+03 -0.67352776904E+03  0.57188456048E+02  0.91628809664E+03  0.00000000000E+00 0. -1.
         -3    1    3    3    0  502  0.21941538271E+03 -0.17815287260E+03 -0.10835962061E+02  0.28284089920E+03  0.00000000000E+00 0.  1.
         15    1    5    5    0    0 -0.35232161462E+02 -0.80014426648E+02  0.61398983875E+02  0.10684852186E+03  0.17770000000E+01 0. -1.
        -15    1    5    5    0    0 -0.46528915222E+02  0.13749867119E+02  0.68345782024E+01  0.49029256427E+02  0.17770000000E+01 0.  1.
          3    1    6    6  503    0 -0.17380268440E+03  0.21560945039E+03  0.10032629990E+03  0.29455080148E+03  0.00000000000E+00 0.  1.
         -3    1    6    6    0  503 -0.58245787837E+03  0.70233575078E+03  0.15979678864E+03  0.92631943764E+03  0.00000000000E+00 0. -1.
<mgrwt>
<rscale>  0 0.12612509E+04</rscale>
<asrwt>0</asrwt>
<pdfrwt beam="1">  1        1 0.22696817E+00 0.12612509E+04</pdfrwt>
<pdfrwt beam="2">  1       -1 0.16932060E+00 0.12612509E+04</pdfrwt>
<totfact> 0.16490290E+00</totfact>
</mgrwt>
</event>
<event>
12    1  0.8033771E-008  0.1303606E+04  0.7818608E-02  0.9026710E-01
          2   -1    0    0  501    0  0.00000000000E+00  0.00000000000E+00  0.10500417604E+04  0.10500417604E+04  0.00000000000E+00 0. -1.
         -2   -1    0    0    0  501 -0.00000000000E+00 -0.00000000000E+00 -0.17009992338E+04  0.17009992338E+04  0.00000000000E+00 0.  1.
         23    2    1    2    0    0  0.65428192697E+03  0.10702410336E+04 -0.49568954257E+03  0.13517994318E+04  0.90293252285E+02 0.  0.
    5000000    2    1    2    0    0 -0.65428192697E+03 -0.10702410336E+04 -0.15526793085E+03  0.13992415624E+04  0.60022338318E+03 0.  0.
         23    2    4    4    0    0 -0.69165598401E+03 -0.73925557611E+03 -0.23764103607E+03  0.10439602503E+04  0.92157122345E+02 0.  0.
         23    2    4    4    0    0  0.37374057043E+02 -0.33098545746E+03  0.82373105220E+02  0.35528131208E+03  0.92148190770E+02 0.  0.
          1    1    3    3  502    0  0.34143719350E+03  0.61300861366E+03 -0.31416481212E+03  0.76880325617E+03  0.00000000000E+00 0. -1.
         -1    1    3    3    0  502  0.31284473347E+03  0.45723241991E+03 -0.18152473045E+03  0.58299617567E+03  0.00000000000E+00 0.  1.
         15    1    5    5    0    0 -0.32095958913E+03 -0.34772099588E+03 -0.64069018570E+02  0.47752795279E+03  0.17770000000E+01 0. -1.
        -15    1    5    5    0    0 -0.37069639488E+03 -0.39153458023E+03 -0.17357201750E+03  0.56643229753E+03  0.17770000000E+01 0.  1.
          2    1    6    6  503    0  0.34849097003E+02 -0.70698166196E+02  0.49102487295E+02  0.92864118603E+02  0.00000000000E+00 0. -1.
         -2    1    6    6    0  503  0.25249600397E+01 -0.26028729126E+03  0.33270617925E+02  0.26241719348E+03  0.00000000000E+00 0.  1.
<mgrwt>
<rscale>  0 0.13036061E+04</rscale>
<asrwt>0</asrwt>
<pdfrwt beam="1">  1        2 0.16154489E+00 0.13036061E+04</pdfrwt>
<pdfrwt beam="2">  1       -2 0.26169219E+00 0.13036061E+04</pdfrwt>
<totfact> 0.12292690E+00</totfact>
</mgrwt>
</event>
<event>
12    1  0.8033771E-008  0.5111780E+03  0.7818608E-02  0.1010902E+00
          2   -1    0    0  501    0  0.00000000000E+00  0.00000000000E+00  0.16282087170E+04  0.16282087170E+04  0.00000000000E+00 0. -1.
         -2   -1    0    0    0  501 -0.00000000000E+00 -0.00000000000E+00 -0.25178646327E+03  0.25178646327E+03  0.00000000000E+00 0.  1.
         23    2    1    2    0    0  0.10791683186E+03 -0.38049844473E+03  0.97672975460E+03  0.10576541577E+04  0.90588049182E+02 0.  0.
    5000000    2    1    2    0    0 -0.10791683186E+03  0.38049844473E+03  0.39969249913E+03  0.82234102260E+03  0.60005462630E+03 0.  0.
         23    2    4    4    0    0  0.15237803675E+03  0.28910052825E+03  0.13208145811E+02  0.33929033085E+03  0.90251271310E+02 0.  0.
         23    2    4    4    0    0 -0.26029486861E+03  0.91397916478E+02  0.38648435332E+03  0.48305069175E+03  0.88661252389E+02 0.  0.
          4    1    3    3  502    0  0.59480161350E+02 -0.25907159352E+03  0.54164733189E+03  0.60335546099E+03  0.00000000000E+00 0. -1.
         -4    1    3    3    0  502  0.48436670509E+02 -0.12142685121E+03  0.43508242271E+03  0.45429869667E+03  0.00000000000E+00 0.  1.
         15    1    5    5    0    0  0.75570990351E+02  0.65120389240E+02  0.22648588101E+02  0.10231205183E+03  0.17770000000E+01 0.  1.
        -15    1    5    5    0    0  0.76807046403E+02  0.22398013901E+03 -0.94404422898E+01  0.23697827903E+03  0.17770000000E+01 0. -1.
          3    1    6    6  503    0 -0.11355737789E+03  0.85938103307E+02  0.20479513624E+03  0.24944274594E+03  0.00000000000E+00 0. -1.
         -3    1    6    6    0  503 -0.14673749072E+03  0.54598131711E+01  0.18168921708E+03  0.23360794581E+03  0.00000000000E+00 0.  1.
<mgrwt>
<rscale>  0 0.51117797E+03</rscale>
<asrwt>0</asrwt>
<pdfrwt beam="1">  1        2 0.25049364E+00 0.51117797E+03</pdfrwt>
<pdfrwt beam="2">  1       -2 0.38736380E-01 0.51117797E+03</pdfrwt>
<totfact> 0.71275885E+01</totfact>
</mgrwt>
</event>
<event>
12    1  0.8033771E-008  0.1354332E+04  0.7818608E-02  0.8987555E-01
         -2   -1    0    0    0  501 -0.00000000000E+00  0.00000000000E+00  0.64863699540E+03  0.64863699540E+03  0.00000000000E+00 0.  1.
          2   -1    0    0  501    0  0.00000000000E+00 -0.00000000000E+00 -0.28959528344E+04  0.28959528344E+04  0.00000000000E+00 0. -1.
         23    2    1    2    0    0 -0.13001997567E+04 -0.31357550539E+02 -0.96605404688E+03  0.16226830013E+04  0.91307163797E+02 0.  0.
    5000000    2    1    2    0    0  0.13001997567E+04  0.31357550539E+02 -0.12812617921E+04  0.19219068284E+04  0.60049260950E+03 0.  0.
         23    2    4    4    0    0  0.11415383629E+04 -0.14884878829E+03 -0.90762099662E+03  0.14686847876E+04  0.89405459134E+02 0.  0.
         23    2    4    4    0    0  0.15866139378E+03  0.18020633883E+03 -0.37364079549E+03  0.45322204083E+03  0.90305103994E+02 0.  0.
          1    1    3    3  502    0 -0.33697569194E+03 -0.42220101947E+02 -0.27834692065E+03  0.43910381711E+03  0.00000000000E+00 0. -1.
         -1    1    3    3    0  502 -0.96322406473E+03  0.10862551408E+02 -0.68770712623E+03  0.11835791842E+04  0.00000000000E+00 0.  1.
         15    1    5    5    0    0  0.53573859830E+03 -0.41546584552E+02 -0.37923143847E+03  0.65769415844E+03  0.17770000000E+01 0. -1.
        -15    1    5    5    0    0  0.60579976459E+03 -0.10730220374E+03 -0.52838955815E+03  0.81099062917E+03  0.17770000000E+01 0.  1.
          1    1    6    6  503    0  0.10294319337E+03  0.16658716022E+03 -0.25569938086E+03  0.32207259490E+03  0.00000000000E+00 0. -1.
         -1    1    6    6    0  503  0.55718200404E+02  0.13619178608E+02 -0.11794141464E+03  0.13114944593E+03  0.00000000000E+00 0.  1.
<mgrwt>
<rscale>  0 0.13543320E+04</rscale>
<asrwt>0</asrwt>
<pdfrwt beam="1">  1        2 0.44553121E+00 0.13543320E+04</pdfrwt>
<pdfrwt beam="2">  1       -2 0.99790307E-01 0.13543320E+04</pdfrwt>
<totfact> 0.16283822E+00</totfact>
</mgrwt>
</event>
<event>
12    1  0.8033771E-008  0.1228293E+04  0.7818608E-02  0.9088446E-01
          1   -1    0    0  501    0  0.00000000000E+00  0.00000000000E+00  0.19834736263E+04  0.19834736263E+04  0.00000000000E+00 0. -1.
         -1   -1    0    0    0  501 -0.00000000000E+00 -0.00000000000E+00 -0.11473755560E+04  0.11473755560E+04  0.00000000000E+00 0.  1.
         23    2    1    2    0    0  0.21983203046E+01 -0.12099582717E+04 -0.42239963015E+03  0.12848294704E+04  0.91441066407E+02 0.  0.
    5000000    2    1    2    0    0 -0.21983203046E+01  0.12099582717E+04  0.12584977004E+04  0.18460197119E+04  0.59997371849E+03 0.  0.
         23    2    4    4    0    0  0.20867878864E+02  0.97566935048E+02 -0.33537581711E+02  0.13852439496E+03  0.90052559253E+02 0.  0.
         23    2    4    4    0    0 -0.23066199169E+02  0.11123913367E+04  0.12920352821E+04  0.17074953169E+04  0.90766467926E+02 0.  0.
          1    1    3    3  502    0  0.34515195745E+02 -0.34618263261E+03 -0.14648786644E+03  0.37748166694E+03  0.00000000000E+00 0. -1.
         -1    1    3    3    0  502 -0.32316875440E+02 -0.86377563909E+03 -0.27591176371E+03  0.90734780348E+03  0.00000000000E+00 0.  1.
         15    1    5    5    0    0  0.22518722946E+02 -0.89176562959E+01  0.58204789413E+01  0.24973049094E+02  0.17770000000E+01 0. -1.
        -15    1    5    5    0    0 -0.16508440823E+01  0.10648459134E+03 -0.39358060652E+02  0.11355134586E+03  0.17770000000E+01 0.  1.
          3    1    6    6  503    0  0.12195134784E+02  0.15940997231E+03  0.14520704331E+03  0.21597533658E+03  0.00000000000E+00 0. -1.
         -3    1    6    6    0  503 -0.35261333953E+02  0.95298136434E+03  0.11468282388E+04  0.14915199803E+04  0.00000000000E+00 0.  1.
<mgrwt>
<rscale>  0 0.12282929E+04</rscale>
<asrwt>0</asrwt>
<pdfrwt beam="1">  1        1 0.30514979E+00 0.12282929E+04</pdfrwt>
<pdfrwt beam="2">  1       -1 0.17651932E+00 0.12282929E+04</pdfrwt>
<totfact> 0.65957081E-01</totfact>
</mgrwt>
</event>
<event>
12    1  0.8033771E-008  0.5864660E+03  0.7818608E-02  0.9933890E-01
         -2   -1    0    0    0  501 -0.00000000000E+00  0.00000000000E+00  0.13391139285E+03  0.13391139285E+03  0.00000000000E+00 0. -1.
          2   -1    0    0  501    0  0.00000000000E+00 -0.00000000000E+00 -0.29411314435E+04  0.29411314435E+04  0.00000000000E+00 0.  1.
         23    2    1    2    0    0  0.27986036796E+03 -0.34895381502E+03 -0.67617290666E+03  0.81637844948E+03  0.95777776685E+02 0.  0.
    5000000    2    1    2    0    0 -0.27986036796E+03  0.34895381502E+03 -0.21310471440E+04  0.22586643869E+04  0.60009356939E+03 0.  0.
         23    2    4    4    0    0 -0.32773171986E+03 -0.38149123528E+02 -0.84337950415E+03  0.91009033310E+03  0.90066589556E+02 0.  0.
         23    2    4    4    0    0  0.47871351909E+02  0.38710293855E+03 -0.12876676398E+04  0.13485740538E+04  0.91780588498E+02 0.  0.
          3    1    3    3  502    0  0.20215544415E+03 -0.24311350275E+03 -0.54927134705E+03  0.63377441689E+03  0.00000000000E+00 0. -1.
         -3    1    3    3    0  502  0.77704923809E+02 -0.10584031228E+03 -0.12690155961E+03  0.18260403259E+03  0.00000000000E+00 0.  1.
         15    1    5    5    0    0 -0.26987172292E+03 -0.52789302036E+02 -0.60870802283E+03  0.66794166813E+03  0.17770000000E+01 0.  1.
        -15    1    5    5    0    0 -0.57859996950E+02  0.14640178508E+02 -0.23467148131E+03  0.24214866496E+03  0.17770000000E+01 0. -1.
          1    1    6    6  503    0  0.17627608297E+02  0.23532437227E+03 -0.91738323883E+03  0.94724880557E+03  0.00000000000E+00 0. -1.
         -1    1    6    6    0  503  0.30243743613E+02  0.15177856628E+03 -0.37028440099E+03  0.40132524818E+03  0.00000000000E+00 0.  1.
<mgrwt>
<rscale>  0 0.58646600E+03</rscale>
<asrwt>0</asrwt>
<pdfrwt beam="1">  1        2 0.45248176E+00 0.58646600E+03</pdfrwt>
<pdfrwt beam="2">  1       -2 0.20601753E-01 0.58646600E+03</pdfrwt>
<totfact> 0.41587940E+01</totfact>
</mgrwt>
</event>
<event>
12    1  0.8033771E-008  0.9629690E+03  0.7818608E-02  0.9350119E-01
         -2   -1    0    0    0  501 -0.00000000000E+00  0.00000000000E+00  0.50313537822E+03  0.50313537822E+03  0.00000000000E+00 0.  1.
          2   -1    0    0  501    0  0.00000000000E+00 -0.00000000000E+00 -0.23375436128E+04  0.23375436128E+04  0.00000000000E+00 0. -1.
         23    2    1    2    0    0  0.67708798014E+03  0.66508119968E+03 -0.43888768454E+03  0.10495931700E+04  0.90787046933E+02 0.  0.
    5000000    2    1    2    0    0 -0.67708798014E+03 -0.66508119968E+03 -0.13955205500E+04  0.17910858210E+04  0.59977468903E+03 0.  0.
         23    2    4    4    0    0 -0.19049721228E+03 -0.11945165367E+03 -0.82241535715E+03  0.85745733699E+03  0.91149216341E+02 0.  0.
         23    2    4    4    0    0 -0.48659076786E+03 -0.54562954601E+03 -0.57310519288E+03  0.93362848400E+03  0.93436647981E+02 0.  0.
          3    1    3    3  502    0  0.61615125619E+03  0.61983141597E+03 -0.42720649573E+03  0.97279943705E+03  0.00000000000E+00 0. -1.
         -3    1    3    3    0  502  0.60936723947E+02  0.45249783705E+02 -0.11681188811E+02  0.76793732965E+02  0.00000000000E+00 0.  1.
         15    1    5    5    0    0 -0.38269503163E+02  0.12264443798E+02 -0.16974441769E+03  0.17444568358E+03  0.17770000000E+01 0. -1.
        -15    1    5    5    0    0 -0.15222770911E+03 -0.13171609747E+03 -0.65267093945E+03  0.68301165341E+03  0.17770000000E+01 0.  1.
          2    1    6    6  503    0 -0.31762021182E+03 -0.30384125526E+03 -0.30487687877E+03  0.53493178870E+03  0.00000000000E+00 0. -1.
         -2    1    6    6    0  503 -0.16897055604E+03 -0.24178829075E+03 -0.26822831411E+03  0.39869669530E+03  0.00000000000E+00 0.  1.
<mgrwt>
<rscale>  0 0.96296898E+03</rscale>
<asrwt>0</asrwt>
<pdfrwt beam="1">  1        2 0.35962209E+00 0.96296898E+03</pdfrwt>
<pdfrwt beam="2">  1       -2 0.77405444E-01 0.96296898E+03</pdfrwt>
<totfact> 0.65031767E+00</totfact>
</mgrwt>
</event>
<event>
12    1  0.8033771E-008  0.6443186E+03  0.7818608E-02  0.9817499E-01
         -1   -1    0    0    0  501 -0.00000000000E+00  0.00000000000E+00  0.10132867182E+04  0.10132867182E+04  0.00000000000E+00 0. -1.
          1   -1    0    0  501    0  0.00000000000E+00 -0.00000000000E+00 -0.90509825867E+03  0.90509825867E+03  0.00000000000E+00 0.  1.
         23    2    1    2    0    0 -0.56937438082E+03  0.14959823074E+03 -0.57983944827E+03  0.83216813759E+03  0.98606324759E+02 0.  0.
    5000000    2    1    2    0    0  0.56937438082E+03 -0.14959823074E+03  0.68802790777E+03  0.10862168392E+04  0.59993149927E+03 0.  0.
         23    2    4    4    0    0 -0.12117969172E+02 -0.89612506863E+01  0.40787302661E+03  0.41936858768E+03  0.96345510023E+02 0.  0.
         23    2    4    4    0    0  0.58149234999E+03 -0.14063698006E+03  0.28015488116E+03  0.66684825157E+03  0.91036915201E+02 0.  0.
          1    1    3    3  502    0 -0.41899334162E+03  0.87331038772E+02 -0.47074817683E+03  0.63622792822E+03  0.00000000000E+00 0. -1.
         -1    1    3    3    0  502 -0.15038103920E+03  0.62267191972E+02 -0.10909127144E+03  0.19594020938E+03  0.00000000000E+00 0.  1.
         15    1    5    5    0    0  0.96679559962E+01  0.41188755569E+02  0.15791813509E+03  0.16349702774E+03  0.17770000000E+01 0. -1.
        -15    1    5    5    0    0 -0.21785925168E+02 -0.50150006256E+02  0.24995489152E+03  0.25587155994E+03  0.17770000000E+01 0.  1.
          3    1    6    6  503    0  0.41871996595E+03 -0.12663877635E+03  0.16761183670E+03  0.46846293062E+03  0.00000000000E+00 0. -1.
         -3    1    6    6    0  503  0.16277238404E+03 -0.13998203705E+02  0.11254304446E+03  0.19838532095E+03  0.00000000000E+00 0.  1.
<mgrwt>
<rscale>  0 0.64431856E+03</rscale>
<asrwt>0</asrwt>
<pdfrwt beam="1">  1        1 0.13924589E+00 0.64431856E+03</pdfrwt>
<pdfrwt beam="2">  1       -1 0.15589026E+00 0.64431856E+03</pdfrwt>
<totfact> 0.59604805E+00</totfact>
</mgrwt>
</event>
<event>
12    1  0.1160223E-007  0.1328416E+04  0.7818608E-02  0.9007329E-01
         -1   -1    0    0    0  501 -0.00000000000E+00  0.00000000000E+00  0.54424890799E+03  0.54424890799E+03  0.00000000000E+00 0.  1.
          1   -1    0    0  501    0  0.00000000000E+00 -0.00000000000E+00 -0.35309226802E+04  0.35309226802E+04  0.00000000000E+00 0. -1.
         23    2    1    2    0    0 -0.44508866516E+03 -0.12312319368E+04 -0.16648734871E+04  0.21204097299E+04  0.10147754594E+03 0.  0.
    5000000    2    1    2    0    0  0.44508866516E+03  0.12312319368E+04 -0.13218002851E+04  0.19547618583E+04  0.59991826684E+03 0.  0.
         23    2    4    4    0    0  0.44002636756E+03  0.89380734982E+03 -0.12447239375E+04  0.15966694387E+04  0.86607349745E+02 0.  0.
         23    2    4    4    0    0  0.50622975929E+01  0.33742458702E+03 -0.77076347572E+02  0.35809241964E+03  0.91697540106E+02 0.  0.
          2    1    3    3  502    0 -0.30637800264E+03 -0.74429671114E+03 -0.10775914700E+04  0.13450087178E+04  0.00000000000E+00 0. -1.
         -2    1    3    3    0  502 -0.13871066252E+03 -0.48693522570E+03 -0.58728201709E+03  0.77540101207E+03  0.00000000000E+00 0.  1.
         15    1    5    5    0    0  0.24708442693E+03  0.45603971938E+03 -0.58636895299E+03  0.78285033464E+03  0.17770000000E+01 0. -1.
        -15    1    5    5    0    0  0.19294194063E+03  0.43776763044E+03 -0.65835498451E+03  0.81381910402E+03  0.17770000000E+01 0.  1.
          1    1    6    6  503    0  0.46019823993E+02  0.16164435055E+03 -0.22720878310E+02  0.16959645803E+03  0.00000000000E+00 0. -1.
         -1    1    6    6    0  503 -0.40957526400E+02  0.17578023648E+03 -0.54355469262E+02  0.18849596161E+03  0.00000000000E+00 0.  1.
<mgrwt>
<rscale>  0 0.13284163E+04</rscale>
<asrwt>0</asrwt>
<pdfrwt beam="1">  1        1 0.54321887E+00 0.13284163E+04</pdfrwt>
<pdfrwt beam="2">  1       -1 0.83730602E-01 0.13284163E+04</pdfrwt>
<totfact> 0.33004315E-01</totfact>
</mgrwt>
</event>
<event>
12    1  0.8033771E-008  0.8546407E+03  0.7818608E-02  0.9484129E-01
         -1   -1    0    0    0  501 -0.00000000000E+00  0.00000000000E+00  0.49662605705E+03  0.49662605705E+03  0.00000000000E+00 0.  1.
          1   -1    0    0  501    0  0.00000000000E+00 -0.00000000000E+00 -0.16762155615E+04  0.16762155615E+04  0.00000000000E+00 0. -1.
         23    2    1    2    0    0  0.72849199784E+03 -0.27090881223E+03 -0.80297558140E+03  0.11212067091E+04  0.90788350769E+02 0.  0.
    5000000    2    1    2    0    0 -0.72849199784E+03  0.27090881223E+03 -0.37661392304E+03  0.10516349095E+04  0.60000480027E+03 0.  0.
         23    2    4    4    0    0 -0.66324299704E+03  0.38591747668E+03 -0.42710293085E+03  0.88295199512E+03  0.91453486661E+02 0.  0.
         23    2    4    4    0    0 -0.65249000803E+02 -0.11500866445E+03  0.50489007802E+02  0.16868291436E+03  0.91762523306E+02 0.  0.
          3    1    3    3  502    0  0.31613988043E+03 -0.15510382336E+03 -0.40311422993E+03  0.53525947202E+03  0.00000000000E+00 0. -1.
         -3    1    3    3    0  502  0.41235211741E+03 -0.11580498887E+03 -0.39986135147E+03  0.58594723703E+03  0.00000000000E+00 0.  1.
         15    1    5    5    0    0 -0.13085107542E+03  0.96156618946E+02 -0.53759549488E+02  0.17105948145E+03  0.17770000000E+01 0. -1.
        -15    1    5    5    0    0 -0.53239192162E+03  0.28976085773E+03 -0.37334338136E+03  0.71189251367E+03  0.17770000000E+01 0.  1.
          4    1    6    6  503    0 -0.86883510476E+02 -0.74800852808E+02  0.42831658391E+02  0.12238653085E+03  0.00000000000E+00 0. -1.
         -4    1    6    6    0  503  0.21634509673E+02 -0.40207811644E+02  0.76573494117E+01  0.46296383509E+02  0.00000000000E+00 0.  1.
<mgrwt>
<rscale>  0 0.85464071E+03</rscale>
<asrwt>0</asrwt>
<pdfrwt beam="1">  1        1 0.25787932E+00 0.85464071E+03</pdfrwt>
<pdfrwt beam="2">  1       -1 0.76404008E-01 0.85464071E+03</pdfrwt>
<totfact> 0.87285806E+00</totfact>
</mgrwt>
</event>
<event>
12    1  0.8033771E-008  0.4846971E+03  0.7818608E-02  0.1017852E+00
         -2   -1    0    0    0  501 -0.00000000000E+00  0.00000000000E+00  0.34443298067E+03  0.34443298067E+03  0.00000000000E+00 0.  1.
          2   -1    0    0  501    0  0.00000000000E+00 -0.00000000000E+00 -0.38344028965E+04  0.38344028965E+04  0.00000000000E+00 0. -1.
         23    2    1    2    0    0 -0.32799600309E+03 -0.19098580119E+03  0.18746857432E+03  0.43348064834E+03  0.93295508082E+02 0.  0.
    5000000    2    1    2    0    0  0.32799600309E+03  0.19098580119E+03 -0.36774384902E+04  0.37453552289E+04  0.60006248589E+03 0.  0.
         23    2    4    4    0    0 -0.33973398329E+02 -0.87028254523E+02 -0.20301982658E+04  0.20341038757E+04  0.84530879846E+02 0.  0.
         23    2    4    4    0    0  0.36196940142E+03  0.27801405572E+03 -0.16472402244E+04  0.17112513532E+04  0.81652766359E+02 0.  0.
          4    1    3    3  502    0 -0.30267603228E+03 -0.15031036907E+03  0.18554567003E+03  0.38552974365E+03  0.00000000000E+00 0. -1.
         -4    1    3    3    0  502 -0.25319970808E+02 -0.40675432123E+02  0.19229042850E+01  0.47950904694E+02  0.00000000000E+00 0.  1.
         15    1    5    5    0    0 -0.32552771443E+02  0.46271758461E+01 -0.67962354218E+03  0.68042075990E+03  0.17770000000E+01 0. -1.
        -15    1    5    5    0    0 -0.14206268856E+01 -0.91655430369E+02 -0.13505747236E+04  0.13536831158E+04  0.17770000000E+01 0.  1.
          2    1    6    6  503    0  0.27368979323E+03  0.18301819801E+03 -0.12845697307E+04  0.13260924390E+04  0.00000000000E+00 0. -1.
         -2    1    6    6    0  503  0.88279608186E+02  0.94995857708E+02 -0.36267049368E+03  0.38515891420E+03  0.00000000000E+00 0.  1.
<mgrwt>
<rscale>  0 0.48469714E+03</rscale>
<asrwt>0</asrwt>
<pdfrwt beam="1">  1        2 0.58990812E+00 0.48469714E+03</pdfrwt>
<pdfrwt beam="2">  1       -2 0.52989691E-01 0.48469714E+03</pdfrwt>
<totfact> 0.18517612E+00</totfact>
</mgrwt>
</event>
<event>
12    1  0.8033771E-008  0.7398023E+03  0.7818608E-02  0.9651486E-01
          2   -1    0    0  501    0  0.00000000000E+00  0.00000000000E+00  0.82019692143E+03  0.82019692143E+03  0.00000000000E+00 0.  1.
         -2   -1    0    0    0  501 -0.00000000000E+00 -0.00000000000E+00 -0.12970362490E+04  0.12970362490E+04  0.00000000000E+00 0. -1.
         23    2    1    2    0    0 -0.51241546664E+03 -0.40797839048E+03 -0.91269199399E+03  0.11271670097E+04  0.92102194728E+02 0.  0.
    5000000    2    1    2    0    0  0.51241546664E+03  0.40797839048E+03  0.43585266646E+03  0.99006616069E+03  0.60103866609E+03 0.  0.
         23    2    4    4    0    0  0.13068681792E+03  0.40503226865E+03  0.47359289734E+02  0.43793526033E+03  0.91728986103E+02 0.  0.
         23    2    4    4    0    0  0.38172864873E+03  0.29461218311E+01  0.38849337673E+03  0.55213090036E+03  0.90531687712E+02 0.  0.
          3    1    3    3  502    0 -0.61034269714E+02 -0.27552021178E+02 -0.13613129301E+03  0.15171033217E+03  0.00000000000E+00 0. -1.
         -3    1    3    3    0  502 -0.45138119693E+03 -0.38042636930E+03 -0.77656070098E+03  0.97545667752E+03  0.00000000000E+00 0.  1.
         15    1    5    5    0    0  0.58631050760E+02  0.28079582997E+03  0.62251662509E+02  0.29353419810E+03  0.17770000000E+01 0. -1.
        -15    1    5    5    0    0  0.72055767158E+02  0.12423643868E+03 -0.14892372775E+02  0.14440106223E+03  0.17770000000E+01 0.  1.
          3    1    6    6  503    0  0.15447103474E+03 -0.42218617267E+02  0.14530243660E+03  0.21623253756E+03  0.00000000000E+00 0. -1.
         -3    1    6    6    0  503  0.22725761399E+03  0.45164739098E+02  0.24319094013E+03  0.33589836281E+03  0.00000000000E+00 0.  1.
<mgrwt>
<rscale>  0 0.73980232E+03</rscale>
<asrwt>0</asrwt>
<pdfrwt beam="1">  1        2 0.12618414E+00 0.73980232E+03</pdfrwt>
<pdfrwt beam="2">  1       -2 0.19954404E+00 0.73980232E+03</pdfrwt>
<totfact> 0.45661220E+00</totfact>
</mgrwt>
</event>
<event>
12    1  0.8033771E-008  0.1845057E+04  0.7818608E-02  0.8682699E-01
          2   -1    0    0  501    0  0.00000000000E+00  0.00000000000E+00  0.14739404219E+04  0.14739404219E+04  0.00000000000E+00 0. -1.
         -2   -1    0    0    0  501 -0.00000000000E+00 -0.00000000000E+00 -0.29681897765E+04  0.29681897765E+04  0.00000000000E+00 0.  1.
         23    2    1    2    0    0 -0.40369749922E+03  0.17749300755E+04  0.26347087513E+03  0.18415644812E+04  0.92705947771E+02 0.  0.
    5000000    2    1    2    0    0  0.40369749922E+03 -0.17749300755E+04 -0.17577202297E+04  0.26005657172E+04  0.60001099982E+03 0.  0.
         23    2    4    4    0    0  0.34893897442E+03 -0.65842480983E+03 -0.44073919103E+03  0.87076270314E+03  0.93247051412E+02 0.  0.
         23    2    4    4    0    0  0.54758524798E+02 -0.11165052656E+04 -0.13169810387E+04  0.17298030141E+04  0.90536771525E+02 0.  0.
          3    1    3    3  502    0 -0.16666046829E+03  0.93713019097E+03  0.14717602098E+03  0.96314562122E+03  0.00000000000E+00 0. -1.
         -3    1    3    3    0  502 -0.23703703093E+03  0.83779988450E+03  0.11629485415E+03  0.87841886000E+03  0.00000000000E+00 0.  1.
         15    1    5    5    0    0  0.62045545859E+02 -0.86138583591E+02 -0.30672388457E+02  0.11051451709E+03  0.17770000000E+01 0.  1.
        -15    1    5    5    0    0  0.28689342856E+03 -0.57228622624E+03 -0.41006680257E+03  0.76024818605E+03  0.17770000000E+01 0. -1.
          1    1    6    6  503    0 -0.17545903910E+02 -0.53148265423E+03 -0.60596278984E+03  0.80620876525E+03  0.00000000000E+00 0. -1.
         -1    1    6    6    0  503  0.72304428708E+02 -0.58502261141E+03 -0.71101824884E+03  0.92359424882E+03  0.00000000000E+00 0.  1.
<mgrwt>
<rscale>  0 0.18450568E+04</rscale>
<asrwt>0</asrwt>
<pdfrwt beam="1">  1        2 0.22676007E+00 0.18450568E+04</pdfrwt>
<pdfrwt beam="2">  1       -2 0.45664458E+00 0.18450568E+04</pdfrwt>
<totfact> 0.37232395E-02</totfact>
</mgrwt>
</event>
<event>
12    1  0.8033771E-008  0.4553935E+03  0.7818608E-02  0.1026126E+00
         -1   -1    0    0    0  501 -0.00000000000E+00  0.00000000000E+00  0.13130317491E+03  0.13130317491E+03  0.00000000000E+00 0.  1.
          1   -1    0    0  501    0  0.00000000000E+00 -0.00000000000E+00 -0.17811954808E+04  0.17811954808E+04  0.00000000000E+00 0. -1.
         23    2    1    2    0    0  0.12722741433E+03  0.25098489332E+03 -0.63398570740E+03  0.69958805953E+03  0.91133661231E+02 0.  0.
    5000000    2    1    2    0    0 -0.12722741433E+03 -0.25098489332E+03 -0.10159065985E+04  0.12129105962E+04  0.59992138307E+03 0.  0.
         23    2    4    4    0    0  0.92854030889E+02  0.12636614179E+03 -0.49349106397E+03  0.52605636020E+03  0.92798658601E+02 0.  0.
         23    2    4    4    0    0 -0.22008144522E+03 -0.37735103511E+03 -0.52241553455E+03  0.68685423603E+03  0.89560619566E+02 0.  0.
          3    1    3    3  502    0  0.67830208158E+02  0.18666174534E+03 -0.35011307496E+03  0.40252044615E+03  0.00000000000E+00 0. -1.
         -3    1    3    3    0  502  0.59397206171E+02  0.64323147985E+02 -0.28387263244E+03  0.29706761338E+03  0.00000000000E+00 0.  1.
         15    1    5    5    0    0  0.66829174319E+02  0.16179625784E+02 -0.19853274747E+03  0.21011027670E+03  0.17770000000E+01 0.  1.
        -15    1    5    5    0    0  0.26024856570E+02  0.11018651601E+03 -0.29495831651E+03  0.31594608349E+03  0.17770000000E+01 0. -1.
          4    1    6    6  503    0 -0.10379637311E+03 -0.24706193901E+03 -0.35633030678E+03  0.44585263968E+03  0.00000000000E+00 0. -1.
         -4    1    6    6    0  503 -0.11628507211E+03 -0.13028909610E+03 -0.16608522777E+03  0.24100159635E+03  0.00000000000E+00 0.  1.
<mgrwt>
<rscale>  0 0.45539351E+03</rscale>
<asrwt>0</asrwt>
<pdfrwt beam="1">  1        1 0.27403007E+00 0.45539351E+03</pdfrwt>
<pdfrwt beam="2">  1       -1 0.20200489E-01 0.45539351E+03</pdfrwt>
<totfact> 0.89967518E+01</totfact>
</mgrwt>
</event>
<event>
12    1  0.8033771E-008  0.1121989E+04  0.7818608E-02  0.9184021E-01
          1   -1    0    0  501    0  0.00000000000E+00  0.00000000000E+00  0.76500264104E+03  0.76500264104E+03  0.00000000000E+00 0. -1.
         -1   -1    0    0    0  501 -0.00000000000E+00 -0.00000000000E+00 -0.19259267952E+04  0.19259267952E+04  0.00000000000E+00 0.  1.
         23    2    1    2    0    0 -0.53085099715E+03  0.90190598688E+03 -0.10404151424E+04  0.14786305304E+04  0.92991325816E+02 0.  0.
    5000000    2    1    2    0    0  0.53085099715E+03 -0.90190598688E+03 -0.12050901174E+03  0.12122989058E+04  0.59992418245E+03 0.  0.
         23    2    4    4    0    0  0.22111513559E+03 -0.83055681949E+03 -0.15142342892E+02  0.86441771713E+03  0.90951446086E+02 0.  0.
         23    2    4    4    0    0  0.30973586156E+03 -0.71349167386E+02 -0.10536666885E+03  0.34788118864E+03  0.94298350396E+02 0.  0.
          2    1    3    3  502    0 -0.50393474493E+03  0.80284593959E+03 -0.94498497946E+03  0.13384724283E+04  0.00000000000E+00 0. -1.
         -2    1    3    3    0  502 -0.26916252220E+02  0.99060047288E+02 -0.95430162916E+02  0.14015810214E+03  0.00000000000E+00 0.  1.
         15    1    5    5    0    0  0.21829479977E+03 -0.70793277590E+03 -0.25883646126E+02  0.74127899988E+03  0.17770000000E+01 0. -1.
        -15    1    5    5    0    0  0.28203358221E+01 -0.12262404359E+03  0.10741303234E+02  0.12313871725E+03  0.17770000000E+01 0.  1.
          1    1    6    6  503    0  0.82234849564E+02  0.20236310926E+02 -0.12321345012E+02  0.85579754064E+02  0.00000000000E+00 0. -1.
         -1    1    6    6    0  503  0.22750101199E+03 -0.91585478311E+02 -0.93045323837E+02  0.26230143458E+03  0.00000000000E+00 0.  1.
<mgrwt>
<rscale>  0 0.11219894E+04</rscale>
<asrwt>0</asrwt>
<pdfrwt beam="1">  1        1 0.11769272E+00 0.11219894E+04</pdfrwt>
<pdfrwt beam="2">  1       -1 0.29629643E+00 0.11219894E+04</pdfrwt>
<totfact> 0.82588668E-01</totfact>
</mgrwt>
</event>
<event>
12    1  0.8033771E-008  0.1286477E+04  0.7818608E-02  0.9040358E-01
         -1   -1    0    0    0  501 -0.00000000000E+00  0.00000000000E+00  0.15449905783E+04  0.15449905783E+04  0.00000000000E+00 0.  1.
          1   -1    0    0  501    0  0.00000000000E+00 -0.00000000000E+00 -0.11239808082E+04  0.11239808082E+04  0.00000000000E+00 0. -1.
         23    2    1    2    0    0  0.11095264705E+04  0.53996723666E+03  0.38710386047E+03  0.12966073636E+04  0.93421899660E+02 0.  0.
    5000000    2    1    2    0    0 -0.11095264705E+04 -0.53996723666E+03  0.33905909634E+02  0.13723640228E+04  0.59968307885E+03 0.  0.
         23    2    4    4    0    0  0.10693793190E+02  0.41766616175E+02 -0.31230641784E+02  0.10503712130E+03  0.90546321987E+02 0.  0.
         23    2    4    4    0    0 -0.11202202637E+04 -0.58173385283E+03  0.65136551418E+02  0.12673269015E+04  0.92558037512E+02 0.  0.
          4    1    3    3  502    0  0.37480964263E+03  0.20825369895E+03  0.94912753473E+02  0.43915862977E+03  0.00000000000E+00 0. -1.
         -4    1    3    3    0  502  0.73471682785E+03  0.33171353771E+03  0.29219110700E+03  0.85744873388E+03  0.00000000000E+00 0.  1.
         15    1    5    5    0    0 -0.22382385137E+02  0.31991997878E+02  0.19490206715E+02  0.43674763645E+02  0.17770000000E+01 0.  1.
        -15    1    5    5    0    0  0.33076178327E+02  0.97746182975E+01 -0.50720848500E+02  0.61362357656E+02  0.17770000000E+01 0. -1.
          3    1    6    6  503    0 -0.77279894193E+03 -0.43935897405E+03  0.71261933010E+02  0.89181431689E+03  0.00000000000E+00 0. -1.
         -3    1    6    6    0  503 -0.34742132174E+03 -0.14237487878E+03 -0.61253815914E+01  0.37551258462E+03  0.00000000000E+00 0.  1.
<mgrwt>
<rscale>  0 0.12864768E+04</rscale>
<asrwt>0</asrwt>
<pdfrwt beam="1">  1        1 0.17292012E+00 0.12864768E+04</pdfrwt>
<pdfrwt beam="2">  1       -1 0.23769086E+00 0.12864768E+04</pdfrwt>
<totfact> 0.99191195E-01</totfact>
</mgrwt>
</event>
<event>
12    1  0.8033771E-008  0.7012801E+03  0.7818608E-02  0.9715046E-01
          2   -1    0    0  501    0  0.00000000000E+00  0.00000000000E+00  0.79648059653E+03  0.79648059653E+03  0.00000000000E+00 0. -1.
         -2   -1    0    0    0  501 -0.00000000000E+00 -0.00000000000E+00 -0.78187417792E+03  0.78187417792E+03  0.00000000000E+00 0.  1.
         23    2    1    2    0    0 -0.47427792951E+03  0.33735860801E+03  0.34219170667E+03  0.68053426481E+03  0.85330748537E+02 0.  0.
    5000000    2    1    2    0    0  0.47427792951E+03 -0.33735860801E+03 -0.32758528806E+03  0.89782050965E+03  0.60001596793E+03 0.  0.
         23    2    4    4    0    0  0.22685581996E+02 -0.35684125496E+03 -0.19775235947E+03  0.41852103814E+03  0.90573433276E+02 0.  0.
         23    2    4    4    0    0  0.45159234751E+03  0.19482646943E+02 -0.12983292859E+03  0.47929947151E+03  0.92499579363E+02 0.  0.
          3    1    3    3  502    0 -0.36849047148E+03  0.26938709087E+03  0.22606581830E+03  0.50937254196E+03  0.00000000000E+00 0. -1.
         -3    1    3    3    0  502 -0.10578745803E+03  0.67971517141E+02  0.11612588837E+03  0.17116172285E+03  0.00000000000E+00 0.  1.
         15    1    5    5    0    0 -0.11765698679E+02 -0.17683696326E+03 -0.53056897698E+02  0.18500793324E+03  0.17770000000E+01 0. -1.
        -15    1    5    5    0    0  0.34451280675E+02 -0.18000429170E+03 -0.14469546178E+03  0.23351310489E+03  0.17770000000E+01 0.  1.
          3    1    6    6  503    0  0.12719514929E+03 -0.32561269247E+02 -0.19583262724E+02  0.13274918620E+03  0.00000000000E+00 0. -1.
         -3    1    6    6    0  503  0.32439719822E+03  0.52043916189E+02 -0.11024966586E+03  0.34655028531E+03  0.00000000000E+00 0.  1.
<mgrwt>
<rscale>  0 0.70128011E+03</rscale>
<asrwt>0</asrwt>
<pdfrwt beam="1">  1        2 0.12253548E+00 0.70128011E+03</pdfrwt>
<pdfrwt beam="2">  1       -2 0.12028834E+00 0.70128011E+03</pdfrwt>
<totfact> 0.18649570E+01</totfact>
</mgrwt>
</event>
<event>
12    1  0.8033771E-008  0.1596546E+04  0.7818608E-02  0.8822672E-01
          2   -1    0    0  501    0  0.00000000000E+00  0.00000000000E+00  0.16744997257E+04  0.16744997257E+04  0.00000000000E+00 0. -1.
         -2   -1    0    0    0  501 -0.00000000000E+00 -0.00000000000E+00 -0.15749704328E+04  0.15749704328E+04  0.00000000000E+00 0.  1.
         23    2    1    2    0    0 -0.10884049626E+04  0.11051046198E+04  0.27222517563E+03  0.15774314489E+04  0.91114468369E+02 0.  0.
    5000000    2    1    2    0    0  0.10884049626E+04 -0.11051046198E+04 -0.17269588277E+03  0.16720387096E+04  0.60000666242E+03 0.  0.
         23    2    4    4    0    0  0.43403428796E+03 -0.11536069185E+03 -0.15077441723E+03  0.48191553478E+03  0.88407043949E+02 0.  0.
         23    2    4    4    0    0  0.65437067463E+03 -0.98974392798E+03 -0.21921465537E+02  0.11901231748E+04  0.90103261251E+02 0.  0.
          1    1    3    3  502    0 -0.35530950157E+03  0.31000937480E+03  0.10510036531E+03  0.48311152041E+03  0.00000000000E+00 0. -1.
         -1    1    3    3    0  502 -0.73309546102E+03  0.79509524503E+03  0.16712481032E+03  0.10943199285E+04  0.00000000000E+00 0.  1.
         15    1    5    5    0    0  0.41217104381E+03 -0.11606322819E+03 -0.16129830933E+03  0.45757616264E+03  0.17770000000E+01 0. -1.
        -15    1    5    5    0    0  0.21863244150E+02  0.70253634003E+00  0.10523892103E+02  0.24339372138E+02  0.17770000000E+01 0.  1.
          4    1    6    6  503    0  0.51363576321E+03 -0.83859796659E+03 -0.17140665771E+02  0.98354565183E+03  0.00000000000E+00 0. -1.
         -4    1    6    6    0  503  0.14073491142E+03 -0.15114596139E+03 -0.47807997663E+01  0.20657752294E+03  0.00000000000E+00 0.  1.
<mgrwt>
<rscale>  0 0.15965465E+04</rscale>
<asrwt>0</asrwt>
<pdfrwt beam="1">  1        2 0.25761534E+00 0.15965465E+04</pdfrwt>
<pdfrwt beam="2">  1       -2 0.24230314E+00 0.15965465E+04</pdfrwt>
<totfact> 0.67585752E-01</totfact>
</mgrwt>
</event>
<event>
12    1  0.8033771E-008  0.7414436E+03  0.7818608E-02  0.9648870E-01
         -2   -1    0    0    0  501 -0.00000000000E+00  0.00000000000E+00  0.11984120140E+04  0.11984120140E+04  0.00000000000E+00 0.  1.
          2   -1    0    0  501    0  0.00000000000E+00 -0.00000000000E+00 -0.49724734291E+03  0.49724734291E+03  0.00000000000E+00 0. -1.
         23    2    1    2    0    0  0.49572441472E+03  0.40472688059E+03  0.16381068128E+03  0.66690903222E+03  0.91581519639E+02 0.  0.
    5000000    2    1    2    0    0 -0.49572441472E+03 -0.40472688059E+03  0.53735398983E+03  0.10287503247E+04  0.60002614690E+03 0.  0.
         23    2    4    4    0    0 -0.60876761696E+03 -0.39319952652E+03  0.42519303973E+03  0.84503029708E+03  0.89906633967E+02 0.  0.
         23    2    4    4    0    0  0.11304320224E+03 -0.11527354066E+02  0.11216095010E+03  0.18372002762E+03  0.90891827785E+02 0.  0.
          3    1    3    3  502    0  0.18774422080E+03  0.14144922877E+03  0.15981119333E+02  0.23560809184E+03  0.00000000000E+00 0. -1.
         -3    1    3    3    0  502  0.30798019392E+03  0.26327765182E+03  0.14782956194E+03  0.43130094039E+03  0.00000000000E+00 0.  1.
         15    1    5    5    0    0 -0.34829136170E+03 -0.20658553774E+03  0.28547777341E+03  0.49546460406E+03  0.17770000000E+01 0. -1.
        -15    1    5    5    0    0 -0.26047625526E+03 -0.18661398879E+03  0.13971526633E+03  0.34956569303E+03  0.17770000000E+01 0.  1.
          3    1    6    6  503    0  0.83747281400E+01  0.70629230084E+01  0.67549722947E+02  0.68432346322E+02  0.00000000000E+00 0. -1.
         -3    1    6    6    0  503  0.10466847410E+03 -0.18590277075E+02  0.44611227155E+02  0.11528768130E+03  0.00000000000E+00 0.  1.
<mgrwt>
<rscale>  0 0.74144357E+03</rscale>
<asrwt>0</asrwt>
<pdfrwt beam="1">  1        2 0.76499592E-01 0.74144357E+03</pdfrwt>
<pdfrwt beam="2">  1       -2 0.18437108E+00 0.74144357E+03</pdfrwt>
<totfact> 0.10676301E+01</totfact>
</mgrwt>
</event>
<event>
12    1  0.8033771E-008  0.1935406E+04  0.7818608E-02  0.8637430E-01
         -2   -1    0    0    0  501 -0.00000000000E+00  0.00000000000E+00  0.20976512124E+04  0.20976512124E+04  0.00000000000E+00 0. -1.
          2   -1    0    0  501    0  0.00000000000E+00 -0.00000000000E+00 -0.18988081575E+04  0.18988081575E+04  0.00000000000E+00 0.  1.
         23    2    1    2    0    0 -0.10194430311E+04 -0.16050459449E+04 -0.33386261626E+03  0.19326648458E+04  0.91063609104E+02 0.  0.
    5000000    2    1    2    0    0  0.10194430311E+04  0.16050459449E+04  0.53270567110E+03  0.20637945240E+04  0.60002993798E+03 0.  0.
         23    2    4    4    0    0  0.35639886169E+03  0.10181524701E+04  0.14212989699E+03  0.10917534374E+04  0.89833509430E+02 0.  0.
         23    2    4    4    0    0  0.66304416945E+03  0.58689347481E+03  0.39057577411E+03  0.97204108668E+03  0.90790514153E+02 0.  0.
          2    1    3    3  502    0 -0.89442521616E+03 -0.14552196623E+04 -0.28819162423E+03  0.17322572399E+04  0.00000000000E+00 0.  1.
         -2    1    3    3    0  502 -0.12501781499E+03 -0.14982628260E+03 -0.45670992030E+02  0.20040760598E+03  0.00000000000E+00 0. -1.
         15    1    5    5    0    0  0.19100363512E+03  0.63441267238E+03  0.54399859014E+02  0.66477389381E+03  0.17770000000E+01 0.  1.
        -15    1    5    5    0    0  0.16539522658E+03  0.38373979769E+03  0.87730037979E+02  0.42697954354E+03  0.17770000000E+01 0. -1.
          1    1    6    6  503    0  0.26909614479E+03  0.27419355947E+03  0.12998383444E+03  0.40557445729E+03  0.00000000000E+00 0. -1.
         -1    1    6    6    0  503  0.39394802467E+03  0.31269991534E+03  0.26059193967E+03  0.56646662939E+03  0.00000000000E+00 0.  1.
<mgrwt>
<rscale>  0 0.19354062E+04</rscale>
<asrwt>0</asrwt>
<pdfrwt beam="1">  1        2 0.29212433E+00 0.19354062E+04</pdfrwt>
<pdfrwt beam="2">  1       -2 0.32271557E+00 0.19354062E+04</pdfrwt>
<totfact> 0.15703882E-01</totfact>
</mgrwt>
</event>
<event>
12    1  0.8033771E-008  0.6255254E+03  0.7818608E-02  0.9853820E-01
          2   -1    0    0  501    0  0.00000000000E+00  0.00000000000E+00  0.29973703460E+04  0.29973703460E+04  0.00000000000E+00 0. -1.
         -2   -1    0    0    0  501 -0.00000000000E+00 -0.00000000000E+00 -0.28470623618E+03  0.28470623618E+03  0.00000000000E+00 0.  1.
         23    2    1    2    0    0  0.50344289249E+03  0.25991875350E+03  0.22783424407E+04  0.23495106053E+04  0.91341681288E+02 0.  0.
    5000000    2    1    2    0    0 -0.50344289249E+03 -0.25991875350E+03  0.43432166908E+03  0.93256597687E+03  0.60002623656E+03 0.  0.
         23    2    4    4    0    0 -0.28255531628E+03 -0.32973908354E+03  0.50683835178E+03  0.67353131065E+03  0.90520393391E+02 0.  0.
         23    2    4    4    0    0 -0.22088757621E+03  0.69820330048E+02 -0.72516682700E+02  0.25903466622E+03  0.90410669832E+02 0.  0.
          2    1    3    3  502    0  0.20098070324E+03  0.13727312701E+03  0.11147520278E+04  0.11410123741E+04  0.00000000000E+00 0. -1.
         -2    1    3    3    0  502  0.30246218925E+03  0.12264562648E+03  0.11635904130E+04  0.12084982312E+04  0.00000000000E+00 0.  1.
         15    1    5    5    0    0 -0.20077586483E+03 -0.23970826126E+03  0.42202211540E+03  0.52523977575E+03  0.17770000000E+01 0.  1.
        -15    1    5    5    0    0 -0.81779451444E+02 -0.90030822287E+02  0.84816236371E+02  0.14829153489E+03  0.17770000000E+01 0. -1.
          1    1    6    6  503    0 -0.16881635685E+03  0.12151343639E+02 -0.63674033215E+02  0.18083417818E+03  0.00000000000E+00 0. -1.
         -1    1    6    6    0  503 -0.52071219364E+02  0.57668986408E+02 -0.88426494845E+01  0.78200488037E+02  0.00000000000E+00 0.  1.
<mgrwt>
<rscale>  0 0.62552544E+03</rscale>
<asrwt>0</asrwt>
<pdfrwt beam="1">  1        2 0.46113388E+00 0.62552544E+03</pdfrwt>
<pdfrwt beam="2">  1       -2 0.43800961E-01 0.62552544E+03</pdfrwt>
<totfact> 0.94189894E+00</totfact>
</mgrwt>
</event>
<event>
12    1  0.8033771E-008  0.7570307E+03  0.7818608E-02  0.9624384E-01
          1   -1    0    0  501    0  0.00000000000E+00  0.00000000000E+00  0.54980997983E+03  0.54980997983E+03  0.00000000000E+00 0. -1.
         -1   -1    0    0    0  501 -0.00000000000E+00 -0.00000000000E+00 -0.13487750263E+04  0.13487750263E+04  0.00000000000E+00 0.  1.
         23    2    1    2    0    0 -0.57609167703E+03  0.33508770646E+03 -0.73979493978E+03  0.99992756355E+03  0.91614344202E+02 0.  0.
    5000000    2    1    2    0    0  0.57609167703E+03 -0.33508770646E+03 -0.59170106666E+02  0.89865744255E+03  0.59993225132E+03 0.  0.
         23    2    4    4    0    0  0.33838940898E+03  0.96219603048E+02 -0.14880471388E+03  0.39055832462E+03  0.81408586399E+02 0.  0.
         23    2    4    4    0    0  0.23770226804E+03 -0.43130730951E+03  0.89634607211E+02  0.50809911793E+03  0.87189376440E+02 0.  0.
          1    1    3    3  502    0 -0.96931749493E+02  0.80353183772E+02 -0.18570986131E+03  0.22436700022E+03  0.00000000000E+00 0. -1.
         -1    1    3    3    0  502 -0.47915992753E+03  0.25473452269E+03 -0.55408507848E+03  0.77556056333E+03  0.00000000000E+00 0.  1.
         15    1    5    5    0    0  0.30305686760E+03  0.92967054530E+02 -0.15751742023E+03  0.35397914293E+03  0.17770000000E+01 0.  1.
        -15    1    5    5    0    0  0.35332541378E+02  0.32525485173E+01  0.87127063485E+01  0.36579181689E+02  0.17770000000E+01 0. -1.
          2    1    6    6  503    0  0.94549201165E+02 -0.19420569241E+03  0.81964623320E+02  0.23102727519E+03  0.00000000000E+00 0. -1.
         -2    1    6    6    0  503  0.14315306688E+03 -0.23710161710E+03  0.76699838908E+01  0.27707184274E+03  0.00000000000E+00 0.  1.
<mgrwt>
<rscale>  0 0.75703074E+03</rscale>
<asrwt>0</asrwt>
<pdfrwt beam="1">  1        1 0.84586152E-01 0.75703074E+03</pdfrwt>
<pdfrwt beam="2">  1       -1 0.20750385E+00 0.75703074E+03</pdfrwt>
<totfact> 0.53697589E+00</totfact>
</mgrwt>
</event>
<event>
12    1  0.8033771E-008  0.1192690E+04  0.7818608E-02  0.9119279E-01
          1   -1    0    0  501    0  0.00000000000E+00  0.00000000000E+00  0.15371044001E+04  0.15371044001E+04  0.00000000000E+00 0. -1.
         -1   -1    0    0    0  501 -0.00000000000E+00 -0.00000000000E+00 -0.10207310319E+04  0.10207310319E+04  0.00000000000E+00 0.  1.
         23    2    1    2    0    0 -0.10179670220E+04 -0.59411443474E+03  0.21866413433E+03  0.12021564424E+04  0.90206923210E+02 0.  0.
    5000000    2    1    2    0    0  0.10179670220E+04  0.59411443474E+03  0.29770923390E+03  0.13556789896E+04  0.60000492969E+03 0.  0.
         23    2    4    4    0    0  0.97838150226E+02  0.56072351124E+01  0.21904084874E+03  0.25688572232E+03  0.91693163283E+02 0.  0.
         23    2    4    4    0    0  0.92012887173E+03  0.58850719963E+03  0.78668385162E+02  0.10987932673E+04  0.90443711114E+02 0.  0.
          3    1    3    3  502    0 -0.20936081088E+03 -0.86253460984E+02  0.59476177238E+02  0.23411327242E+03  0.00000000000E+00 0. -1.
         -3    1    3    3    0  502 -0.80860621108E+03 -0.50786097376E+03  0.15918795710E+03  0.96804316998E+03  0.00000000000E+00 0.  1.
         15    1    5    5    0    0  0.23001523336E+02 -0.21593391399E+02  0.99334112898E+01  0.33123632300E+02  0.17770000000E+01 0.  1.
        -15    1    5    5    0    0  0.74836626890E+02  0.27200626511E+02  0.20910743745E+03  0.22376209002E+03  0.17770000000E+01 0. -1.
          3    1    6    6  503    0  0.79933384705E+03  0.52545888034E+03  0.41147589226E+02  0.95746266667E+03  0.00000000000E+00 0. -1.
         -3    1    6    6    0  503  0.12079502468E+03  0.63048319286E+02  0.37520795936E+02  0.14133060065E+03  0.00000000000E+00 0.  1.
<mgrwt>
<rscale>  0 0.11926899E+04</rscale>
<asrwt>0</asrwt>
<pdfrwt beam="1">  1        1 0.23647760E+00 0.11926899E+04</pdfrwt>
<pdfrwt beam="2">  1       -1 0.15703554E+00 0.11926899E+04</pdfrwt>
<totfact> 0.18632164E+00</totfact>
</mgrwt>
</event>
<event>
12    1  0.8033771E-008  0.1216616E+04  0.7818608E-02  0.9098435E-01
          1   -1    0    0  501    0  0.00000000000E+00  0.00000000000E+00  0.13168737805E+04  0.13168737805E+04  0.00000000000E+00 0. -1.
         -1   -1    0    0    0  501 -0.00000000000E+00 -0.00000000000E+00 -0.12745113557E+04  0.12745113557E+04  0.00000000000E+00 0.  1.
         23    2    1    2    0    0 -0.43414399194E+03  0.11286375197E+04 -0.17279299466E+03  0.12244278235E+04  0.84038201378E+02 0.  0.
    5000000    2    1    2    0    0  0.43414399194E+03 -0.11286375197E+04  0.21515541941E+03  0.13669573127E+04  0.59998065265E+03 0.  0.
         23    2    4    4    0    0  0.27360557611E+03 -0.58707061718E+03  0.39985632885E+03  0.76562789244E+03  0.82395783363E+02 0.  0.
         23    2    4    4    0    0  0.16053841583E+03 -0.54156690253E+03 -0.18470090944E+03  0.60132942025E+03  0.91735232238E+02 0.  0.
          3    1    3    3  502    0 -0.21718554595E+03  0.67625672371E+03 -0.11168644990E+03  0.71900388095E+03  0.00000000000E+00 0. -1.
         -3    1    3    3    0  502 -0.21695844598E+03  0.45238079601E+03 -0.61106544752E+02  0.50542394254E+03  0.00000000000E+00 0.  1.
         15    1    5    5    0    0  0.17532272562E+03 -0.27875549744E+03  0.20182873009E+03  0.38623914806E+03  0.17770000000E+01 0.  1.
        -15    1    5    5    0    0  0.98282850487E+02 -0.30831511974E+03  0.19802759876E+03  0.37938874438E+03  0.17770000000E+01 0. -1.
          4    1    6    6  503    0  0.10431159262E+03 -0.24199342208E+03 -0.50610700092E+02  0.26833405980E+03  0.00000000000E+00 0. -1.
         -4    1    6    6    0  503  0.56226823215E+02 -0.29957348045E+03 -0.13409020935E+03  0.33299536045E+03  0.00000000000E+00 0.  1.
<mgrwt>
<rscale>  0 0.12166163E+04</rscale>
<asrwt>0</asrwt>
<pdfrwt beam="1">  1        1 0.20259597E+00 0.12166163E+04</pdfrwt>
<pdfrwt beam="2">  1       -1 0.19607867E+00 0.12166163E+04</pdfrwt>
<totfact> 0.13786203E+00</totfact>
</mgrwt>
</event>
<event>
12    1  0.8033771E-008  0.1126380E+04  0.7818608E-02  0.9179855E-01
          2   -1    0    0  501    0  0.00000000000E+00  0.00000000000E+00  0.15377149781E+04  0.15377149781E+04  0.00000000000E+00 0. -1.
         -2   -1    0    0    0  501 -0.00000000000E+00 -0.00000000000E+00 -0.86479438352E+03  0.86479438352E+03  0.00000000000E+00 0.  1.
         23    2    1    2    0    0 -0.68433312576E+03  0.81767240941E+03  0.43981936962E+03  0.11570265850E+04  0.91484667884E+02 0.  0.
    5000000    2    1    2    0    0  0.68433312576E+03 -0.81767240941E+03  0.23310122495E+03  0.12454827766E+04  0.59999264126E+03 0.  0.
         23    2    4    4    0    0  0.60045392592E+03 -0.33170960411E+03 -0.11421212855E+01  0.69201745595E+03  0.91162910734E+02 0.  0.
         23    2    4    4    0    0  0.83879199847E+02 -0.48596280530E+03  0.23424334623E+03  0.55346532063E+03  0.90875450956E+02 0.  0.
          1    1    3    3  502    0 -0.60170921554E+03  0.75662680921E+03  0.38473633798E+03  0.10404615121E+04  0.00000000000E+00 0. -1.
         -1    1    3    3    0  502 -0.82623910221E+02  0.61045600199E+02  0.55083031648E+02  0.11656507290E+03  0.00000000000E+00 0.  1.
         15    1    5    5    0    0  0.10493555525E+03 -0.85581330369E+02 -0.27187528419E+02  0.13812296802E+03  0.17770000000E+01 0.  1.
        -15    1    5    5    0    0  0.49551837066E+03 -0.24612827374E+03  0.26045407134E+02  0.55389448793E+03  0.17770000000E+01 0. -1.
          4    1    6    6  503    0  0.25091312084E+02 -0.25707789536E+03  0.16768881110E+03  0.30795804194E+03  0.00000000000E+00 0. -1.
         -4    1    6    6    0  503  0.58787887764E+02 -0.22888490994E+03  0.66554535129E+02  0.24550727869E+03  0.00000000000E+00 0.  1.
<mgrwt>
<rscale>  0 0.11263802E+04</rscale>
<asrwt>0</asrwt>
<pdfrwt beam="1">  1        2 0.23657154E+00 0.11263802E+04</pdfrwt>
<pdfrwt beam="2">  1       -2 0.13304529E+00 0.11263802E+04</pdfrwt>
<totfact> 0.48525634E+00</totfact>
</mgrwt>
</event>
<event>
12    1  0.8033771E-008  0.1165267E+04  0.7818608E-02  0.9143814E-01
          2   -1    0    0  501    0  0.00000000000E+00  0.00000000000E+00  0.21368297164E+04  0.21368297164E+04  0.00000000000E+00 0. -1.
         -2   -1    0    0    0  501 -0.00000000000E+00 -0.00000000000E+00 -0.77357955056E+03  0.77357955056E+03  0.00000000000E+00 0.  1.
         23    2    1    2    0    0 -0.62405160523E+03  0.95357034080E+03  0.17218864987E+03  0.11561196269E+04  0.90702038021E+02 0.  0.
    5000000    2    1    2    0    0  0.62405160523E+03 -0.95357034080E+03  0.11910615160E+04  0.17542896401E+04  0.60013982167E+03 0.  0.
         23    2    4    4    0    0  0.13801401319E+02 -0.35083431655E+02  0.35557428787E+03  0.36783579662E+03  0.86306275698E+02 0.  0.
         23    2    4    4    0    0  0.61025020391E+03 -0.91848690915E+03  0.83548722811E+03  0.13864538434E+04  0.90508773202E+02 0.  0.
          2    1    3    3  502    0 -0.25716029766E+03  0.46941881709E+03  0.63289182257E+02  0.53897213761E+03  0.00000000000E+00 0. -1.
         -2    1    3    3    0  502 -0.36689130757E+03  0.48415152371E+03  0.10889946761E+03  0.61714748929E+03  0.00000000000E+00 0.  1.
         15    1    5    5    0    0  0.31152865734E+02  0.12845042699E+02  0.69597591668E+02  0.77346484473E+02  0.17770000000E+01 0. -1.
        -15    1    5    5    0    0 -0.17351464414E+02 -0.47928474354E+02  0.28597669620E+03  0.29048931215E+03  0.17770000000E+01 0.  1.
          3    1    6    6  503    0  0.36298154649E+03 -0.52171628935E+03  0.42761156858E+03  0.76602555000E+03  0.00000000000E+00 0. -1.
         -3    1    6    6    0  503  0.24726865743E+03 -0.39677061980E+03  0.40787565952E+03  0.62042829345E+03  0.00000000000E+00 0.  1.
<mgrwt>
<rscale>  0 0.11652666E+04</rscale>
<asrwt>0</asrwt>
<pdfrwt beam="1">  1        2 0.32874303E+00 0.11652666E+04</pdfrwt>
<pdfrwt beam="2">  1       -2 0.11901224E+00 0.11652666E+04</pdfrwt>
<totfact> 0.29798530E+00</totfact>
</mgrwt>
</event>
<event>
12    1  0.8033771E-008  0.5061776E+03  0.7818608E-02  0.1012179E+00
          2   -1    0    0  501    0  0.00000000000E+00  0.00000000000E+00  0.19043350623E+04  0.19043350623E+04  0.00000000000E+00 0. -1.
         -2   -1    0    0    0  501 -0.00000000000E+00 -0.00000000000E+00 -0.21547184836E+03  0.21547184836E+03  0.00000000000E+00 0.  1.
         23    2    1    2    0    0  0.48520537116E+03 -0.19852138359E+02  0.50726010260E+03  0.70846394004E+03  0.93754909442E+02 0.  0.
    5000000    2    1    2    0    0 -0.48520537116E+03  0.19852138359E+02  0.11816031113E+04  0.14113429706E+04  0.59990391597E+03 0.  0.
         23    2    4    4    0    0 -0.44960565460E+03  0.32742721835E+02  0.36001052005E+03  0.58383661748E+03  0.89667669104E+02 0.  0.
         23    2    4    4    0    0 -0.35599716563E+02 -0.12890583476E+02  0.82159259123E+03  0.82750635310E+03  0.91207847724E+02 0.  0.
          1    1    3    3  502    0  0.28377045025E+03 -0.40380106080E+02  0.24452692681E+03  0.37676204604E+03  0.00000000000E+00 0. -1.
         -1    1    3    3    0  502  0.20143492091E+03  0.20527967720E+02  0.26273317579E+03  0.33170189400E+03  0.00000000000E+00 0.  1.
         15    1    5    5    0    0 -0.40450751982E+03  0.39523214310E+02  0.35163003214E+03  0.53743395436E+03  0.17770000000E+01 0.  1.
        -15    1    5    5    0    0 -0.45098134774E+02 -0.67804924748E+01  0.83804879122E+01  0.46402663123E+02  0.17770000000E+01 0. -1.
          2    1    6    6  503    0  0.16825660290E+02  0.12487546434E+01  0.56403701857E+03  0.56428930572E+03  0.00000000000E+00 0. -1.
         -2    1    6    6    0  503 -0.52425376853E+02 -0.14139338119E+02  0.25755557266E+03  0.26321704737E+03  0.00000000000E+00 0.  1.
<mgrwt>
<rscale>  0 0.50617756E+03</rscale>
<asrwt>0</asrwt>
<pdfrwt beam="1">  1        2 0.29297461E+00 0.50617756E+03</pdfrwt>
<pdfrwt beam="2">  1       -2 0.33149517E-01 0.50617756E+03</pdfrwt>
<totfact> 0.68071903E+01</totfact>
</mgrwt>
</event>
<event>
12    1  0.8033771E-008  0.6363640E+03  0.7818608E-02  0.9832708E-01
          1   -1    0    0  501    0  0.00000000000E+00  0.00000000000E+00  0.58354511194E+03  0.58354511194E+03  0.00000000000E+00 0. -1.
         -1   -1    0    0    0  501 -0.00000000000E+00 -0.00000000000E+00 -0.72847051389E+03  0.72847051389E+03  0.00000000000E+00 0.  1.
         23    2    1    2    0    0 -0.34617544359E+02  0.50499654487E+03 -0.11144024291E+03  0.52631441539E+03  0.91477053952E+02 0.  0.
    5000000    2    1    2    0    0  0.34617544359E+02 -0.50499654487E+03 -0.33485159040E+02  0.78570121044E+03  0.59998770946E+03 0.  0.
         23    2    4    4    0    0  0.18686371797E+03 -0.54524498952E+03  0.50649453534E+02  0.58567392778E+03  0.90765824168E+02 0.  0.
         23    2    4    4    0    0 -0.15224617361E+03  0.40248444651E+02 -0.84134612575E+02  0.20002728266E+03  0.90185620252E+02 0.  0.
          2    1    3    3  502    0 -0.41403900914E+02  0.22641937367E+03 -0.12151954063E+02  0.23049443762E+03  0.00000000000E+00 0. -1.
         -2    1    3    3    0  502  0.67863565547E+01  0.27857717120E+03 -0.99288288842E+02  0.29581997777E+03  0.00000000000E+00 0.  1.
         15    1    5    5    0    0  0.88795237408E+02 -0.38108144421E+03  0.18282511538E+02  0.39172065208E+03  0.17770000000E+01 0.  1.
        -15    1    5    5    0    0  0.98068480565E+02 -0.16416354531E+03  0.32366941997E+02  0.19395327570E+03  0.17770000000E+01 0. -1.
          2    1    6    6  503    0 -0.37018790764E+02 -0.28917608649E+02 -0.18825718858E+02  0.50606587023E+02  0.00000000000E+00 0.  1.
         -2    1    6    6    0  503 -0.11522738285E+03  0.69166053300E+02 -0.65308893717E+02  0.14942069564E+03  0.00000000000E+00 0. -1.
<mgrwt>
<rscale>  0 0.63636398E+03</rscale>
<asrwt>0</asrwt>
<pdfrwt beam="1">  1        1 0.89776171E-01 0.63636398E+03</pdfrwt>
<pdfrwt beam="2">  1       -1 0.11207239E+00 0.63636398E+03</pdfrwt>
<totfact> 0.27013507E+01</totfact>
</mgrwt>
</event>
<event>
12    1  0.8033771E-008  0.3870493E+03  0.7818608E-02  0.1048359E+00
          3   -1    0    0  501    0  0.00000000000E+00  0.00000000000E+00  0.29995517449E+03  0.29995517449E+03  0.00000000000E+00 0. -1.
         -3   -1    0    0    0  501 -0.00000000000E+00 -0.00000000000E+00 -0.68058033520E+03  0.68058033520E+03  0.00000000000E+00 0.  1.
         23    2    1    2    0    0 -0.19568463170E+03  0.14020226262E+03 -0.12159432745E+03  0.28407851310E+03  0.89253972525E+02 0.  0.
    5000000    2    1    2    0    0  0.19568463170E+03 -0.14020226262E+03 -0.25903083325E+03  0.69645699659E+03  0.60000518831E+03 0.  0.
         23    2    4    4    0    0  0.28141345156E+03 -0.25154276746E+03 -0.70914635435E+00  0.38843918043E+03  0.91745296498E+02 0.  0.
         23    2    4    4    0    0 -0.85728819854E+02  0.11134050484E+03 -0.25832168690E+03  0.30801781615E+03  0.91644653822E+02 0.  0.
          3    1    3    3  502    0 -0.15232624939E+03  0.12526616978E+03 -0.13166114172E+03  0.23712772040E+03  0.00000000000E+00 0. -1.
         -3    1    3    3    0  502 -0.43358382315E+02  0.14936092837E+02  0.10066814263E+02  0.46950792705E+02  0.00000000000E+00 0.  1.
         15    1    5    5    0    0  0.18104226979E+03 -0.20394982090E+03  0.26667339684E+02  0.27401849870E+03  0.17770000000E+01 0. -1.
        -15    1    5    5    0    0  0.10037118176E+03 -0.47592946560E+02 -0.27376486039E+02  0.11442068173E+03  0.17770000000E+01 0.  1.
          2    1    6    6  503    0 -0.57040612716E+02  0.10230000341E+03 -0.25111461163E+03  0.27708747783E+03  0.00000000000E+00 0.  1.
         -2    1    6    6    0  503 -0.28688207138E+02  0.90405014377E+01 -0.72070752701E+01  0.30930338327E+02  0.00000000000E+00 0. -1.
<mgrwt>
<rscale>  0 0.38704933E+03</rscale>
<asrwt>0</asrwt>
<pdfrwt beam="1">  1        3 0.46146951E-01 0.38704933E+03</pdfrwt>
<pdfrwt beam="2">  1       -3 0.10470466E+00 0.38704933E+03</pdfrwt>
<totfact> 0.95185051E+00</totfact>
</mgrwt>
</event>
<event>
12    1  0.8033771E-008  0.4715658E+03  0.7818608E-02  0.1021479E+00
          2   -1    0    0  501    0  0.00000000000E+00  0.00000000000E+00  0.12508038684E+04  0.12508038684E+04  0.00000000000E+00 0. -1.
         -2   -1    0    0    0  501 -0.00000000000E+00 -0.00000000000E+00 -0.19270613826E+03  0.19270613826E+03  0.00000000000E+00 0.  1.
         23    2    1    2    0    0 -0.15672312625E+03 -0.24517027661E+03  0.23934369789E+03  0.38761356482E+03  0.91039920231E+02 0.  0.
    5000000    2    1    2    0    0  0.15672312625E+03  0.24517027661E+03  0.81875403227E+03  0.10558964419E+04  0.59990709928E+03 0.  0.
         23    2    4    4    0    0  0.29979234233E+03  0.33639574647E+03  0.47183577231E+03  0.65883737021E+03  0.91652264498E+02 0.  0.
         23    2    4    4    0    0 -0.14306921607E+03 -0.91225469865E+02  0.34691825996E+03  0.39705907166E+03  0.92264512991E+02 0.  0.
          1    1    3    3  502    0 -0.69721247127E+02 -0.18615181633E+03  0.17109142471E+03  0.26227052185E+03  0.00000000000E+00 0. -1.
         -1    1    3    3    0  502 -0.87001879128E+02 -0.59018460276E+02  0.68252273188E+02  0.12534304297E+03  0.00000000000E+00 0.  1.
         15    1    5    5    0    0  0.18364576744E+02  0.41531537215E+00  0.64162212140E+01  0.19538571839E+02  0.17770000000E+01 0. -1.
        -15    1    5    5    0    0  0.28142776558E+03  0.33598043110E+03  0.46541955110E+03  0.63929879837E+03  0.17770000000E+01 0.  1.
          3    1    6    6  503    0 -0.73665226281E+02 -0.85485595863E+02  0.14674371101E+03  0.18511636714E+03  0.00000000000E+00 0. -1.
         -3    1    6    6    0  503 -0.69403989792E+02 -0.57398740025E+01  0.20017454895E+03  0.21194270452E+03  0.00000000000E+00 0.  1.
<mgrwt>
<rscale>  0 0.47156580E+03</rscale>
<asrwt>0</asrwt>
<pdfrwt beam="1">  1        2 0.19243136E+00 0.47156580E+03</pdfrwt>
<pdfrwt beam="2">  1       -2 0.29647099E-01 0.47156580E+03</pdfrwt>
<totfact> 0.19192936E+02</totfact>
</mgrwt>
</event>
<event>
12    1  0.8033771E-008  0.4476108E+03  0.7818608E-02  0.1028437E+00
          1   -1    0    0  501    0  0.00000000000E+00  0.00000000000E+00  0.26475873845E+04  0.26475873845E+04  0.00000000000E+00 0. -1.
         -1   -1    0    0    0  501 -0.00000000000E+00 -0.00000000000E+00 -0.17427366067E+03  0.17427366067E+03  0.00000000000E+00 0.  1.
         23    2    1    2    0    0  0.37817058560E+03 -0.15421240480E+03  0.25674020770E+03  0.48943674085E+03  0.82694204360E+02 0.  0.
    5000000    2    1    2    0    0 -0.37817058560E+03  0.15421240480E+03  0.22165735162E+04  0.23324243044E+04  0.60017541218E+03 0.  0.
         23    2    4    4    0    0 -0.60104349451E+02 -0.31548660825E+02  0.36233813895E+02  0.11920506809E+03  0.91044539458E+02 0.  0.
         23    2    4    4    0    0 -0.31806623615E+03  0.18576106563E+03  0.21803397023E+04  0.22132192363E+04  0.93727618264E+02 0.  0.
          3    1    3    3  502    0  0.16605642909E+03 -0.46717855942E+02  0.15073692431E+03  0.22908277119E+03  0.00000000000E+00 0. -1.
         -3    1    3    3    0  502  0.21211415651E+03 -0.10749454886E+03  0.10600328339E+03  0.26035396965E+03  0.00000000000E+00 0.  1.
         15    1    5    5    0    0 -0.68718026487E+02 -0.52688635449E+02  0.40988574874E+02  0.95820042104E+02  0.17770000000E+01 0. -1.
        -15    1    5    5    0    0  0.86136770358E+01  0.21139974624E+02 -0.47547609790E+01  0.23385025981E+02  0.17770000000E+01 0.  1.
          2    1    6    6  503    0 -0.84440983847E+02  0.88589833499E+02  0.55777805005E+03  0.57104710092E+03  0.00000000000E+00 0. -1.
         -2    1    6    6    0  503 -0.23362525230E+03  0.97171232128E+02  0.16225616522E+04  0.16421721353E+04  0.00000000000E+00 0.  1.
<mgrwt>
<rscale>  0 0.44761079E+03</rscale>
<asrwt>0</asrwt>
<pdfrwt beam="1">  1        1 0.40732111E+00 0.44761079E+03</pdfrwt>
<pdfrwt beam="2">  1       -1 0.26811334E-01 0.44761079E+03</pdfrwt>
<totfact> 0.14851865E+01</totfact>
</mgrwt>
</event>
<event>
12    1  0.8033771E-008  0.8009393E+03  0.7818608E-02  0.9558658E-01
         -1   -1    0    0    0  501 -0.00000000000E+00  0.00000000000E+00  0.62843942280E+03  0.62843942280E+03  0.00000000000E+00 0.  1.
          1   -1    0    0  501    0  0.00000000000E+00 -0.00000000000E+00 -0.12126923291E+04  0.12126923291E+04  0.00000000000E+00 0. -1.
         23    2    1    2    0    0 -0.67345859597E+03  0.31410765611E+03 -0.45865918150E+03  0.87791137920E+03  0.90277598792E+02 0.  0.
    5000000    2    1    2    0    0  0.67345859597E+03 -0.31410765611E+03 -0.12559372477E+03  0.96322037267E+03  0.59984131444E+03 0.  0.
         23    2    4    4    0    0  0.25335820926E+03 -0.34911435915E+03  0.13242356246E+03  0.46052459811E+03  0.92063497680E+02 0.  0.
         23    2    4    4    0    0  0.42010038671E+03  0.35006703043E+02 -0.25801728723E+03  0.50269577456E+03  0.91762285705E+02 0.  0.
          4    1    3    3  502    0 -0.45601966234E+03  0.24558234036E+03 -0.35185715885E+03  0.62615339860E+03  0.00000000000E+00 0. -1.
         -4    1    3    3    0  502 -0.21743893363E+03  0.68525315749E+02 -0.10680202265E+03  0.25175798061E+03  0.00000000000E+00 0.  1.
         15    1    5    5    0    0  0.90340191147E+02 -0.16473792297E+03  0.98309830244E+02  0.21205639309E+03  0.17770000000E+01 0.  1.
        -15    1    5    5    0    0  0.16301801812E+03 -0.18437643618E+03  0.34113732215E+02  0.24846820502E+03  0.17770000000E+01 0. -1.
          1    1    6    6  503    0  0.28983888304E+03  0.32580831770E+02 -0.22480138440E+03  0.36824414612E+03  0.00000000000E+00 0. -1.
         -1    1    6    6    0  503  0.13026150367E+03  0.24258712729E+01 -0.33215902827E+02  0.13445162844E+03  0.00000000000E+00 0.  1.
<mgrwt>
<rscale>  0 0.80093933E+03</rscale>
<asrwt>0</asrwt>
<pdfrwt beam="1">  1        1 0.18656805E+00 0.80093933E+03</pdfrwt>
<pdfrwt beam="2">  1       -1 0.96682990E-01 0.80093933E+03</pdfrwt>
<totfact> 0.11057028E+01</totfact>
</mgrwt>
</event>
<event>
12    1  0.8033771E-008  0.5589752E+03  0.7818608E-02  0.9994376E-01
         -2   -1    0    0    0  501 -0.00000000000E+00  0.00000000000E+00  0.51851555982E+03  0.51851555982E+03  0.00000000000E+00 0.  1.
          2   -1    0    0  501    0  0.00000000000E+00 -0.00000000000E+00 -0.10449455460E+04  0.10449455460E+04  0.00000000000E+00 0. -1.
         23    2    1    2    0    0 -0.39059680786E+03 -0.15605043440E+03 -0.68941996081E+03  0.81280740142E+03  0.91860682861E+02 0.  0.
    5000000    2    1    2    0    0  0.39059680786E+03  0.15605043440E+03  0.16298997461E+03  0.75065370441E+03  0.59999803978E+03 0.  0.
         23    2    4    4    0    0  0.49837790351E+03 -0.75392237620E+01  0.16948736762E+03  0.53436553592E+03  0.91559726914E+02 0.  0.
         23    2    4    4    0    0 -0.10778109565E+03  0.16358965816E+03 -0.64973930176E+01  0.21628816849E+03  0.91433116955E+02 0.  0.
          4    1    3    3  502    0 -0.36812226350E+03 -0.15867329935E+03 -0.60763598847E+03  0.72795103633E+03  0.00000000000E+00 0. -1.
         -4    1    3    3    0  502 -0.22474544358E+02  0.26228649486E+01 -0.81783972338E+02  0.84856365089E+02  0.00000000000E+00 0.  1.
         15    1    5    5    0    0  0.26553067136E+03  0.56558577885E+00  0.13799004990E+03  0.29925118031E+03  0.17770000000E+01 0.  1.
        -15    1    5    5    0    0  0.23284723216E+03 -0.81048095408E+01  0.31497317722E+02  0.23511435561E+03  0.17770000000E+01 0. -1.
          3    1    6    6  503    0 -0.46688942893E+02  0.73634974915E+02  0.42528578135E+02  0.97008488687E+02  0.00000000000E+00 0. -1.
         -3    1    6    6    0  503 -0.61092152757E+02  0.89954683248E+02 -0.49025971153E+02  0.11927967980E+03  0.00000000000E+00 0.  1.
<mgrwt>
<rscale>  0 0.55897516E+03</rscale>
<asrwt>0</asrwt>
<pdfrwt beam="1">  1        2 0.16076085E+00 0.55897516E+03</pdfrwt>
<pdfrwt beam="2">  1       -2 0.79771625E-01 0.55897516E+03</pdfrwt>
<totfact> 0.34065644E+01</totfact>
</mgrwt>
</event>
<event>
12    1  0.8033771E-008  0.3723976E+03  0.7818608E-02  0.1053780E+00
          2   -1    0    0  501    0  0.00000000000E+00  0.00000000000E+00  0.14577293056E+04  0.14577293056E+04  0.00000000000E+00 0. -1.
         -2   -1    0    0    0  501 -0.00000000000E+00 -0.00000000000E+00 -0.18437675741E+03  0.18437675741E+03  0.00000000000E+00 0.  1.
         23    2    1    2    0    0  0.53808016250E+02 -0.27011848081E+03  0.12400639088E+03  0.31667530378E+03  0.95112390139E+02 0.  0.
    5000000    2    1    2    0    0 -0.53808016250E+02  0.27011848081E+03  0.11493461573E+04  0.13254307592E+04  0.59992567198E+03 0.  0.
         23    2    4    4    0    0 -0.55781192325E+02 -0.58958411784E+02 -0.51202474611E+01  0.12157204129E+03  0.90365416792E+02 0.  0.
         23    2    4    4    0    0  0.19731760756E+01  0.32907689259E+03  0.11544664047E+04  0.12038587179E+04  0.90485569931E+02 0.  0.
          3    1    3    3  502    0  0.61960272615E+02 -0.80725603843E+02  0.40401267089E+02  0.10948954690E+03  0.00000000000E+00 0. -1.
         -3    1    3    3    0  502 -0.81522563654E+01 -0.18939287696E+03  0.83605123787E+02  0.20718575688E+03  0.00000000000E+00 0.  1.
         15    1    5    5    0    0 -0.20095469686E+01 -0.66663633794E+02  0.20628316435E+01  0.66749467062E+02  0.17770000000E+01 0.  1.
        -15    1    5    5    0    0 -0.53771645357E+02  0.77052220096E+01 -0.71830791046E+01  0.54822574228E+02  0.17770000000E+01 0. -1.
          3    1    6    6  503    0 -0.22414467814E+02  0.16581876559E+03  0.44439057070E+03  0.47484866085E+03  0.00000000000E+00 0. -1.
         -3    1    6    6    0  503  0.24387643890E+02  0.16325812700E+03  0.71007583403E+03  0.72901005705E+03  0.00000000000E+00 0.  1.
<mgrwt>
<rscale>  0 0.37239759E+03</rscale>
<asrwt>0</asrwt>
<pdfrwt beam="1">  1        2 0.22426604E+00 0.37239759E+03</pdfrwt>
<pdfrwt beam="2">  1       -2 0.28365656E-01 0.37239759E+03</pdfrwt>
<totfact> 0.16150020E+02</totfact>
</mgrwt>
</event>
<event>
12    1  0.8033771E-008  0.6919201E+03  0.7818608E-02  0.9731151E-01
          1   -1    0    0  501    0  0.00000000000E+00  0.00000000000E+00  0.75424783500E+03  0.75424783500E+03  0.00000000000E+00 0. -1.
         -1   -1    0    0    0  501 -0.00000000000E+00 -0.00000000000E+00 -0.13865637416E+04  0.13865637416E+04  0.00000000000E+00 0.  1.
         23    2    1    2    0    0  0.19558685264E+03 -0.60018625401E+03  0.42851754185E+03  0.76843636598E+03  0.91593714115E+02 0.  0.
    5000000    2    1    2    0    0 -0.19558685264E+03  0.60018625401E+03 -0.10608334485E+04  0.13723752106E+04  0.59964018958E+03 0.  0.
         23    2    4    4    0    0 -0.88690211238E+02  0.60946086260E+03 -0.10621166366E+04  0.12312262989E+04  0.92292755399E+02 0.  0.
         23    2    4    4    0    0 -0.10689664140E+03 -0.92746085955E+01  0.12831881105E+01  0.14114891177E+03  0.91697646732E+02 0.  0.
          3    1    3    3  502    0  0.10175436334E+03 -0.29079000609E+03  0.26376540460E+03  0.40556746265E+03  0.00000000000E+00 0. -1.
         -3    1    3    3    0  502  0.93832489301E+02 -0.30939624792E+03  0.16475213725E+03  0.36286890333E+03  0.00000000000E+00 0.  1.
         15    1    5    5    0    0 -0.78572468804E+01  0.11362824521E+03 -0.13409190982E+03  0.17594576564E+03  0.17770000000E+01 0.  1.
        -15    1    5    5    0    0 -0.80832964358E+02  0.49583261740E+03 -0.92802472677E+03  0.10552805332E+04  0.17770000000E+01 0.  1.
          3    1    6    6  503    0 -0.10186956358E+03  0.22216808039E+02 -0.15007767247E+02  0.10533863309E+03  0.00000000000E+00 0. -1.
         -3    1    6    6    0  503 -0.50270778198E+01 -0.31491416634E+02  0.16290955357E+02  0.35810278685E+02  0.00000000000E+00 0.  1.
<mgrwt>
<rscale>  0 0.69192007E+03</rscale>
<asrwt>0</asrwt>
<pdfrwt beam="1">  1        1 0.11603813E+00 0.69192007E+03</pdfrwt>
<pdfrwt beam="2">  1       -1 0.21331750E+00 0.69192007E+03</pdfrwt>
<totfact> 0.31137322E+00</totfact>
</mgrwt>
</event>
<event>
12    1  0.8033771E-008  0.4369297E+03  0.7818608E-02  0.1031693E+00
          2   -1    0    0  501    0  0.00000000000E+00  0.00000000000E+00  0.79054237220E+03  0.79054237220E+03  0.00000000000E+00 0. -1.
         -2   -1    0    0    0  501 -0.00000000000E+00 -0.00000000000E+00 -0.29136124658E+03  0.29136124658E+03  0.00000000000E+00 0.  1.
         23    2    1    2    0    0  0.36246581308E+02 -0.28011623147E+03  0.15240185613E+03  0.33357619292E+03  0.90927624744E+02 0.  0.
    5000000    2    1    2    0    0 -0.36246581308E+02  0.28011623147E+03  0.34677926949E+03  0.74832742586E+03  0.59996596301E+03 0.  0.
         23    2    4    4    0    0 -0.25483606541E+03  0.66576659462E+02 -0.18308339627E+01  0.27590533458E+03  0.82137262433E+02 0.  0.
         23    2    4    4    0    0  0.21858948410E+03  0.21353957200E+03  0.34861010345E+03  0.47242209129E+03  0.90956675040E+02 0.  0.
          1    1    3    3  502    0  0.16768429021E+02 -0.35903376318E+02 -0.84297131769E+01  0.40512870882E+02  0.00000000000E+00 0. -1.
         -1    1    3    3    0  502  0.19478152287E+02 -0.24421285515E+03  0.16083156931E+03  0.29306332204E+03  0.00000000000E+00 0.  1.
         15    1    5    5    0    0 -0.16841209101E+03  0.29422915609E+01  0.27386868954E+01  0.16846942634E+03  0.17770000000E+01 0. -1.
        -15    1    5    5    0    0 -0.86423974398E+02  0.63634367901E+02 -0.45695208581E+01  0.10743590824E+03  0.17770000000E+01 0.  1.
          2    1    6    6  503    0  0.21661928787E+03  0.18504324088E+03  0.33775785404E+03  0.44186568643E+03  0.00000000000E+00 0. -1.
         -2    1    6    6    0  503  0.19701962236E+01  0.28496331120E+02  0.10852249412E+02  0.30556404856E+02  0.00000000000E+00 0.  1.
<mgrwt>
<rscale>  0 0.43692967E+03</rscale>
<asrwt>0</asrwt>
<pdfrwt beam="1">  1        2 0.12162190E+00 0.43692967E+03</pdfrwt>
<pdfrwt beam="2">  1       -2 0.44824807E-01 0.43692967E+03</pdfrwt>
<totfact> 0.17059133E+02</totfact>
</mgrwt>
</event>
<event>
12    1  0.8033771E-008  0.1297793E+04  0.7818608E-02  0.9031318E-01
          2   -1    0    0  501    0  0.00000000000E+00  0.00000000000E+00  0.24063268297E+04  0.24063268297E+04  0.00000000000E+00 0. -1.
         -2   -1    0    0    0  501 -0.00000000000E+00 -0.00000000000E+00 -0.70581961500E+03  0.70581961500E+03  0.00000000000E+00 0.  1.
         23    2    1    2    0    0 -0.64873388994E+03 -0.10463862599E+04  0.87185829484E+03  0.15113452752E+04  0.90817343274E+02 0.  0.
    5000000    2    1    2    0    0  0.64873388994E+03  0.10463862599E+04  0.82864891991E+03  0.16008011695E+04  0.60010456335E+03 0.  0.
         23    2    4    4    0    0  0.30458638870E+03  0.68142403793E+02  0.24225702920E+03  0.40597449847E+03  0.93330433565E+02 0.  0.
         23    2    4    4    0    0  0.34414750124E+03  0.97824385610E+03  0.58639189070E+03  0.11948266710E+04  0.91415423886E+02 0.  0.
          3    1    3    3  502    0 -0.36224636168E+03 -0.52767961374E+03  0.49453134302E+03  0.80884451567E+03  0.00000000000E+00 0.  1.
         -3    1    3    3    0  502 -0.28648752827E+03 -0.51870664616E+03  0.37732695182E+03  0.70250075957E+03  0.00000000000E+00 0. -1.
         15    1    5    5    0    0  0.25335640325E+03  0.90460535631E+02  0.21115350645E+03  0.34199639850E+03  0.17770000000E+01 0.  1.
        -15    1    5    5    0    0  0.51229985455E+02 -0.22318131838E+02  0.31103522754E+02  0.63978099965E+02  0.17770000000E+01 0. -1.
          2    1    6    6  503    0  0.19742901032E+03  0.62789962314E+03  0.32767657310E+03  0.73526055750E+03  0.00000000000E+00 0. -1.
         -2    1    6    6    0  503  0.14671849092E+03  0.35034423296E+03  0.25871531761E+03  0.45956611354E+03  0.00000000000E+00 0.  1.
<mgrwt>
<rscale>  0 0.12977926E+04</rscale>
<asrwt>0</asrwt>
<pdfrwt beam="1">  1        2 0.37020412E+00 0.12977926E+04</pdfrwt>
<pdfrwt beam="2">  1       -2 0.10858763E+00 0.12977926E+04</pdfrwt>
<totfact> 0.25940823E+00</totfact>
</mgrwt>
</event>
<event>
12    1  0.8033771E-008  0.4146695E+03  0.7818608E-02  0.1038815E+00
          2   -1    0    0  501    0  0.00000000000E+00  0.00000000000E+00  0.22585140045E+04  0.22585140045E+04  0.00000000000E+00 0. -1.
         -2   -1    0    0    0  501 -0.00000000000E+00 -0.00000000000E+00 -0.83950200296E+02  0.83950200296E+02  0.00000000000E+00 0.  1.
         23    2    1    2    0    0  0.13190501192E+03 -0.15423401826E+03  0.39714966750E+03  0.45561804522E+03  0.93128299513E+02 0.  0.
    5000000    2    1    2    0    0 -0.13190501192E+03  0.15423401826E+03  0.17774141367E+04  0.18868461596E+04  0.59983360362E+03 0.  0.
         23    2    4    4    0    0  0.21855270733E+03  0.37472966164E+02  0.87527344176E+03  0.90786246939E+03  0.94557688157E+02 0.  0.
         23    2    4    4    0    0 -0.35045771925E+03  0.11676105209E+03  0.90214069494E+03  0.97898369020E+03  0.89985976359E+02 0.  0.
          2    1    3    3  502    0  0.67400224045E+02 -0.34373495404E+02  0.21711001573E+03  0.22991538947E+03  0.00000000000E+00 0. -1.
         -2    1    3    3    0  502  0.64504787874E+02 -0.11986052285E+03  0.18003965178E+03  0.22570265574E+03  0.00000000000E+00 0.  1.
         15    1    5    5    0    0  0.12856009411E+03  0.67943104336E+02  0.56053635277E+03  0.57909250015E+03  0.17770000000E+01 0.  1.
        -15    1    5    5    0    0  0.89992613225E+02 -0.30470138172E+02  0.31473708899E+03  0.32876996923E+03  0.17770000000E+01 0. -1.
          2    1    6    6  503    0 -0.10534855281E+03 -0.61926483681E+00  0.31116702005E+03  0.32851729853E+03  0.00000000000E+00 0. -1.
         -2    1    6    6    0  503 -0.24510916644E+03  0.11738031693E+03  0.59097367489E+03  0.65046639167E+03  0.00000000000E+00 0.  1.
<mgrwt>
<rscale>  0 0.41466952E+03</rscale>
<asrwt>0</asrwt>
<pdfrwt beam="1">  1        2 0.34746365E+00 0.41466952E+03</pdfrwt>
<pdfrwt beam="2">  1       -2 0.12915417E-01 0.41466952E+03</pdfrwt>
<totfact> 0.23151523E+02</totfact>
</mgrwt>
</event>
<event>
12    1  0.8033771E-008  0.6582587E+03  0.7818608E-02  0.9791405E-01
         -1   -1    0    0    0  501 -0.00000000000E+00  0.00000000000E+00  0.83499088806E+03  0.83499088806E+03  0.00000000000E+00 0.  1.
          1   -1    0    0  501    0  0.00000000000E+00 -0.00000000000E+00 -0.59555268535E+03  0.59555268535E+03  0.00000000000E+00 0. -1.
         23    2    1    2    0    0 -0.19919774807E+03 -0.52775450253E+03  0.20232830934E+03  0.60616385131E+03  0.91067623803E+02 0.  0.
    5000000    2    1    2    0    0  0.19919774807E+03  0.52775450253E+03  0.37109893373E+02  0.82437972210E+03  0.60001685331E+03 0.  0.
         23    2    4    4    0    0 -0.16073862736E+03  0.20463988968E+03  0.16229614133E+03  0.31670264210E+03  0.79032494913E+02 0.  0.
         23    2    4    4    0    0  0.35993637543E+03  0.32311461285E+03 -0.12518624796E+03  0.50767708000E+03  0.90039843899E+02 0.  0.
          4    1    3    3  502    0 -0.18435043933E+03 -0.37456070716E+03  0.14564376947E+03  0.44214580787E+03  0.00000000000E+00 0. -1.
         -4    1    3    3    0  502 -0.14847308739E+02 -0.15319379536E+03  0.56684539866E+02  0.16401804344E+03  0.00000000000E+00 0.  1.
         15    1    5    5    0    0 -0.11738908646E+03  0.15354724865E+03  0.76614978032E+02  0.20791817568E+03  0.17770000000E+01 0. -1.
        -15    1    5    5    0    0 -0.43349540898E+02  0.51092641030E+02  0.85681163296E+02  0.10878446643E+03  0.17770000000E+01 0.  1.
          1    1    6    6  503    0  0.31141393208E+03  0.26334853309E+03 -0.72091050645E+02  0.41415963898E+03  0.00000000000E+00 0. -1.
         -1    1    6    6    0  503  0.48522443341E+02  0.59766079753E+02 -0.53095197310E+02  0.93517441016E+02  0.00000000000E+00 0.  1.
<mgrwt>
<rscale>  0 0.65825870E+03</rscale>
<asrwt>0</asrwt>
<pdfrwt beam="1">  1        1 0.91623490E-01 0.65825870E+03</pdfrwt>
<pdfrwt beam="2">  1       -1 0.12846014E+00 0.65825870E+03</pdfrwt>
<totfact> 0.18781841E+01</totfact>
</mgrwt>
</event>
<event>
12    1  0.8033771E-008  0.4879968E+03  0.7818608E-02  0.1016960E+00
          2   -1    0    0  501    0  0.00000000000E+00  0.00000000000E+00  0.10105509103E+04  0.10105509103E+04  0.00000000000E+00 0. -1.
         -2   -1    0    0    0  501 -0.00000000000E+00 -0.00000000000E+00 -0.31463084741E+03  0.31463084741E+03  0.00000000000E+00 0.  1.
         23    2    1    2    0    0 -0.22644460122E+03  0.28729312781E+03  0.62008471213E+02  0.37879930662E+03  0.76350281512E+02 0.  0.
    5000000    2    1    2    0    0  0.22644460122E+03 -0.28729312781E+03  0.63391159166E+03  0.94638245107E+03  0.59998444892E+03 0.  0.
         23    2    4    4    0    0 -0.29025462376E+02 -0.33567103756E+03  0.13147941687E+03  0.37329604599E+03  0.92442295349E+02 0.  0.
         23    2    4    4    0    0  0.25547006360E+03  0.48377909743E+02  0.50243217478E+03  0.57308640508E+03  0.91567253363E+02 0.  0.
          1    1    3    3  502    0 -0.66607553710E+02  0.66485650202E+02 -0.15563346297E+02  0.95389337151E+02  0.00000000000E+00 0. -1.
         -1    1    3    3    0  502 -0.15983704751E+03  0.22080747761E+03  0.77571817510E+02  0.28340996947E+03  0.00000000000E+00 0.  1.
         15    1    5    5    0    0 -0.51247182262E+02 -0.98605032165E+02  0.37258702441E+02  0.11722028278E+03  0.17770000000E+01 0. -1.
        -15    1    5    5    0    0  0.22221719886E+02 -0.23706600539E+03  0.94220714430E+02  0.25607576321E+03  0.17770000000E+01 0.  1.
          3    1    6    6  503    0  0.12596891531E+03  0.25921409173E+02  0.15370430377E+03  0.20041232516E+03  0.00000000000E+00 0. -1.
         -3    1    6    6    0  503  0.12950114828E+03  0.22456500571E+02  0.34872787102E+03  0.37267407993E+03  0.00000000000E+00 0.  1.
<mgrwt>
<rscale>  0 0.48799681E+03</rscale>
<asrwt>0</asrwt>
<pdfrwt beam="1">  1        2 0.15546937E+00 0.48799681E+03</pdfrwt>
<pdfrwt beam="2">  1       -2 0.48404746E-01 0.48799681E+03</pdfrwt>
<totfact> 0.10402900E+02</totfact>
</mgrwt>
</event>
<event>
12    1  0.8033771E-008  0.8986848E+03  0.7818608E-02  0.9427227E-01
          2   -1    0    0  501    0  0.00000000000E+00  0.00000000000E+00  0.12301597544E+04  0.12301597544E+04  0.00000000000E+00 0. -1.
         -2   -1    0    0    0  501 -0.00000000000E+00 -0.00000000000E+00 -0.17239832279E+04  0.17239832279E+04  0.00000000000E+00 0.  1.
         23    2    1    2    0    0  0.66055118981E+03  0.50605785215E+03 -0.13696466336E+04  0.16053022516E+04  0.92956947719E+02 0.  0.
    5000000    2    1    2    0    0 -0.66055118981E+03 -0.50605785215E+03  0.87582316004E+03  0.13488407306E+04  0.59990222942E+03 0.  0.
         23    2    4    4    0    0 -0.62629120106E+03 -0.21219551195E+03  0.39249910220E+03  0.77491583757E+03  0.95767459424E+02 0.  0.
         23    2    4    4    0    0 -0.34259988756E+02 -0.29386234020E+03  0.48332405785E+03  0.57392489306E+03  0.90878029045E+02 0.  0.
          3    1    3    3  502    0  0.25865188687E+03  0.20116768256E+03 -0.62810040166E+03  0.70843443568E+03  0.00000000000E+00 0. -1.
         -3    1    3    3    0  502  0.40189930294E+03  0.30489016960E+03 -0.74154623193E+03  0.89686781596E+03  0.00000000000E+00 0.  1.
         15    1    5    5    0    0 -0.46503543584E+03 -0.16910624667E+03  0.24500044156E+03  0.55216234329E+03  0.17770000000E+01 0. -1.
        -15    1    5    5    0    0 -0.16125576521E+03 -0.43089265277E+02  0.14749866064E+03  0.22275349429E+03  0.17770000000E+01 0.  1.
          3    1    6    6  503    0 -0.41036802941E+02 -0.83782324419E+02  0.10003430140E+03  0.13678581263E+03  0.00000000000E+00 0. -1.
         -3    1    6    6    0  503  0.67768141851E+01 -0.21008001578E+03  0.38328975644E+03  0.43713908043E+03  0.00000000000E+00 0.  1.
<mgrwt>
<rscale>  0 0.89868485E+03</rscale>
<asrwt>0</asrwt>
<pdfrwt beam="1">  1        2 0.18925535E+00 0.89868485E+03</pdfrwt>
<pdfrwt beam="2">  1       -2 0.26522819E+00 0.89868485E+03</pdfrwt>
<totfact> 0.95541478E-01</totfact>
</mgrwt>
</event>
<event>
12    1  0.8033771E-008  0.4036075E+03  0.7818608E-02  0.1042538E+00
          1   -1    0    0  501    0  0.00000000000E+00  0.00000000000E+00  0.11543151461E+04  0.11543151461E+04  0.00000000000E+00 0. -1.
         -1   -1    0    0    0  501 -0.00000000000E+00 -0.00000000000E+00 -0.16482332273E+03  0.16482332273E+03  0.00000000000E+00 0.  1.
         23    2    1    2    0    0 -0.16225503433E+03  0.13952702428E+03  0.32635026420E+03  0.39973648328E+03  0.86546371696E+02 0.  0.
    5000000    2    1    2    0    0  0.16225503433E+03 -0.13952702428E+03  0.66314155920E+03  0.91940198559E+03  0.59979062755E+03 0.  0.
         23    2    4    4    0    0 -0.18869883534E+03 -0.63349543503E+02  0.90930676198E+02  0.23739107823E+03  0.92009352941E+02 0.  0.
         23    2    4    4    0    0  0.35095386967E+03 -0.76177480772E+02  0.57221088301E+03  0.68201090736E+03  0.93498427309E+02 0.  0.
          1    1    3    3  502    0 -0.68946836402E+02  0.10801236054E+03  0.22142394029E+03  0.25582982159E+03  0.00000000000E+00 0. -1.
         -1    1    3    3    0  502 -0.93308197926E+02  0.31514663738E+02  0.10492632391E+03  0.14390666169E+03  0.00000000000E+00 0.  1.
         15    1    5    5    0    0 -0.61458265436E+02 -0.65641869006E+02  0.53839718836E+02  0.10482292884E+03  0.17770000000E+01 0. -1.
        -15    1    5    5    0    0 -0.12724056991E+03  0.22923255034E+01  0.37090957362E+02  0.13256814939E+03  0.17770000000E+01 0.  1.
          3    1    6    6  503    0  0.33183038635E+03 -0.57753700006E+02  0.48235857690E+03  0.58831682951E+03  0.00000000000E+00 0. -1.
         -3    1    6    6    0  503  0.19123483321E+02 -0.18423780766E+02  0.89852306102E+02  0.93694077849E+02  0.00000000000E+00 0.  1.
<mgrwt>
<rscale>  0 0.40360746E+03</rscale>
<asrwt>0</asrwt>
<pdfrwt beam="1">  1        1 0.17758694E+00 0.40360746E+03</pdfrwt>
<pdfrwt beam="2">  1       -1 0.25357435E-01 0.40360746E+03</pdfrwt>
<totfact> 0.16579953E+02</totfact>
</mgrwt>
</event>
<event>
12    1  0.8033771E-008  0.9101105E+03  0.7818608E-02  0.9413030E-01
         -2   -1    0    0    0  501 -0.00000000000E+00  0.00000000000E+00  0.92132698244E+03  0.92132698244E+03  0.00000000000E+00 0. -1.
          2   -1    0    0  501    0  0.00000000000E+00 -0.00000000000E+00 -0.11936886783E+04  0.11936886783E+04  0.00000000000E+00 0.  1.
         23    2    1    2    0    0  0.49806434226E+03  0.67593075600E+03 -0.59599103633E+03  0.10335660585E+04  0.90016697753E+02 0.  0.
    5000000    2    1    2    0    0 -0.49806434226E+03 -0.67593075600E+03  0.32362934043E+03  0.10814496023E+04  0.59987233343E+03 0.  0.
         23    2    4    4    0    0 -0.42029761621E+03 -0.75255477083E+03  0.19233869771E+03  0.88776111720E+03  0.90204530280E+02 0.  0.
         23    2    4    4    0    0 -0.77766726052E+02  0.76624014826E+02  0.13129064272E+03  0.19368848512E+03  0.91428075952E+02 0.  0.
          3    1    3    3  502    0  0.11853836631E+03  0.22692982200E+03 -0.19708442053E+03  0.32309558526E+03  0.00000000000E+00 0. -1.
         -3    1    3    3    0  502  0.37952597596E+03  0.44900093400E+03 -0.39890661580E+03  0.71047047320E+03  0.00000000000E+00 0.  1.
         15    1    5    5    0    0 -0.29254954640E+03 -0.60066766445E+03  0.14335352126E+03  0.68333027886E+03  0.17770000000E+01 0. -1.
        -15    1    5    5    0    0 -0.12774806981E+03 -0.15188710637E+03  0.48985176452E+02  0.20443083834E+03  0.17770000000E+01 0.  1.
          4    1    6    6  503    0 -0.68158382690E+02  0.61715930596E+02  0.14470783392E+03  0.17144905488E+03  0.00000000000E+00 0. -1.
         -4    1    6    6    0  503 -0.96083433621E+01  0.14908084230E+02 -0.13417191202E+02  0.22239430238E+02  0.00000000000E+00 0.  1.
<mgrwt>
<rscale>  0 0.91011054E+03</rscale>
<asrwt>0</asrwt>
<pdfrwt beam="1">  1        2 0.18364441E+00 0.91011054E+03</pdfrwt>
<pdfrwt beam="2">  1       -2 0.14174261E+00 0.91011054E+03</pdfrwt>
<totfact> 0.66511927E+00</totfact>
</mgrwt>
</event>
<event>
12    1  0.8033771E-008  0.6082446E+03  0.7818608E-02  0.9888447E-01
         -1   -1    0    0    0  501 -0.00000000000E+00  0.00000000000E+00  0.72071121025E+03  0.72071121025E+03  0.00000000000E+00 0.  1.
          1   -1    0    0  501    0  0.00000000000E+00 -0.00000000000E+00 -0.12287836530E+04  0.12287836530E+04  0.00000000000E+00 0. -1.
         23    2    1    2    0    0  0.43781431881E+03  0.16457880275E+03 -0.95531921599E+03  0.10675534060E+04  0.90928049478E+02 0.  0.
    5000000    2    1    2    0    0 -0.43781431881E+03 -0.16457880275E+03  0.44724677320E+03  0.88194145728E+03  0.59918569565E+03 0.  0.
         23    2    4    4    0    0  0.10532981018E+03  0.65166264384E+02  0.15333528678E+03  0.21704448190E+03  0.90860255491E+02 0.  0.
         23    2    4    4    0    0 -0.54314412899E+03 -0.22974506713E+03  0.29391148642E+03  0.66489697538E+03  0.88970137109E+02 0.  0.
          2    1    3    3  502    0  0.23412387803E+03  0.11347610956E+03 -0.44122535326E+03  0.51222127062E+03  0.00000000000E+00 0.  1.
         -2    1    3    3    0  502  0.20369044078E+03  0.51102693189E+02 -0.51409386273E+03  0.55533213540E+03  0.00000000000E+00 0. -1.
         15    1    5    5    0    0  0.24364056295E+02 -0.23239280198E+02  0.33126324430E+02  0.47267139563E+02  0.17770000000E+01 0.  1.
        -15    1    5    5    0    0  0.80965753881E+02  0.88405544581E+02  0.12020896235E+03  0.16977734234E+03  0.17770000000E+01 0. -1.
          4    1    6    6  503    0 -0.26538491597E+03 -0.80169549540E+02  0.10065935353E+03  0.29493832533E+03  0.00000000000E+00 0. -1.
         -4    1    6    6    0  503 -0.27775921302E+03 -0.14957551759E+03  0.19325213289E+03  0.36995865005E+03  0.00000000000E+00 0.  1.
<mgrwt>
<rscale>  0 0.60824459E+03</rscale>
<asrwt>0</asrwt>
<pdfrwt beam="1">  1        1 0.18904364E+00 0.60824459E+03</pdfrwt>
<pdfrwt beam="2">  1       -1 0.11087865E+00 0.60824459E+03</pdfrwt>
<totfact> 0.80891893E+00</totfact>
</mgrwt>
</event>
<event>
12    1  0.8033771E-008  0.1203834E+04  0.7818608E-02  0.9109507E-01
          1   -1    0    0  501    0  0.00000000000E+00  0.00000000000E+00  0.96338049442E+03  0.96338049442E+03  0.00000000000E+00 0. -1.
         -1   -1    0    0    0  501 -0.00000000000E+00 -0.00000000000E+00 -0.16607070450E+04  0.16607070450E+04  0.00000000000E+00 0.  1.
         23    2    1    2    0    0 -0.53842270565E+03 -0.10410980717E+04 -0.55393090769E+03  0.12995801776E+04  0.91021880020E+02 0.  0.
    5000000    2    1    2    0    0  0.53842270565E+03  0.10410980717E+04 -0.14339564290E+03  0.13245073619E+04  0.59997769665E+03 0.  0.
         23    2    4    4    0    0 -0.13409496339E+02  0.24715300797E+03  0.15698856259E+03  0.30683635847E+03  0.90767384857E+02 0.  0.
         23    2    4    4    0    0  0.55183220199E+03  0.79394506370E+03 -0.30038420549E+03  0.10176710034E+04  0.10274267346E+03 0.  0.
          3    1    3    3  502    0 -0.41289192769E+03 -0.73327515699E+03 -0.42775514228E+03  0.94400564700E+03  0.00000000000E+00 0. -1.
         -3    1    3    3    0  502 -0.12553077796E+03 -0.30782291467E+03 -0.12617576541E+03  0.35557453057E+03  0.00000000000E+00 0.  1.
         15    1    5    5    0    0 -0.47310963243E+02  0.18071569980E+03  0.93676712418E+02  0.20898558700E+03  0.17770000000E+01 0. -1.
        -15    1    5    5    0    0  0.33901466904E+02  0.66437308168E+02  0.63311850168E+02  0.97850771461E+02  0.17770000000E+01 0.  1.
          4    1    6    6  503    0  0.54186415037E+03  0.73862506395E+03 -0.28063601110E+03  0.95809201712E+03  0.00000000000E+00 0.  1.
         -4    1    6    6    0  503  0.99680516227E+01  0.55319999753E+02 -0.19748194391E+02  0.59578986292E+02  0.00000000000E+00 0. -1.
<mgrwt>
<rscale>  0 0.12038339E+04</rscale>
<asrwt>0</asrwt>
<pdfrwt beam="1">  1        1 0.14821238E+00 0.12038339E+04</pdfrwt>
<pdfrwt beam="2">  1       -1 0.25549339E+00 0.12038339E+04</pdfrwt>
<totfact> 0.10197827E+00</totfact>
</mgrwt>
</event>
<event>
12    1  0.8033771E-008  0.1198678E+04  0.7818608E-02  0.9114014E-01
          1   -1    0    0  501    0  0.00000000000E+00  0.00000000000E+00  0.29912399868E+04  0.29912399868E+04  0.00000000000E+00 0. -1.
         -1   -1    0    0    0  501 -0.00000000000E+00 -0.00000000000E+00 -0.50840610154E+03  0.50840610154E+03  0.00000000000E+00 0.  1.
         23    2    1    2    0    0 -0.96673887793E+02 -0.11403162227E+04  0.14238361993E+04  0.18289962279E+04  0.90833643922E+02 0.  0.
    5000000    2    1    2    0    0  0.96673887793E+02  0.11403162227E+04  0.10589976860E+04  0.16706498605E+04  0.59993993774E+03 0.  0.
         23    2    4    4    0    0 -0.18450751846E+03  0.30444713528E+03  0.13961020790E+03  0.39349614151E+03  0.92828447633E+02 0.  0.
         23    2    4    4    0    0  0.28118140625E+03  0.83586908746E+03  0.91938747813E+03  0.12771537190E+04  0.90045390470E+02 0.  0.
          1    1    3    3  502    0 -0.42542136869E+02 -0.61625977514E+03  0.83857500815E+03  0.10415344393E+04  0.00000000000E+00 0. -1.
         -1    1    3    3    0  502 -0.54131750924E+02 -0.52405644760E+03  0.58526119111E+03  0.78746178863E+03  0.00000000000E+00 0.  1.
         15    1    5    5    0    0 -0.15158802715E+03  0.16665453786E+03  0.99207260538E+02  0.24616641371E+03  0.17770000000E+01 0. -1.
        -15    1    5    5    0    0 -0.32919491304E+02  0.13779259741E+03  0.40402947364E+02  0.14732972780E+03  0.17770000000E+01 0.  1.
          2    1    6    6  503    0  0.20586555937E+03  0.48379588710E+03  0.52123933130E+03  0.74035770368E+03  0.00000000000E+00 0. -1.
         -2    1    6    6    0  503  0.75315846878E+02  0.35207320037E+03  0.39814814683E+03  0.53679601529E+03  0.00000000000E+00 0.  1.
<mgrwt>
<rscale>  0 0.11986784E+04</rscale>
<asrwt>0</asrwt>
<pdfrwt beam="1">  1        1 0.46019076E+00 0.11986784E+04</pdfrwt>
<pdfrwt beam="2">  1       -1 0.78216325E-01 0.11986784E+04</pdfrwt>
<totfact> 0.99090998E-01</totfact>
</mgrwt>
</event>
<event>
12    1  0.8033771E-008  0.1598369E+04  0.7818608E-02  0.8821550E-01
         -1   -1    0    0    0  501 -0.00000000000E+00  0.00000000000E+00  0.11603360460E+04  0.11603360460E+04  0.00000000000E+00 0.  1.
          1   -1    0    0  501    0  0.00000000000E+00 -0.00000000000E+00 -0.26397694979E+04  0.26397694979E+04  0.00000000000E+00 0. -1.
         23    2    1    2    0    0 -0.50387817885E+03 -0.14610325806E+04 -0.14805544826E+04  0.21422224620E+04  0.92553122004E+02 0.  0.
    5000000    2    1    2    0    0  0.50387817885E+03  0.14610325806E+04  0.11210305870E+01  0.16578830819E+04  0.60005469404E+03 0.  0.
         23    2    4    4    0    0  0.46748162438E+03  0.14816210181E+04 -0.11347232339E+02  0.15560722804E+04  0.86557909405E+02 0.  0.
         23    2    4    4    0    0  0.36396554471E+02 -0.20588437562E+02  0.12468262926E+02  0.10181080146E+03  0.91985807466E+02 0.  0.
          3    1    3    3  502    0 -0.13205099957E+03 -0.34170945666E+03 -0.30088435425E+03  0.47406140308E+03  0.00000000000E+00 0. -1.
         -3    1    3    3    0  502 -0.37182717927E+03 -0.11193231239E+04 -0.11796701283E+04  0.16681610590E+04  0.00000000000E+00 0.  1.
         15    1    5    5    0    0  0.12792920143E+03  0.29779844558E+03 -0.15851714191E+02  0.32450613143E+03  0.17770000000E+01 0. -1.
        -15    1    5    5    0    0  0.33955242295E+03  0.11838225726E+04  0.45044818513E+01  0.12315661490E+04  0.17770000000E+01 0.  1.
          3    1    6    6  503    0 -0.28168561398E+02 -0.96408300436E+01  0.20038401098E+02  0.35888033851E+02  0.00000000000E+00 0.  1.
         -3    1    6    6    0  503  0.64565115868E+02 -0.10947607518E+02 -0.75701381715E+01  0.65922767610E+02  0.00000000000E+00 0. -1.
<mgrwt>
<rscale>  0 0.15983694E+04</rscale>
<asrwt>0</asrwt>
<pdfrwt beam="1">  1        1 0.40611838E+00 0.15983694E+04</pdfrwt>
<pdfrwt beam="2">  1       -1 0.17851324E+00 0.15983694E+04</pdfrwt>
<totfact> 0.21619199E-01</totfact>
</mgrwt>
</event>
<event>
12    1  0.8033771E-008  0.9088801E+03  0.7818608E-02  0.9414548E-01
          2   -1    0    0  501    0  0.00000000000E+00  0.00000000000E+00  0.17551890876E+04  0.17551890876E+04  0.00000000000E+00 0. -1.
         -2   -1    0    0    0  501 -0.00000000000E+00 -0.00000000000E+00 -0.52971165101E+03  0.52971165101E+03  0.00000000000E+00 0.  1.
         23    2    1    2    0    0  0.49250694907E+03  0.66525781276E+03  0.86452663100E+03  0.12007153501E+04  0.95812337123E+02 0.  0.
    5000000    2    1    2    0    0 -0.49250694907E+03 -0.66525781276E+03  0.36095080562E+03  0.10841853885E+04  0.60003451594E+03 0.  0.
         23    2    4    4    0    0  0.73094944851E+02  0.76478670988E+01  0.12159770110E+03  0.16855556376E+03  0.90684156990E+02 0.  0.
         23    2    4    4    0    0 -0.56560189392E+03 -0.67290567986E+03  0.23935310453E+03  0.91562982478E+03  0.91545130854E+02 0.  0.
          3    1    3    3  502    0  0.23805441221E+03  0.24270246213E+03  0.35833256282E+03  0.49393988893E+03  0.00000000000E+00 0. -1.
         -3    1    3    3    0  502  0.25445253687E+03  0.42255535063E+03  0.50619406818E+03  0.70677546118E+03  0.00000000000E+00 0.  1.
         15    1    5    5    0    0  0.46514456780E+02 -0.29628203858E+02  0.10713656290E+03  0.12051068829E+03  0.17770000000E+01 0. -1.
        -15    1    5    5    0    0  0.26580488071E+02  0.37276070957E+02  0.14461138199E+02  0.48044875472E+02  0.17770000000E+01 0.  1.
          1    1    6    6  503    0 -0.20032822325E+03 -0.17482699087E+03  0.81886384832E+02  0.27821080818E+03  0.00000000000E+00 0. -1.
         -1    1    6    6    0  503 -0.36527367068E+03 -0.49807868899E+03  0.15746671970E+03  0.63741901660E+03  0.00000000000E+00 0.  1.
<mgrwt>
<rscale>  0 0.90888011E+03</rscale>
<asrwt>0</asrwt>
<pdfrwt beam="1">  1        2 0.27002909E+00 0.90888011E+03</pdfrwt>
<pdfrwt beam="2">  1       -2 0.81494101E-01 0.90888011E+03</pdfrwt>
<totfact> 0.12225089E+01</totfact>
</mgrwt>
</event>
<event>
12    1  0.8033771E-008  0.6626015E+03  0.7818608E-02  0.9783417E-01
          2   -1    0    0  501    0  0.00000000000E+00  0.00000000000E+00  0.19799128912E+04  0.19799128912E+04  0.00000000000E+00 0. -1.
         -2   -1    0    0    0  501 -0.00000000000E+00 -0.00000000000E+00 -0.79879323235E+03  0.79879323235E+03  0.00000000000E+00 0.  1.
         23    2    1    2    0    0  0.51601536287E+03 -0.25291340954E+03  0.17015738647E+04  0.17983599645E+04  0.92238265067E+02 0.  0.
    5000000    2    1    2    0    0 -0.51601536287E+03  0.25291340954E+03 -0.52045420577E+03  0.98034615910E+03  0.59997413604E+03 0.  0.
         23    2    4    4    0    0 -0.21918365541E+03  0.35433435321E+03 -0.84752276758E+02  0.43449269103E+03  0.89479838432E+02 0.  0.
         23    2    4    4    0    0 -0.29683170746E+03 -0.10142094367E+03 -0.43570192901E+03  0.54585346807E+03  0.98613220646E+02 0.  0.
          1    1    3    3  502    0  0.32381225433E+02 -0.41959613707E+02  0.19438462137E+03  0.20148085261E+03  0.00000000000E+00 0. -1.
         -1    1    3    3    0  502  0.48363413744E+03 -0.21095379583E+03  0.15071892433E+04  0.15968791119E+04  0.00000000000E+00 0.  1.
         15    1    5    5    0    0 -0.24949709775E+02  0.94719099783E+02 -0.45068342977E+02  0.10783556533E+03  0.17770000000E+01 0.  1.
        -15    1    5    5    0    0 -0.19423394563E+03  0.25961525342E+03 -0.39683933781E+02  0.32665712571E+03  0.17770000000E+01 0. -1.
          4    1    6    6  503    0 -0.14409418517E+03 -0.10202366361E+02 -0.14258054062E+03  0.20296904455E+03  0.00000000000E+00 0. -1.
         -4    1    6    6    0  503 -0.15273752229E+03 -0.91218577304E+02 -0.29312138839E+03  0.34288442352E+03  0.00000000000E+00 0.  1.
<mgrwt>
<rscale>  0 0.66260147E+03</rscale>
<asrwt>0</asrwt>
<pdfrwt beam="1">  1        2 0.30460198E+00 0.66260147E+03</pdfrwt>
<pdfrwt beam="2">  1       -2 0.12289127E+00 0.66260147E+03</pdfrwt>
<totfact> 0.36113714E+00</totfact>
</mgrwt>
</event>
<event>
12    1  0.8033771E-008  0.1367438E+04  0.7818608E-02  0.8977732E-01
          1   -1    0    0  501    0  0.00000000000E+00  0.00000000000E+00  0.15278894771E+04  0.15278894771E+04  0.00000000000E+00 0. -1.
         -1   -1    0    0    0  501 -0.00000000000E+00 -0.00000000000E+00 -0.13941615342E+04  0.13941615342E+04  0.00000000000E+00 0.  1.
         23    2    1    2    0    0 -0.12428354742E+04 -0.55339137130E+03 -0.25030304786E+03  0.13863680922E+04  0.92102363954E+02 0.  0.
    5000000    2    1    2    0    0  0.12428354742E+04  0.55339137130E+03  0.38403099080E+03  0.15356829191E+04  0.59996683259E+03 0.  0.
         23    2    4    4    0    0  0.49047134851E+03  0.27458694552E+03 -0.12343217789E+03  0.58210608585E+03  0.87474900880E+02 0.  0.
         23    2    4    4    0    0  0.75236412572E+03  0.27880442578E+03  0.50746316869E+03  0.95357683323E+03  0.89477504335E+02 0.  0.
          4    1    3    3  502    0 -0.79960321423E+03 -0.37682202666E+03 -0.20272266300E+03  0.90689393982E+03  0.00000000000E+00 0. -1.
         -4    1    3    3    0  502 -0.44323226001E+03 -0.17656934464E+03 -0.47580384856E+02  0.47947415238E+03  0.00000000000E+00 0.  1.
         15    1    5    5    0    0  0.27311440576E+03  0.20163220779E+03 -0.79110610284E+02  0.34858094073E+03  0.17770000000E+01 0.  1.
        -15    1    5    5    0    0  0.21735694275E+03  0.72954737734E+02 -0.44321567604E+02  0.23352514512E+03  0.17770000000E+01 0. -1.
          1    1    6    6  503    0  0.47754781175E+03  0.14288611178E+03  0.27909467391E+03  0.57128118335E+03  0.00000000000E+00 0. -1.
         -1    1    6    6    0  503  0.27481631397E+03  0.13591831400E+03  0.22836849477E+03  0.38229564987E+03  0.00000000000E+00 0.  1.
<mgrwt>
<rscale>  0 0.13674378E+04</rscale>
<asrwt>0</asrwt>
<pdfrwt beam="1">  1        1 0.23505992E+00 0.13674378E+04</pdfrwt>
<pdfrwt beam="2">  1       -1 0.21448639E+00 0.13674378E+04</pdfrwt>
<totfact> 0.72029590E-01</totfact>
</mgrwt>
</event>
<event>
12    1  0.8033771E-008  0.3633832E+03  0.7818608E-02  0.1057252E+00
         -2   -1    0    0    0  501 -0.00000000000E+00  0.00000000000E+00  0.83516542907E+02  0.83516542907E+02  0.00000000000E+00 0.  1.
          2   -1    0    0  501    0  0.00000000000E+00 -0.00000000000E+00 -0.28721193014E+04  0.28721193014E+04  0.00000000000E+00 0. -1.
         23    2    1    2    0    0 -0.29609539783E+03  0.65379796140E+01 -0.95870903092E+03  0.10072498831E+04  0.87829899018E+02 0.  0.
    5000000    2    1    2    0    0  0.29609539783E+03 -0.65379796140E+01 -0.18298937276E+04  0.19483859613E+04  0.59998464146E+03 0.  0.
         23    2    4    4    0    0  0.10063586869E+03 -0.12453148394E+03 -0.16026712952E+04  0.16135872782E+04  0.97329109191E+02 0.  0.
         23    2    4    4    0    0  0.19545952914E+03  0.11799350432E+03 -0.22722243240E+03  0.33479868304E+03  0.91286525731E+02 0.  0.
          2    1    3    3  502    0 -0.28081842414E+03  0.12790910483E+02 -0.80527576027E+03  0.85293120755E+03  0.00000000000E+00 0. -1.
         -2    1    3    3    0  502 -0.15276973687E+02 -0.62529308687E+01 -0.15343327065E+03  0.15431867551E+03  0.00000000000E+00 0.  1.
         15    1    5    5    0    0  0.31090769701E+02  0.12590330679E+02 -0.29713701622E+03  0.29902962483E+03  0.17770000000E+01 0. -1.
        -15    1    5    5    0    0  0.69545098985E+02 -0.13712181461E+03 -0.13055342790E+04  0.13145576534E+04  0.17770000000E+01 0.  1.
          2    1    6    6  503    0  0.61179687786E+02 -0.27156548974E+01 -0.85971475636E+02  0.10555294218E+03  0.00000000000E+00 0. -1.
         -2    1    6    6    0  503  0.13427984136E+03  0.12070915922E+03 -0.14125095677E+03  0.22924574086E+03  0.00000000000E+00 0.  1.
<mgrwt>
<rscale>  0 0.36338318E+03</rscale>
<asrwt>0</asrwt>
<pdfrwt beam="1">  1        2 0.44186448E+00 0.36338318E+03</pdfrwt>
<pdfrwt beam="2">  1       -2 0.12848700E-01 0.36338318E+03</pdfrwt>
<totfact> 0.10685005E+02</totfact>
</mgrwt>
</event>
<event>
12    1  0.8033771E-008  0.1032371E+04  0.7818608E-02  0.9273737E-01
          2   -1    0    0  501    0  0.00000000000E+00  0.00000000000E+00  0.27290684963E+04  0.27290684963E+04  0.00000000000E+00 0. -1.
         -2   -1    0    0    0  501 -0.00000000000E+00 -0.00000000000E+00 -0.41733797105E+03  0.41733797105E+03  0.00000000000E+00 0.  1.
         23    2    1    2    0    0 -0.16855667534E+03 -0.96440967371E+03  0.98246739181E+03  0.13898933806E+04  0.89800121669E+02 0.  0.
    5000000    2    1    2    0    0  0.16855667534E+03  0.96440967371E+03  0.13292631334E+04  0.17565130867E+04  0.59991697301E+03 0.  0.
         23    2    4    4    0    0 -0.13010904904E+03  0.12313921316E+03  0.48315491574E+03  0.52324325006E+03  0.90847100535E+02 0.  0.
         23    2    4    4    0    0  0.29866572438E+03  0.84127046055E+03  0.84610821767E+03  0.12332698367E+04  0.90100895256E+02 0.  0.
          1    1    3    3  502    0 -0.25332977254E+02 -0.42556584182E+02  0.61662767915E+02  0.79089313695E+02  0.00000000000E+00 0. -1.
         -1    1    3    3    0  502 -0.14322369809E+03 -0.92185308953E+03  0.92080462390E+03  0.13108040669E+04  0.00000000000E+00 0.  1.
         15    1    5    5    0    0 -0.95488679357E+02  0.11524794481E+03  0.45141917607E+03  0.47558659246E+03  0.17770000000E+01 0. -1.
        -15    1    5    5    0    0 -0.34620369684E+02  0.78912683527E+01  0.31735739662E+02  0.47656657606E+02  0.17770000000E+01 0.  1.
          4    1    6    6  503    0  0.24720811649E+03  0.57521503238E+03  0.60168145375E+03  0.86833447364E+03  0.00000000000E+00 0. -1.
         -4    1    6    6    0  503  0.51457607898E+02  0.26605542817E+03  0.24442676392E+03  0.36493536303E+03  0.00000000000E+00 0.  1.
<mgrwt>
<rscale>  0 0.10323706E+04</rscale>
<asrwt>0</asrwt>
<pdfrwt beam="1">  1        2 0.41985668E+00 0.10323706E+04</pdfrwt>
<pdfrwt beam="2">  1       -2 0.64205843E-01 0.10323706E+04</pdfrwt>
<totfact> 0.57867015E+00</totfact>
</mgrwt>
</event>
<event>
12    1  0.8033771E-008  0.1207284E+04  0.7818608E-02  0.9106505E-01
          1   -1    0    0  501    0  0.00000000000E+00  0.00000000000E+00  0.19695801053E+04  0.19695801053E+04  0.00000000000E+00 0. -1.
         -1   -1    0    0    0  501 -0.00000000000E+00 -0.00000000000E+00 -0.82924096182E+03  0.82924096182E+03  0.00000000000E+00 0.  1.
         23    2    1    2    0    0 -0.91671135238E+03 -0.69445439474E+03  0.93543246616E+03  0.14855111022E+04  0.95303336547E+02 0.  0.
    5000000    2    1    2    0    0  0.91671135238E+03  0.69445439474E+03  0.20490667735E+03  0.13133099650E+04  0.60014140643E+03 0.  0.
         23    2    4    4    0    0  0.94026089203E+03  0.73303830269E+03  0.20524527980E+03  0.12131187733E+04  0.89976858526E+02 0.  0.
         23    2    4    4    0    0 -0.23549539645E+02 -0.38583907949E+02 -0.33860245409E+00  0.10019119163E+03  0.89413989163E+02 0.  0.
          1    1    3    3  502    0 -0.82973527871E+03 -0.62145726085E+03  0.80455651268E+03  0.13122427146E+04  0.00000000000E+00 0. -1.
         -1    1    3    3    0  502 -0.86976073669E+02 -0.72997133895E+02  0.13087595348E+03  0.17326838762E+03  0.00000000000E+00 0.  1.
         15    1    5    5    0    0  0.71959397339E+03  0.53180272304E+03  0.18555995733E+03  0.91381906211E+03  0.17770000000E+01 0. -1.
        -15    1    5    5    0    0  0.22066691864E+03  0.20123557965E+03  0.19685322469E+02  0.29929971124E+03  0.17770000000E+01 0.  1.
          2    1    6    6  503    0 -0.55804729363E+01  0.14150973454E+02 -0.32484732933E+02  0.35869898266E+02  0.00000000000E+00 0. -1.
         -2    1    6    6    0  503 -0.17969066708E+02 -0.52734881403E+02  0.32146130479E+02  0.64321293362E+02  0.00000000000E+00 0.  1.
<mgrwt>
<rscale>  0 0.12072842E+04</rscale>
<asrwt>0</asrwt>
<pdfrwt beam="1">  1        1 0.30301232E+00 0.12072842E+04</pdfrwt>
<pdfrwt beam="2">  1       -1 0.12757553E+00 0.12072842E+04</pdfrwt>
<totfact> 0.16337656E+00</totfact>
</mgrwt>
</event>
<event>
12    1  0.8033771E-008  0.1199017E+04  0.7818608E-02  0.9113718E-01
         -2   -1    0    0    0  501 -0.00000000000E+00  0.00000000000E+00  0.11373456218E+04  0.11373456218E+04  0.00000000000E+00 0.  1.
          2   -1    0    0  501    0  0.00000000000E+00 -0.00000000000E+00 -0.14905515422E+04  0.14905515422E+04  0.00000000000E+00 0. -1.
         23    2    1    2    0    0  0.48558094637E+03  0.10403325279E+04  0.28081759585E+03  0.11855082799E+04  0.92145186688E+02 0.  0.
    5000000    2    1    2    0    0 -0.48558094637E+03 -0.10403325279E+04 -0.63402351627E+03  0.14423888842E+04  0.60034927331E+03 0.  0.
         23    2    4    4    0    0  0.44430827590E+00 -0.53597499642E+03 -0.90486367235E+02  0.55110107279E+03  0.90858216914E+02 0.  0.
         23    2    4    4    0    0 -0.48602525465E+03 -0.50435753145E+03 -0.54353714904E+03  0.89128781138E+03  0.91456342787E+02 0.  0.
          4    1    3    3  502    0  0.19186408566E+03  0.49128254495E+03  0.96974409309E+02  0.53625964085E+03  0.00000000000E+00 0. -1.
         -4    1    3    3    0  502  0.29371686072E+03  0.54904998292E+03  0.18384318654E+03  0.64924863901E+03  0.00000000000E+00 0.  1.
         15    1    5    5    0    0  0.31644790137E+02 -0.10999965273E+03  0.12732384013E+00  0.11447484564E+03  0.17770000000E+01 0.  1.
        -15    1    5    5    0    0 -0.31200481861E+02 -0.42597534369E+03 -0.90613691075E+02  0.43662622716E+03  0.17770000000E+01 0. -1.
          1    1    6    6  503    0 -0.20708579937E+03 -0.28063356106E+03 -0.27237831119E+03  0.44252646056E+03  0.00000000000E+00 0. -1.
         -1    1    6    6    0  503 -0.27893945528E+03 -0.22372397039E+03 -0.27115883785E+03  0.44876135082E+03  0.00000000000E+00 0.  1.
<mgrwt>
<rscale>  0 0.11990165E+04</rscale>
<asrwt>0</asrwt>
<pdfrwt beam="1">  1        2 0.22931562E+00 0.11990165E+04</pdfrwt>
<pdfrwt beam="2">  1       -2 0.17497625E+00 0.11990165E+04</pdfrwt>
<totfact> 0.24518841E+00</totfact>
</mgrwt>
</event>
<event>
12    1  0.8033771E-008  0.6643245E+03  0.7818608E-02  0.9780265E-01
          1   -1    0    0  501    0  0.00000000000E+00  0.00000000000E+00  0.14658365986E+04  0.14658365986E+04  0.00000000000E+00 0. -1.
         -1   -1    0    0    0  501 -0.00000000000E+00 -0.00000000000E+00 -0.38411198854E+03  0.38411198854E+03  0.00000000000E+00 0.  1.
         23    2    1    2    0    0 -0.50325600493E+03 -0.37239257854E+03  0.47289811638E+03  0.78983877429E+03  0.90938560823E+02 0.  0.
    5000000    2    1    2    0    0  0.50325600493E+03  0.37239257854E+03  0.60882649365E+03  0.10601098128E+04  0.60101603706E+03 0.  0.
         23    2    4    4    0    0  0.86556808226E+02  0.23047327573E+03 -0.45721275836E+02  0.26611775571E+03  0.90101126334E+02 0.  0.
         23    2    4    4    0    0  0.41669919670E+03  0.14191930281E+03  0.65454776949E+03  0.79399205710E+03  0.90616196974E+02 0.  0.
          3    1    3    3  502    0 -0.32354832141E+03 -0.29133278891E+03  0.33189366518E+03  0.54745932741E+03  0.00000000000E+00 0. -1.
         -3    1    3    3    0  502 -0.17970768352E+03 -0.81059789627E+02  0.14100445120E+03  0.24237944688E+03  0.00000000000E+00 0.  1.
         15    1    5    5    0    0  0.25515705860E+02  0.36581932541E+02  0.24662706250E+02  0.50997017976E+02  0.17770000000E+01 0. -1.
        -15    1    5    5    0    0  0.61041102366E+02  0.19389134319E+03 -0.70383982086E+02  0.21512073774E+03  0.17770000000E+01 0.  1.
          2    1    6    6  503    0  0.25644611481E+03  0.12998616392E+03  0.39122209873E+03  0.48550565717E+03  0.00000000000E+00 0. -1.
         -2    1    6    6    0  503  0.16025308189E+03  0.11933138889E+02  0.26332567076E+03  0.30848639993E+03  0.00000000000E+00 0.  1.
<mgrwt>
<rscale>  0 0.66432447E+03</rscale>
<asrwt>0</asrwt>
<pdfrwt beam="1">  1        1 0.22551332E+00 0.66432447E+03</pdfrwt>
<pdfrwt beam="2">  1       -1 0.59094153E-01 0.66432447E+03</pdfrwt>
<totfact> 0.20984708E+01</totfact>
</mgrwt>
</event>
<event>
12    1  0.8033771E-008  0.3618728E+03  0.7818608E-02  0.1057845E+00
          1   -1    0    0  501    0  0.00000000000E+00  0.00000000000E+00  0.60986736633E+03  0.60986736633E+03  0.00000000000E+00 0. -1.
         -1   -1    0    0    0  501 -0.00000000000E+00 -0.00000000000E+00 -0.34763044205E+03  0.34763044205E+03  0.00000000000E+00 0.  1.
         23    2    1    2    0    0  0.11337140109E+03 -0.22149457858E+03  0.24737756030E+02  0.26579829767E+03  0.90132433376E+02 0.  0.
    5000000    2    1    2    0    0 -0.11337140109E+03  0.22149457858E+03  0.23749916824E+03  0.69169951072E+03  0.60010785305E+03 0.  0.
         23    2    4    4    0    0  0.12712210242E+03  0.10006753069E+02 -0.12587038870E+03  0.19881864279E+03  0.86170377377E+02 0.  0.
         23    2    4    4    0    0 -0.24049350351E+03  0.21148782551E+03  0.36336955695E+03  0.49288086793E+03  0.91268228257E+02 0.  0.
          3    1    3    3  502    0  0.58026351454E+02 -0.19349706399E+03  0.11239192552E+02  0.20232273892E+03  0.00000000000E+00 0. -1.
         -3    1    3    3    0  502  0.55345049632E+02 -0.27997514584E+02  0.13498563478E+02  0.63475558742E+02  0.00000000000E+00 0.  1.
         15    1    5    5    0    0  0.16481878723E+02 -0.10465989275E+02 -0.70932633302E+02  0.73592020314E+02  0.17770000000E+01 0.  1.
        -15    1    5    5    0    0  0.11064022370E+03  0.20472742344E+02 -0.54937755400E+02  0.12522662247E+03  0.17770000000E+01 0. -1.
          4    1    6    6  503    0 -0.45910553427E+02  0.81581208371E+02  0.14656652391E+03  0.17391094964E+03  0.00000000000E+00 0. -1.
         -4    1    6    6    0  503 -0.19458295008E+03  0.12990661714E+03  0.21680303304E+03  0.31896991829E+03  0.00000000000E+00 0.  1.
<mgrwt>
<rscale>  0 0.36187282E+03</rscale>
<asrwt>0</asrwt>
<pdfrwt beam="1">  1        1 0.93825749E-01 0.36187282E+03</pdfrwt>
<pdfrwt beam="2">  1       -1 0.53481606E-01 0.36187282E+03</pdfrwt>
<totfact> 0.12428324E+02</totfact>
</mgrwt>
</event>
<event>
12    1  0.8033771E-008  0.1260332E+04  0.7818608E-02  0.9061627E-01
          2   -1    0    0  501    0  0.00000000000E+00  0.00000000000E+00  0.12744400962E+04  0.12744400962E+04  0.00000000000E+00 0. -1.
         -2   -1    0    0    0  501 -0.00000000000E+00 -0.00000000000E+00 -0.12693583541E+04  0.12693583541E+04  0.00000000000E+00 0.  1.
         23    2    1    2    0    0  0.11863155562E+04  0.12441068779E+03  0.12749872469E+03  0.12030041224E+04  0.90224029781E+02 0.  0.
    5000000    2    1    2    0    0 -0.11863155562E+04 -0.12441068779E+03 -0.12241698260E+03  0.13407943279E+04  0.59993407473E+03 0.  0.
         23    2    4    4    0    0 -0.10913913336E+04 -0.27592364662E+03 -0.67292625998E+02  0.11317423222E+04  0.95097237339E+02 0.  0.
         23    2    4    4    0    0 -0.94924222576E+02  0.15151295883E+03 -0.55124356599E+02  0.20905200568E+03  0.93259110351E+02 0.  0.
          4    1    3    3  502    0  0.10617317836E+04  0.12304692767E+03  0.88703562017E+02  0.10725125867E+04  0.00000000000E+00 0. -1.
         -4    1    3    3    0  502  0.12458377254E+03  0.13637601164E+01  0.38795162675E+02  0.13049153563E+03  0.00000000000E+00 0.  1.
         15    1    5    5    0    0 -0.64084496491E+03 -0.14718309240E+03  0.54058370955E+01  0.65755418981E+03  0.17770000000E+01 0. -1.
        -15    1    5    5    0    0 -0.45054636869E+03 -0.12874055423E+03 -0.72698463094E+02  0.47418813240E+03  0.17770000000E+01 0.  1.
          4    1    6    6  503    0 -0.11357288535E+03  0.13186900920E+03 -0.52790493687E+02  0.18186553301E+03  0.00000000000E+00 0. -1.
         -4    1    6    6    0  503  0.18648662770E+02  0.19643949638E+02 -0.23338629123E+01  0.27186472676E+02  0.00000000000E+00 0.  1.
<mgrwt>
<rscale>  0 0.12603324E+04</rscale>
<asrwt>0</asrwt>
<pdfrwt beam="1">  1        2 0.19606771E+00 0.12603324E+04</pdfrwt>
<pdfrwt beam="2">  1       -2 0.19528590E+00 0.12603324E+04</pdfrwt>
<totfact> 0.23594436E+00</totfact>
</mgrwt>
</event>
<event>
12    1  0.8033771E-008  0.5297813E+03  0.7818608E-02  0.1006285E+00
          1   -1    0    0  501    0  0.00000000000E+00  0.00000000000E+00  0.21593134846E+04  0.21593134846E+04  0.00000000000E+00 0. -1.
         -1   -1    0    0    0  501 -0.00000000000E+00 -0.00000000000E+00 -0.19206448224E+03  0.19206448224E+03  0.00000000000E+00 0.  1.
         23    2    1    2    0    0 -0.48370524172E+03  0.12246991315E+03  0.78337699417E+03  0.93335987359E+03  0.92257780892E+02 0.  0.
    5000000    2    1    2    0    0  0.48370524172E+03 -0.12246991315E+03  0.11838720082E+04  0.14180180933E+04  0.60021058018E+03 0.  0.
         23    2    4    4    0    0  0.25003754972E+03 -0.17832585206E+03  0.15126029355E+03  0.35439139610E+03  0.91622592425E+02 0.  0.
         23    2    4    4    0    0  0.23366769200E+03  0.55855938909E+02  0.10326117147E+04  0.10636266972E+04  0.85406800049E+02 0.  0.
          4    1    3    3  502    0 -0.35754070492E+03  0.69579924355E+02  0.49912782126E+03  0.61790395977E+03  0.00000000000E+00 0. -1.
         -4    1    3    3    0  502 -0.12616453680E+03  0.52889988797E+02  0.28424917291E+03  0.31545591382E+03  0.00000000000E+00 0.  1.
         15    1    5    5    0    0  0.40463975187E+02 -0.72112654787E+02  0.60666132852E+02  0.10257244110E+03  0.17770000000E+01 0. -1.
        -15    1    5    5    0    0  0.20957357453E+03 -0.10621319727E+03  0.90594160694E+02  0.25181895500E+03  0.17770000000E+01 0.  1.
          3    1    6    6  503    0  0.11571960564E+03  0.36353219050E+02  0.69424908491E+03  0.70476547557E+03  0.00000000000E+00 0. -1.
         -3    1    6    6    0  503  0.11794808635E+03  0.19502719859E+02  0.33836262977E+03  0.35886122162E+03  0.00000000000E+00 0.  1.
<mgrwt>
<rscale>  0 0.52978128E+03</rscale>
<asrwt>0</asrwt>
<pdfrwt beam="1">  1        1 0.33220206E+00 0.52978128E+03</pdfrwt>
<pdfrwt beam="2">  1       -1 0.29548383E-01 0.52978128E+03</pdfrwt>
<totfact> 0.26254980E+01</totfact>
</mgrwt>
</event>
<event>
12    1  0.8033771E-008  0.7118591E+03  0.7818608E-02  0.9697164E-01
          2   -1    0    0  501    0  0.00000000000E+00  0.00000000000E+00  0.94898231004E+03  0.94898231004E+03  0.00000000000E+00 0.  1.
         -2   -1    0    0    0  501 -0.00000000000E+00 -0.00000000000E+00 -0.71274515311E+03  0.71274515311E+03  0.00000000000E+00 0. -1.
         23    2    1    2    0    0  0.49079497441E+03 -0.34375071103E+03 -0.27914643494E+03  0.66936778833E+03  0.10529124214E+03 0.  0.
    5000000    2    1    2    0    0 -0.49079497441E+03  0.34375071103E+03  0.51538359188E+03  0.99235967482E+03  0.60009434190E+03 0.  0.
         23    2    4    4    0    0 -0.59872192191E+03  0.34896797027E+03  0.38836768430E+03  0.79996005320E+03  0.94127809179E+02 0.  0.
         23    2    4    4    0    0  0.10792694749E+03 -0.52172592476E+01  0.12701590757E+03  0.19239962161E+03  0.95964200783E+02 0.  0.
          2    1    3    3  502    0  0.36943541353E+03 -0.20540221826E+03 -0.21685541445E+03  0.47507774817E+03  0.00000000000E+00 0. -1.
         -2    1    3    3    0  502  0.12135956089E+03 -0.13834849277E+03 -0.62291020491E+02  0.19429004016E+03  0.00000000000E+00 0.  1.
         15    1    5    5    0    0 -0.46077575123E+02  0.50771207629E+02  0.60992933226E+02  0.91783190650E+02  0.17770000000E+01 0.  1.
        -15    1    5    5    0    0 -0.55264434678E+03  0.29819676264E+03  0.32737475108E+03  0.70817686255E+03  0.17770000000E+01 0. -1.
          3    1    6    6  503    0  0.90505665044E+02  0.17118309567E+02  0.13457788828E+03  0.16308132923E+03  0.00000000000E+00 0. -1.
         -3    1    6    6    0  503  0.17421282446E+02 -0.22335568815E+02 -0.75619807088E+01  0.29318292389E+02  0.00000000000E+00 0.  1.
<mgrwt>
<rscale>  0 0.71185912E+03</rscale>
<asrwt>0</asrwt>
<pdfrwt beam="1">  1        2 0.14599728E+00 0.71185912E+03</pdfrwt>
<pdfrwt beam="2">  1       -2 0.10965310E+00 0.71185912E+03</pdfrwt>
<totfact> 0.18367031E+01</totfact>
</mgrwt>
</event>
<event>
12    1  0.8033771E-008  0.1142878E+04  0.7818608E-02  0.9164379E-01
         -1   -1    0    0    0  501 -0.00000000000E+00  0.00000000000E+00  0.24000135436E+04  0.24000135436E+04  0.00000000000E+00 0.  1.
          1   -1    0    0  501    0  0.00000000000E+00 -0.00000000000E+00 -0.59094922250E+03  0.59094922250E+03  0.00000000000E+00 0. -1.
         23    2    1    2    0    0 -0.10663769905E+04  0.22481414406E+03  0.11341280934E+04  0.15755298961E+04  0.91359924707E+02 0.  0.
    5000000    2    1    2    0    0  0.10663769905E+04 -0.22481414406E+03  0.67493622763E+03  0.14154328700E+04  0.60017498515E+03 0.  0.
         23    2    4    4    0    0  0.10523591470E+01  0.60801155985E+02  0.16146129241E+03  0.19552891398E+03  0.91999561010E+02 0.  0.
         23    2    4    4    0    0  0.10653246314E+04 -0.28561530005E+03  0.51347493522E+03  0.12199039560E+04  0.89534814271E+02 0.  0.
          3    1    3    3  502    0 -0.57266825263E+03  0.74284116804E+02  0.59335094821E+03  0.82796884321E+03  0.00000000000E+00 0. -1.
         -3    1    3    3    0  502 -0.49370873789E+03  0.15053002726E+03  0.54077714521E+03  0.74756105286E+03  0.00000000000E+00 0.  1.
         15    1    5    5    0    0 -0.14351033352E+02 -0.73741148305E+01 -0.32843865835E+01  0.16561239447E+02  0.17770000000E+01 0. -1.
        -15    1    5    5    0    0  0.15403392499E+02  0.68175270815E+02  0.16474567899E+03  0.17896767453E+03  0.17770000000E+01 0.  1.
          4    1    6    6  503    0  0.37288382105E+03 -0.59704390020E+02  0.19414939441E+03  0.42461858831E+03  0.00000000000E+00 0. -1.
         -4    1    6    6    0  503  0.69244081032E+03 -0.22591091003E+03  0.31932554082E+03  0.79528536771E+03  0.00000000000E+00 0.  1.
<mgrwt>
<rscale>  0 0.11428781E+04</rscale>
<asrwt>0</asrwt>
<pdfrwt beam="1">  1        1 0.90915266E-01 0.11428781E+04</pdfrwt>
<pdfrwt beam="2">  1       -1 0.36923285E+00 0.11428781E+04</pdfrwt>
<totfact> 0.40565076E-01</totfact>
</mgrwt>
</event>
<event>
12    1  0.8033771E-008  0.1025725E+04  0.7818608E-02  0.9280771E-01
          1   -1    0    0  501    0  0.00000000000E+00  0.00000000000E+00  0.24546484072E+04  0.24546484072E+04  0.00000000000E+00 0. -1.
         -1   -1    0    0    0  501 -0.00000000000E+00 -0.00000000000E+00 -0.66068767768E+03  0.66068767768E+03  0.00000000000E+00 0.  1.
         23    2    1    2    0    0 -0.89217772132E+03  0.46384877469E+03  0.16506490885E+04  0.19356007457E+04  0.10378372229E+03 0.  0.
    5000000    2    1    2    0    0  0.89217772132E+03 -0.46384877469E+03  0.14331164100E+03  0.11797353392E+04  0.60008372078E+03 0.  0.
         23    2    4    4    0    0  0.10048406404E+03 -0.10980103587E+03 -0.17917913613E+03  0.25005047086E+03  0.90921727592E+02 0.  0.
         23    2    4    4    0    0  0.79169365728E+03 -0.35404773882E+03  0.32249077713E+03  0.92968486835E+03  0.90471016241E+02 0.  0.
          4    1    3    3  502    0 -0.29006011529E+03  0.20568719901E+03  0.59822495587E+03  0.69592757680E+03  0.00000000000E+00 0. -1.
         -4    1    3    3    0  502 -0.60211760603E+03  0.25816157568E+03  0.10524241326E+04  0.12396731689E+04  0.00000000000E+00 0.  1.
         15    1    5    5    0    0  0.73254297095E+01 -0.66063227956E+02 -0.10044847028E+03  0.12046188160E+03  0.17770000000E+01 0. -1.
        -15    1    5    5    0    0  0.93158634334E+02 -0.43737807914E+02 -0.78730665853E+02  0.12958858926E+03  0.17770000000E+01 0.  1.
          4    1    6    6  503    0  0.29838142886E+03 -0.89352463051E+02  0.98187837307E+02  0.32658259466E+03  0.00000000000E+00 0.  1.
         -4    1    6    6    0  503  0.49331222841E+03 -0.26469527577E+03  0.22430293982E+03  0.60310227369E+03  0.00000000000E+00 0. -1.
<mgrwt>
<rscale>  0 0.10257251E+04</rscale>
<asrwt>0</asrwt>
<pdfrwt beam="1">  1        1 0.37763821E+00 0.10257251E+04</pdfrwt>
<pdfrwt beam="2">  1       -1 0.10164426E+00 0.10257251E+04</pdfrwt>
<totfact> 0.13554896E+00</totfact>
</mgrwt>
</event>
<event>
12    1  0.8518851E-008  0.9607191E+03  0.7818608E-02  0.9352709E-01
         -2   -1    0    0    0  501 -0.00000000000E+00  0.00000000000E+00  0.40766198110E+03  0.40766198110E+03  0.00000000000E+00 0.  1.
          2   -1    0    0  501    0  0.00000000000E+00 -0.00000000000E+00 -0.29512900784E+04  0.29512900784E+04  0.00000000000E+00 0. -1.
         23    2    1    2    0    0 -0.28235018756E+02  0.91552357179E+03 -0.51761249629E+03  0.10559693795E+04  0.90377028532E+02 0.  0.
    5000000    2    1    2    0    0  0.28235018756E+02 -0.91552357179E+03 -0.20260156010E+04  0.23029826801E+04  0.60000781846E+03 0.  0.
         23    2    4    4    0    0  0.26806848306E+02  0.19855395533E+02 -0.51855561925E+03  0.52640380674E+03  0.84191410773E+02 0.  0.
         23    2    4    4    0    0  0.14281704499E+01 -0.93537896732E+03 -0.15074599818E+04  0.17765788733E+04  0.94133119812E+02 0.  0.
          3    1    3    3  502    0  0.27795591094E+02  0.43390606637E+03 -0.26595381846E+03  0.50968470928E+03  0.00000000000E+00 0. -1.
         -3    1    3    3    0  502 -0.56030609850E+02  0.48161750542E+03 -0.25165867784E+03  0.54628467020E+03  0.00000000000E+00 0.  1.
         15    1    5    5    0    0 -0.69293525377E+01  0.26502883794E+02 -0.54028562274E+02  0.60602492081E+02  0.17770000000E+01 0.  1.
        -15    1    5    5    0    0  0.33736200843E+02 -0.66474882614E+01 -0.46452705697E+03  0.46580131466E+03  0.17770000000E+01 0. -1.
          1    1    6    6  503    0  0.42095877489E+02 -0.67965936648E+03 -0.10752473738E+04  0.12727394990E+04  0.00000000000E+00 0. -1.
         -1    1    6    6    0  503 -0.40667707039E+02 -0.25571960084E+03 -0.43221260796E+03  0.50383937434E+03  0.00000000000E+00 0.  1.
<mgrwt>
<rscale>  0 0.96071914E+03</rscale>
<asrwt>0</asrwt>
<pdfrwt beam="1">  1        2 0.45404463E+00 0.96071914E+03</pdfrwt>
<pdfrwt beam="2">  1       -2 0.62717228E-01 0.96071914E+03</pdfrwt>
<totfact> 0.45218642E+00</totfact>
</mgrwt>
</event>
<event>
12    1  0.8033771E-008  0.5805737E+03  0.7818608E-02  0.9946550E-01
         -2   -1    0    0    0  501 -0.00000000000E+00  0.00000000000E+00  0.12425381637E+03  0.12425381637E+03  0.00000000000E+00 0.  1.
          2   -1    0    0  501    0  0.00000000000E+00 -0.00000000000E+00 -0.30415673088E+04  0.30415673088E+04  0.00000000000E+00 0. -1.
         23    2    1    2    0    0 -0.36988391572E+03  0.23208759268E+03 -0.72639268189E+03  0.85259681809E+03  0.92715932476E+02 0.  0.
    5000000    2    1    2    0    0  0.36988391572E+03 -0.23208759268E+03 -0.21909208105E+04  0.23132243071E+04  0.60016159077E+03 0.  0.
         23    2    4    4    0    0  0.47167256007E+03 -0.31993503175E+03 -0.16346556265E+04  0.17335388433E+04  0.90688894709E+02 0.  0.
         23    2    4    4    0    0 -0.10178864435E+03  0.87847439078E+02 -0.55626518405E+03  0.57968546376E+03  0.92337323113E+02 0.  0.
          1    1    3    3  502    0 -0.14650951977E+03  0.43822247393E+02 -0.21881021366E+03  0.26695194016E+03  0.00000000000E+00 0. -1.
         -1    1    3    3    0  502 -0.22337439595E+03  0.18826534528E+03 -0.50758246823E+03  0.58564487793E+03  0.00000000000E+00 0.  1.
         15    1    5    5    0    0  0.70575047868E+02 -0.12674892906E+02 -0.19170092470E+03  0.20467997594E+03  0.17770000000E+01 0. -1.
        -15    1    5    5    0    0  0.40109751220E+03 -0.30726013885E+03 -0.14429547018E+04  0.15288588674E+04  0.17770000000E+01 0.  1.
          3    1    6    6  503    0 -0.55312230550E+02  0.24397423216E+02 -0.10126533078E+03  0.11793788334E+03  0.00000000000E+00 0. -1.
         -3    1    6    6    0  503 -0.46476413797E+02  0.63450015862E+02 -0.45499985327E+03  0.46174758043E+03  0.00000000000E+00 0.  1.
<mgrwt>
<rscale>  0 0.58057373E+03</rscale>
<asrwt>0</asrwt>
<pdfrwt beam="1">  1        2 0.46793342E+00 0.58057373E+03</pdfrwt>
<pdfrwt beam="2">  1       -2 0.19115972E-01 0.58057373E+03</pdfrwt>
<totfact> 0.41225200E+01</totfact>
</mgrwt>
</event>
<event>
12    1  0.8033771E-008  0.5703738E+03  0.7818608E-02  0.9968852E-01
         -1   -1    0    0    0  501 -0.00000000000E+00  0.00000000000E+00  0.88607771744E+03  0.88607771744E+03  0.00000000000E+00 0.  1.
          1   -1    0    0  501    0  0.00000000000E+00 -0.00000000000E+00 -0.43114842285E+03  0.43114842285E+03  0.00000000000E+00 0. -1.
         23    2    1    2    0    0 -0.45430954840E+03  0.10305055640E+02  0.29010123740E+03  0.54681343429E+03  0.91339170349E+02 0.  0.
    5000000    2    1    2    0    0  0.45430954840E+03 -0.10305055640E+02  0.16482805719E+03  0.77041270599E+03  0.59988673029E+03 0.  0.
         23    2    4    4    0    0 -0.81089566905E+02 -0.61276775611E+02 -0.94584673583E+02  0.16638794810E+03  0.91696933997E+02 0.  0.
         23    2    4    4    0    0  0.53539911531E+03  0.50971719971E+02  0.25941273077E+03  0.60402475790E+03  0.91107707465E+02 0.  0.
          2    1    3    3  502    0 -0.19118085504E+03 -0.36707029470E+02  0.10035859883E+03  0.21901911722E+03  0.00000000000E+00 0. -1.
         -2    1    3    3    0  502 -0.26312869336E+03  0.47012085110E+02  0.18974263857E+03  0.32779431708E+03  0.00000000000E+00 0.  1.
         15    1    5    5    0    0 -0.14069100608E+02  0.22591786055E+02 -0.33616823290E+02  0.42913598383E+02  0.17770000000E+01 0.  1.
        -15    1    5    5    0    0 -0.67020466297E+02 -0.83868561665E+02 -0.60967850294E+02  0.12347434971E+03  0.17770000000E+01 0. -1.
          4    1    6    6  503    0  0.43018742346E+03  0.57797097240E+01  0.21757960647E+03  0.48211565987E+03  0.00000000000E+00 0. -1.
         -4    1    6    6    0  503  0.10521169185E+03  0.45192010247E+02  0.41833124303E+02  0.12190909802E+03  0.00000000000E+00 0.  1.
<mgrwt>
<rscale>  0 0.57037375E+03</rscale>
<asrwt>0</asrwt>
<pdfrwt beam="1">  1        1 0.66330527E-01 0.57037375E+03</pdfrwt>
<pdfrwt beam="2">  1       -1 0.13631965E+00 0.57037375E+03</pdfrwt>
<totfact> 0.25488766E+01</totfact>
</mgrwt>
</event>
<event>
12    1  0.8033771E-008  0.6749226E+03  0.7818608E-02  0.9761106E-01
         -2   -1    0    0    0  501 -0.00000000000E+00  0.00000000000E+00  0.28712899554E+03  0.28712899554E+03  0.00000000000E+00 0. -1.
          2   -1    0    0  501    0  0.00000000000E+00 -0.00000000000E+00 -0.32015642489E+04  0.32015642489E+04  0.00000000000E+00 0.  1.
         23    2    1    2    0    0  0.59246527147E+03 -0.12535195613E+02 -0.17785412907E+03  0.62526985419E+03  0.90322036625E+02 0.  0.
    5000000    2    1    2    0    0 -0.59246527147E+03  0.12535195613E+02 -0.27365811243E+04  0.28634233902E+04  0.59928710398E+03 0.  0.
         23    2    4    4    0    0 -0.15591219440E+03  0.20810915133E+03 -0.16492942476E+04  0.16721601983E+04  0.91269831664E+02 0.  0.
         23    2    4    4    0    0 -0.43655307707E+03 -0.19557395572E+03 -0.10872868766E+04  0.11912631920E+04  0.89930412882E+02 0.  0.
          4    1    3    3  502    0  0.91545788081E+02 -0.22219366783E+01 -0.63282137991E+02  0.11131126316E+03  0.00000000000E+00 0. -1.
         -4    1    3    3    0  502  0.50091948339E+03 -0.10313258935E+02 -0.11457199108E+03  0.51395859102E+03  0.00000000000E+00 0.  1.
         15    1    5    5    0    0 -0.14987262932E+03  0.13356807607E+03 -0.12101492456E+04  0.12266892803E+04  0.17770000000E+01 0. -1.
        -15    1    5    5    0    0 -0.60395650792E+01  0.74541075264E+02 -0.43914500201E+03  0.44547091798E+03  0.17770000000E+01 0.  1.
          4    1    6    6  503    0 -0.33502897887E+03 -0.17541192309E+03 -0.91795655542E+03  0.99280310086E+03  0.00000000000E+00 0. -1.
         -4    1    6    6    0  503 -0.10152409820E+03 -0.20162032628E+02 -0.16933032121E+03  0.19846009110E+03  0.00000000000E+00 0.  1.
<mgrwt>
<rscale>  0 0.67492262E+03</rscale>
<asrwt>0</asrwt>
<pdfrwt beam="1">  1        2 0.49254835E+00 0.67492262E+03</pdfrwt>
<pdfrwt beam="2">  1       -2 0.44173691E-01 0.67492262E+03</pdfrwt>
<totfact> 0.68423673E+00</totfact>
</mgrwt>
</event>
<event>
12    1  0.8033771E-008  0.1014635E+04  0.7818608E-02  0.9292637E-01
         -1   -1    0    0    0  501 -0.00000000000E+00  0.00000000000E+00  0.43179834072E+03  0.43179834072E+03  0.00000000000E+00 0.  1.
          1   -1    0    0  501    0  0.00000000000E+00 -0.00000000000E+00 -0.25325974087E+04  0.25325974087E+04  0.00000000000E+00 0. -1.
         23    2    1    2    0    0 -0.20490467884E+03 -0.91499753123E+03 -0.12370208663E+04  0.15553777267E+04  0.98857672625E+02 0.  0.
    5000000    2    1    2    0    0  0.20490467884E+03  0.91499753123E+03 -0.86377820167E+03  0.14090180227E+04  0.60001049748E+03 0.  0.
         23    2    4    4    0    0 -0.17372009930E+03  0.13822040338E+03 -0.23975314104E+03  0.33921996702E+03  0.91132127007E+02 0.  0.
         23    2    4    4    0    0  0.37862477814E+03  0.77677712784E+03 -0.62402506063E+03  0.10697980557E+04  0.91220473073E+02 0.  0.
          4    1    3    3  502    0 -0.51307948850E+02 -0.45042920981E+03 -0.61147270812E+03  0.76119501538E+03  0.00000000000E+00 0. -1.
         -4    1    3    3    0  502 -0.15359672999E+03 -0.46456832141E+03 -0.62554815817E+03  0.79418271129E+03  0.00000000000E+00 0.  1.
         15    1    5    5    0    0 -0.17398701343E+02  0.19302927396E+02 -0.85766784651E+02  0.89634908897E+02  0.17770000000E+01 0. -1.
        -15    1    5    5    0    0 -0.15632139796E+03  0.11891747599E+03 -0.15398635639E+03  0.24958505812E+03  0.17770000000E+01 0.  1.
          2    1    6    6  503    0  0.22830632086E+03  0.47465912235E+03 -0.32489745555E+03  0.61885653846E+03  0.00000000000E+00 0. -1.
         -2    1    6    6    0  503  0.15031845729E+03  0.30211800550E+03 -0.29912760507E+03  0.45094151723E+03  0.00000000000E+00 0.  1.
<mgrwt>
<rscale>  0 0.10146351E+04</rscale>
<asrwt>0</asrwt>
<pdfrwt beam="1">  1        1 0.38963036E+00 0.10146351E+04</pdfrwt>
<pdfrwt beam="2">  1       -1 0.66430516E-01 0.10146351E+04</pdfrwt>
<totfact> 0.30036575E+00</totfact>
</mgrwt>
</event>
<event>
12    1  0.8033771E-008  0.6335849E+03  0.7818608E-02  0.9838078E-01
          2   -1    0    0  501    0  0.00000000000E+00  0.00000000000E+00  0.37383687432E+03  0.37383687432E+03  0.00000000000E+00 0. -1.
         -2   -1    0    0    0  501 -0.00000000000E+00 -0.00000000000E+00 -0.17495435478E+04  0.17495435478E+04  0.00000000000E+00 0.  1.
         23    2    1    2    0    0 -0.60741158572E+03  0.10772596001E+03 -0.17762644049E+03  0.64829447597E+03  0.90448097225E+02 0.  0.
    5000000    2    1    2    0    0  0.60741158572E+03 -0.10772596001E+03 -0.11980802330E+04  0.14750859462E+04  0.59994048616E+03 0.  0.
         23    2    4    4    0    0  0.46974929103E+03 -0.34511749409E+02 -0.12024795321E+04  0.12945717312E+04  0.90019358247E+02 0.  0.
         23    2    4    4    0    0  0.13766229469E+03 -0.73214210602E+02  0.43992990887E+01  0.18051421496E+03  0.90855929672E+02 0.  0.
          3    1    3    3  502    0 -0.20341562920E+03  0.97591856960E+01 -0.23772514940E+02  0.20503241786E+03  0.00000000000E+00 0. -1.
         -3    1    3    3    0  502 -0.40399595652E+03  0.97966774315E+02 -0.15385392555E+03  0.44326205811E+03  0.00000000000E+00 0.  1.
         15    1    5    5    0    0  0.17360853170E+03 -0.38394720578E+02 -0.35935154020E+03  0.40093735672E+03  0.17770000000E+01 0. -1.
        -15    1    5    5    0    0  0.29614075933E+03  0.38829711691E+01 -0.84312799191E+03  0.89363437449E+03  0.17770000000E+01 0.  1.
          2    1    6    6  503    0  0.55510626708E+02 -0.72963948045E+02  0.26515836448E+02  0.95437188634E+02  0.00000000000E+00 0.  1.
         -2    1    6    6    0  503  0.82151667981E+02 -0.25026255713E+00 -0.22116537360E+02  0.85077026325E+02  0.00000000000E+00 0. -1.
<mgrwt>
<rscale>  0 0.63358487E+03</rscale>
<asrwt>0</asrwt>
<pdfrwt beam="1">  1        2 0.57513365E-01 0.63358487E+03</pdfrwt>
<pdfrwt beam="2">  1       -2 0.26916055E+00 0.63358487E+03</pdfrwt>
<totfact> 0.44187902E+00</totfact>
</mgrwt>
</event>
<event>
12    1  0.8033771E-008  0.7424156E+03  0.7818608E-02  0.9647325E-01
          1   -1    0    0  501    0  0.00000000000E+00  0.00000000000E+00  0.17889284527E+04  0.17889284527E+04  0.00000000000E+00 0. -1.
         -1   -1    0    0    0  501 -0.00000000000E+00 -0.00000000000E+00 -0.42983296611E+03  0.42983296611E+03  0.00000000000E+00 0.  1.
         23    2    1    2    0    0 -0.67240916423E+03  0.21915174444E+03  0.98898638124E+03  0.12192817997E+04  0.91610444262E+02 0.  0.
    5000000    2    1    2    0    0  0.67240916423E+03 -0.21915174444E+03  0.37010910539E+03  0.99947961917E+03  0.60151241717E+03 0.  0.
         23    2    4    4    0    0  0.54677215414E+03 -0.52456067511E+02  0.49077192120E+03  0.74211546512E+03  0.90370666545E+02 0.  0.
         23    2    4    4    0    0  0.12563701009E+03 -0.16669567693E+03 -0.12066281581E+03  0.25736415405E+03  0.90026027673E+02 0.  0.
          2    1    3    3  502    0 -0.43149562110E+03  0.98961474198E+02  0.58027208633E+03  0.72986131462E+03  0.00000000000E+00 0. -1.
         -2    1    3    3    0  502 -0.24091354313E+03  0.12019027025E+03  0.40871429490E+03  0.48942048505E+03  0.00000000000E+00 0.  1.
         15    1    5    5    0    0  0.34231900161E+03  0.28378035839E+01  0.33698852269E+03  0.48036941425E+03  0.17770000000E+01 0. -1.
        -15    1    5    5    0    0  0.20445315253E+03 -0.55293871095E+02  0.15378339850E+03  0.26174605087E+03  0.17770000000E+01 0.  1.
          2    1    6    6  503    0  0.11666271947E+03 -0.10670044489E+03 -0.11682740140E+03  0.19658030617E+03  0.00000000000E+00 0. -1.
         -2    1    6    6    0  503  0.89742906226E+01 -0.59995232039E+02 -0.38354144008E+01  0.60783847881E+02  0.00000000000E+00 0.  1.
<mgrwt>
<rscale>  0 0.74241563E+03</rscale>
<asrwt>0</asrwt>
<pdfrwt beam="1">  1        1 0.27521976E+00 0.74241563E+03</pdfrwt>
<pdfrwt beam="2">  1       -1 0.66128150E-01 0.74241563E+03</pdfrwt>
<totfact> 0.10028255E+01</totfact>
</mgrwt>
</event>
<event>
12    1  0.8033771E-008  0.7570587E+03  0.7818608E-02  0.9624341E-01
         -1   -1    0    0    0  501 -0.00000000000E+00  0.00000000000E+00  0.25371665947E+03  0.25371665947E+03  0.00000000000E+00 0.  1.
          1   -1    0    0  501    0  0.00000000000E+00 -0.00000000000E+00 -0.27904527789E+04  0.27904527789E+04  0.00000000000E+00 0. -1.
         23    2    1    2    0    0  0.25450127860E+03  0.68247164968E+03 -0.12286176978E+04  0.14311499851E+04  0.90279449945E+02 0.  0.
    5000000    2    1    2    0    0 -0.25450127860E+03 -0.68247164968E+03 -0.13081184216E+04  0.16130194532E+04  0.60009957354E+03 0.  0.
         23    2    4    4    0    0  0.12133209989E+02 -0.30258242677E+03 -0.12667854140E+03  0.34050252602E+03  0.90505124710E+02 0.  0.
         23    2    4    4    0    0 -0.26663448859E+03 -0.37988922291E+03 -0.11814398802E+04  0.12725169272E+04  0.89940910192E+02 0.  0.
          1    1    3    3  502    0  0.17419012276E+03  0.33999618102E+03 -0.62433757733E+03  0.73194057985E+03  0.00000000000E+00 0. -1.
         -1    1    3    3    0  502  0.80311155840E+02  0.34247546867E+03 -0.60428012049E+03  0.69920940526E+03  0.00000000000E+00 0.  1.
         15    1    5    5    0    0  0.23301578450E+02 -0.45900426504E+02 -0.51410114267E+02  0.72773417464E+02  0.17770000000E+01 0. -1.
        -15    1    5    5    0    0 -0.11168368461E+02 -0.25668200027E+03 -0.75268427130E+02  0.26772910856E+03  0.17770000000E+01 0.  1.
          4    1    6    6  503    0 -0.45867500044E+02 -0.13303793963E+03 -0.38837895647E+03  0.41308732100E+03  0.00000000000E+00 0. -1.
         -4    1    6    6    0  503 -0.22076698855E+03 -0.24685128328E+03 -0.79306092374E+03  0.85942960622E+03  0.00000000000E+00 0.  1.
<mgrwt>
<rscale>  0 0.75705868E+03</rscale>
<asrwt>0</asrwt>
<pdfrwt beam="1">  1        1 0.42930046E+00 0.75705868E+03</pdfrwt>
<pdfrwt beam="2">  1       -1 0.39033329E-01 0.75705868E+03</pdfrwt>
<totfact> 0.57238872E+00</totfact>
</mgrwt>
</event>
<event>
12    1  0.8033771E-008  0.7936088E+03  0.7818608E-02  0.9569314E-01
         -1   -1    0    0    0  501 -0.00000000000E+00  0.00000000000E+00  0.53479916957E+03  0.53479916957E+03  0.00000000000E+00 0.  1.
          1   -1    0    0  501    0  0.00000000000E+00 -0.00000000000E+00 -0.16138443288E+04  0.16138443288E+04  0.00000000000E+00 0. -1.
         23    2    1    2    0    0 -0.64807955592E+02 -0.68456130110E+03 -0.10212475398E+04  0.12341443574E+04  0.85682620070E+02 0.  0.
    5000000    2    1    2    0    0  0.64807955592E+02  0.68456130110E+03 -0.57797619405E+02  0.91449914090E+03  0.60011987788E+03 0.  0.
         23    2    4    4    0    0 -0.17574021137E+03  0.59400690042E+03  0.29394877468E+02  0.62690973745E+03  0.91776578951E+02 0.  0.
         23    2    4    4    0    0  0.24054816696E+03  0.90554400680E+02 -0.87192496873E+02  0.28758940346E+03  0.95087398534E+02 0.  0.
          4    1    3    3  502    0  0.12405751530E+02 -0.29161768105E+03 -0.45604953190E+03  0.54145724680E+03  0.00000000000E+00 0. -1.
         -4    1    3    3    0  502 -0.77213707121E+02 -0.39294362005E+03 -0.56519800791E+03  0.69268711064E+03  0.00000000000E+00 0.  1.
         15    1    5    5    0    0 -0.91864680080E+02  0.23311862632E+03 -0.27417769115E+02  0.25206805664E+03  0.17770000000E+01 0. -1.
        -15    1    5    5    0    0 -0.83875531289E+02  0.36088827410E+03  0.56812646584E+02  0.37484168081E+03  0.17770000000E+01 0.  1.
          3    1    6    6  503    0  0.93576266335E+02 -0.12336909136E+02 -0.24144346272E+02  0.97425183629E+02  0.00000000000E+00 0. -1.
         -3    1    6    6    0  503  0.14697190063E+03  0.10289130982E+03 -0.63048150601E+02  0.19016421983E+03  0.00000000000E+00 0.  1.
<mgrwt>
<rscale>  0 0.79360881E+03</rscale>
<asrwt>0</asrwt>
<pdfrwt beam="1">  1        1 0.24828374E+00 0.79360881E+03</pdfrwt>
<pdfrwt beam="2">  1       -1 0.82276796E-01 0.79360881E+03</pdfrwt>
<totfact> 0.82932955E+00</totfact>
</mgrwt>
</event>
<event>
12    1  0.8033771E-008  0.2004498E+04  0.7818608E-02  0.8604520E-01
         -2   -1    0    0    0  501 -0.00000000000E+00  0.00000000000E+00  0.18978115319E+04  0.18978115319E+04  0.00000000000E+00 0.  1.
          2   -1    0    0  501    0  0.00000000000E+00 -0.00000000000E+00 -0.35594309568E+04  0.35594309568E+04  0.00000000000E+00 0. -1.
         23    2    1    2    0    0 -0.55518666377E+03 -0.18983534530E+04 -0.25319216797E+04  0.32146061018E+04  0.10529450882E+03 0.  0.
    5000000    2    1    2    0    0  0.55518666377E+03  0.18983534530E+04  0.87030225485E+03  0.22426363868E+04  0.60001157024E+03 0.  0.
         23    2    4    4    0    0 -0.51213896674E+02  0.51138590976E+03  0.38909913728E+03  0.65161252358E+03  0.95196272713E+02 0.  0.
         23    2    4    4    0    0  0.60640056044E+03  0.13869675432E+04  0.48120311757E+03  0.15910238632E+04  0.91650898787E+02 0.  0.
          4    1    3    3  502    0 -0.12638659789E+03 -0.47206242404E+03 -0.69868831952E+03  0.85263231944E+03  0.00000000000E+00 0. -1.
         -4    1    3    3    0  502 -0.42880006588E+03 -0.14262910290E+04 -0.18332333602E+04  0.23619737824E+04  0.00000000000E+00 0.  1.
         15    1    5    5    0    0 -0.19769260415E+02  0.92549030930E+02  0.11977893902E+03  0.15266400606E+03  0.17770000000E+01 0.  1.
        -15    1    5    5    0    0 -0.31444636259E+02  0.41883687883E+03  0.26932019826E+03  0.49894851752E+03  0.17770000000E+01 0. -1.
          3    1    6    6  503    0  0.46576004392E+03  0.11497388231E+04  0.38299190649E+03  0.12982736924E+04  0.00000000000E+00 0. -1.
         -3    1    6    6    0  503  0.14064051653E+03  0.23722872011E+03  0.98211211089E+02  0.29275017082E+03  0.00000000000E+00 0.  1.
<mgrwt>
<rscale>  0 0.20044985E+04</rscale>
<asrwt>0</asrwt>
<pdfrwt beam="1">  1        2 0.54760476E+00 0.20044985E+04</pdfrwt>
<pdfrwt beam="2">  1       -2 0.29197101E+00 0.20044985E+04</pdfrwt>
<totfact> 0.23246410E-02</totfact>
</mgrwt>
</event>
<event>
12    1  0.8033771E-008  0.4936761E+03  0.7818608E-02  0.1015443E+00
          1   -1    0    0  501    0  0.00000000000E+00  0.00000000000E+00  0.34887696774E+03  0.34887696774E+03  0.00000000000E+00 0. -1.
         -1   -1    0    0    0  501 -0.00000000000E+00 -0.00000000000E+00 -0.10593065125E+04  0.10593065125E+04  0.00000000000E+00 0.  1.
         23    2    1    2    0    0 -0.41474513755E+02  0.37410792099E+03 -0.56528548791E+03  0.68507631897E+03  0.90027818643E+02 0.  0.
    5000000    2    1    2    0    0  0.41474513755E+02 -0.37410792099E+03 -0.14514405680E+03  0.72310716123E+03  0.60011690324E+03 0.  0.
         23    2    4    4    0    0 -0.19645682761E+03 -0.16492389276E+03  0.12209723257E+03  0.29911754454E+03  0.93639712362E+02 0.  0.
         23    2    4    4    0    0  0.23793134137E+03 -0.20918402823E+03 -0.26724128936E+03  0.42398961669E+03  0.89330887424E+02 0.  0.
          3    1    3    3  502    0  0.27376753685E+02  0.15309115142E+03 -0.22560902541E+03  0.27401791845E+03  0.00000000000E+00 0. -1.
         -3    1    3    3    0  502 -0.68851267439E+02  0.22101676957E+03 -0.33967646250E+03  0.41105840052E+03  0.00000000000E+00 0.  1.
         15    1    5    5    0    0 -0.22230845373E+02 -0.71221273082E+02  0.24731818161E+02  0.78622520845E+02  0.17770000000E+01 0.  1.
        -15    1    5    5    0    0 -0.17422598224E+03 -0.93702619676E+02  0.97365414405E+02  0.22049502369E+03  0.17770000000E+01 0. -1.
          4    1    6    6  503    0  0.10062025073E+03 -0.36011386305E+02 -0.69887044254E+02  0.12769281011E+03  0.00000000000E+00 0. -1.
         -4    1    6    6    0  503  0.13731109064E+03 -0.17317264193E+03 -0.19735424511E+03  0.29629680658E+03  0.00000000000E+00 0.  1.
<mgrwt>
<rscale>  0 0.49367611E+03</rscale>
<asrwt>0</asrwt>
<pdfrwt beam="1">  1        1 0.53673379E-01 0.49367611E+03</pdfrwt>
<pdfrwt beam="2">  1       -1 0.16297023E+00 0.49367611E+03</pdfrwt>
<totfact> 0.21141630E+01</totfact>
</mgrwt>
</event>
<event>
12    1  0.8033771E-008  0.6363522E+03  0.7818608E-02  0.9832731E-01
          1   -1    0    0  501    0  0.00000000000E+00  0.00000000000E+00  0.97133210102E+03  0.97133210102E+03  0.00000000000E+00 0. -1.
         -1   -1    0    0    0  501 -0.00000000000E+00 -0.00000000000E+00 -0.57127037390E+03  0.57127037390E+03  0.00000000000E+00 0.  1.
         23    2    1    2    0    0 -0.51185424807E+03  0.15112192911E+02  0.53096888541E+03  0.74307050221E+03  0.89457611986E+02 0.  0.
    5000000    2    1    2    0    0  0.51185424807E+03 -0.15112192911E+02 -0.13090715829E+03  0.79953197271E+03  0.59990961124E+03 0.  0.
         23    2    4    4    0    0  0.41200562976E+03  0.24288336824E+03 -0.19435365091E+02  0.48742605022E+03  0.92007888240E+02 0.  0.
         23    2    4    4    0    0  0.99848618308E+02 -0.25799556115E+03 -0.11147179320E+03  0.31210592249E+03  0.91938512171E+02 0.  0.
          2    1    3    3  502    0 -0.16031164136E+03  0.27006191606E+02  0.22018693160E+03  0.27369954620E+03  0.00000000000E+00 0. -1.
         -2    1    3    3    0  502 -0.35154260671E+03 -0.11893998695E+02  0.31078195381E+03  0.46937095601E+03  0.00000000000E+00 0.  1.
         15    1    5    5    0    0  0.22838767266E+03  0.14714120950E+03  0.33320964683E+02  0.27372414759E+03  0.17770000000E+01 0. -1.
        -15    1    5    5    0    0  0.18361795710E+03  0.95742158738E+02 -0.52756329774E+02  0.21370190264E+03  0.17770000000E+01 0.  1.
          4    1    6    6  503    0  0.53570134249E+02 -0.84480550330E+02  0.13192531841E+01  0.10004230653E+03  0.00000000000E+00 0. -1.
         -4    1    6    6    0  503  0.46278484059E+02 -0.17351501082E+03 -0.11279104638E+03  0.21206361595E+03  0.00000000000E+00 0.  1.
<mgrwt>
<rscale>  0 0.63635220E+03</rscale>
<asrwt>0</asrwt>
<pdfrwt beam="1">  1        1 0.14943571E+00 0.63635220E+03</pdfrwt>
<pdfrwt beam="2">  1       -1 0.87887750E-01 0.63635220E+03</pdfrwt>
<totfact> 0.21177701E+01</totfact>
</mgrwt>
</event>
<event>
12    1  0.8033771E-008  0.5933855E+03  0.7818608E-02  0.9919225E-01
         -2   -1    0    0    0  501 -0.00000000000E+00  0.00000000000E+00  0.44291910937E+03  0.44291910937E+03  0.00000000000E+00 0.  1.
          2   -1    0    0  501    0  0.00000000000E+00 -0.00000000000E+00 -0.91848658106E+03  0.91848658106E+03  0.00000000000E+00 0. -1.
         23    2    1    2    0    0  0.33923968642E+03  0.34966604666E+03 -0.11652883650E+03  0.50917164173E+03  0.91251750554E+02 0.  0.
    5000000    2    1    2    0    0 -0.33923968642E+03 -0.34966604666E+03 -0.35903863519E+03  0.85223404869E+03  0.60003685150E+03 0.  0.
         23    2    4    4    0    0 -0.35553120562E+03 -0.30397830075E+02 -0.36692255662E+03  0.51958907043E+03  0.89521915246E+02 0.  0.
         23    2    4    4    0    0  0.16291519202E+02 -0.31926821658E+03  0.78839214322E+01  0.33264497826E+03  0.91612868224E+02 0.  0.
          4    1    3    3  502    0  0.21665431688E+03  0.26194835230E+03 -0.46989129615E+02  0.34316761298E+03  0.00000000000E+00 0.  1.
         -4    1    3    3    0  502  0.12258536954E+03  0.87717694361E+02 -0.69539706885E+02  0.16600402875E+03  0.00000000000E+00 0. -1.
         15    1    5    5    0    0 -0.29419558290E+03  0.10077114666E+02 -0.29470354948E+03  0.41654042906E+03  0.17770000000E+01 0.  1.
        -15    1    5    5    0    0 -0.61335622720E+02 -0.40474944741E+02 -0.72219007148E+02  0.10304864137E+03  0.17770000000E+01 0. -1.
          1    1    6    6  503    0 -0.29836895588E+02 -0.13579713481E+03  0.29814396380E+02  0.14219704777E+03  0.00000000000E+00 0. -1.
         -1    1    6    6    0  503  0.46128414790E+02 -0.18347108177E+03 -0.21930474948E+02  0.19044793049E+03  0.00000000000E+00 0.  1.
<mgrwt>
<rscale>  0 0.59338551E+03</rscale>
<asrwt>0</asrwt>
<pdfrwt beam="1">  1        2 0.14130563E+00 0.59338551E+03</pdfrwt>
<pdfrwt beam="2">  1       -2 0.68141402E-01 0.59338551E+03</pdfrwt>
<totfact> 0.57795432E+01</totfact>
</mgrwt>
</event>
<event>
12    1  0.8033771E-008  0.2217614E+04  0.7818608E-02  0.8511132E-01
         -2   -1    0    0    0  501 -0.00000000000E+00  0.00000000000E+00  0.10799066728E+04  0.10799066728E+04  0.00000000000E+00 0.  1.
          2   -1    0    0  501    0  0.00000000000E+00 -0.00000000000E+00 -0.49529114308E+04  0.49529114308E+04  0.00000000000E+00 0. -1.
         23    2    1    2    0    0 -0.20161410826E+04 -0.92103480343E+03 -0.25605657957E+04  0.33879008369E+04  0.90801497654E+02 0.  0.
    5000000    2    1    2    0    0  0.20161410826E+04  0.92103480343E+03 -0.13124389622E+04  0.26449172668E+04  0.59996778613E+03 0.  0.
         23    2    4    4    0    0  0.15951257238E+04  0.76586616699E+03 -0.12810131728E+04  0.21860342200E+04  0.82303109276E+02 0.  0.
         23    2    4    4    0    0  0.42101535880E+03  0.15516863644E+03 -0.31425789446E+02  0.45888304674E+03  0.90856107497E+02 0.  0.
          2    1    3    3  502    0 -0.16891969542E+04 -0.75320406417E+03 -0.20902848773E+04  0.27910559974E+04  0.00000000000E+00 0. -1.
         -2    1    3    3    0  502 -0.32694412843E+03 -0.16783073926E+03 -0.47028091845E+03  0.59684483948E+03  0.00000000000E+00 0.  1.
         15    1    5    5    0    0  0.12732426333E+04  0.61699544110E+03 -0.98333454915E+03  0.17230148493E+04  0.17770000000E+01 0. -1.
        -15    1    5    5    0    0  0.32188309050E+03  0.14887072589E+03 -0.29767862362E+03  0.46301937072E+03  0.17770000000E+01 0.  1.
          1    1    6    6  503    0  0.30897967709E+03  0.11335150654E+03 -0.63244175458E+02  0.33513703260E+03  0.00000000000E+00 0. -1.
         -1    1    6    6    0  503  0.11203568171E+03  0.41817129896E+02  0.31818386012E+02  0.12374601415E+03  0.00000000000E+00 0.  1.
<mgrwt>
<rscale>  0 0.22176140E+04</rscale>
<asrwt>0</asrwt>
<pdfrwt beam="1">  1        2 0.76198636E+00 0.22176140E+04</pdfrwt>
<pdfrwt beam="2">  1       -2 0.16613949E+00 0.22176140E+04</pdfrwt>
<totfact> 0.79214400E-03</totfact>
</mgrwt>
</event>
<event>
12    1  0.8033771E-008  0.4548100E+03  0.7818608E-02  0.1026297E+00
          2   -1    0    0  501    0  0.00000000000E+00  0.00000000000E+00  0.36215098899E+03  0.36215098899E+03  0.00000000000E+00 0. -1.
         -2   -1    0    0    0  501 -0.00000000000E+00 -0.00000000000E+00 -0.98410514082E+03  0.98410514082E+03  0.00000000000E+00 0.  1.
         23    2    1    2    0    0  0.10757986664E+02  0.42968232129E+03 -0.14118755528E+03  0.46545635276E+03  0.10942147439E+03 0.  0.
    5000000    2    1    2    0    0 -0.10757986664E+02 -0.42968232129E+03 -0.48076659655E+03  0.88079977705E+03  0.59994090991E+03 0.  0.
         23    2    4    4    0    0  0.22972393437E+02 -0.14027502011E+03 -0.54125354865E+03  0.56710184330E+03  0.91892788722E+02 0.  0.
         23    2    4    4    0    0 -0.33730380101E+02 -0.28940730118E+03  0.60486952109E+02  0.31369793374E+03  0.99264282297E+02 0.  0.
          2    1    3    3  502    0  0.44974500814E+02  0.79657149309E+02 -0.21657671546E+02  0.94005435461E+02  0.00000000000E+00 0. -1.
         -2    1    3    3    0  502 -0.34216514149E+02  0.35002517198E+03 -0.11952988373E+03  0.37145091730E+03  0.00000000000E+00 0.  1.
         15    1    5    5    0    0  0.51453412422E+02 -0.43435703481E+02 -0.24653233684E+03  0.25556890426E+03  0.17770000000E+01 0. -1.
        -15    1    5    5    0    0 -0.28481018985E+02 -0.96839316626E+02 -0.29472121182E+03  0.31153293905E+03  0.17770000000E+01 0.  1.
          4    1    6    6  503    0 -0.52624899457E+02 -0.21924468143E+03  0.10913621154E+02  0.22573594642E+03  0.00000000000E+00 0. -1.
         -4    1    6    6    0  503  0.18894519356E+02 -0.70162619751E+02  0.49573330956E+02  0.87961987324E+02  0.00000000000E+00 0.  1.
<mgrwt>
<rscale>  0 0.45480999E+03</rscale>
<asrwt>0</asrwt>
<pdfrwt beam="1">  1        2 0.55715537E-01 0.45480999E+03</pdfrwt>
<pdfrwt beam="2">  1       -2 0.15140079E+00 0.45480999E+03</pdfrwt>
<totfact> 0.27077225E+01</totfact>
</mgrwt>
</event>
<event>
12    1  0.8033771E-008  0.1458919E+04  0.7818608E-02  0.8912240E-01
          1   -1    0    0  501    0  0.00000000000E+00  0.00000000000E+00  0.50858126925E+04  0.50858126925E+04  0.00000000000E+00 0. -1.
         -1   -1    0    0    0  501 -0.00000000000E+00 -0.00000000000E+00 -0.44179696519E+03  0.44179696519E+03  0.00000000000E+00 0.  1.
         23    2    1    2    0    0  0.11549850017E+04  0.78859293468E+03  0.16185900868E+04  0.21410133131E+04  0.90746720343E+02 0.  0.
    5000000    2    1    2    0    0 -0.11549850017E+04 -0.78859293468E+03  0.30254256406E+04  0.33865963446E+04  0.59997110229E+03 0.  0.
         23    2    4    4    0    0 -0.37451341919E+03  0.29407137453E+02  0.78184833395E+03  0.87251760545E+03  0.94207609185E+02 0.  0.
         23    2    4    4    0    0 -0.78047158253E+03 -0.81800007213E+03  0.22435773066E+04  0.25140787391E+04  0.93235007172E+02 0.  0.
          2    1    3    3  502    0  0.84753838986E+03  0.58407671790E+03  0.11288921428E+04  0.15276990557E+04  0.00000000000E+00 0. -1.
         -2    1    3    3    0  502  0.30744661186E+03  0.20451621678E+03  0.48969794397E+03  0.61331425745E+03  0.00000000000E+00 0.  1.
         15    1    5    5    0    0 -0.12782289277E+03  0.50095827022E+02  0.23350693272E+03  0.27088176232E+03  0.17770000000E+01 0.  1.
        -15    1    5    5    0    0 -0.24669052642E+03 -0.20688689569E+02  0.54834140124E+03  0.60163584313E+03  0.17770000000E+01 0. -1.
          4    1    6    6  503    0 -0.70846372210E+03 -0.69851588434E+03  0.19731034142E+04  0.22097471279E+04  0.00000000000E+00 0. -1.
         -4    1    6    6    0  503 -0.72007860426E+02 -0.11948418779E+03  0.27047389245E+03  0.30433161122E+03  0.00000000000E+00 0.  1.
<mgrwt>
<rscale>  0 0.14589193E+04</rscale>
<asrwt>0</asrwt>
<pdfrwt beam="1">  1        1 0.78243268E+00 0.14589193E+04</pdfrwt>
<pdfrwt beam="2">  1       -1 0.67968767E-01 0.14589193E+04</pdfrwt>
<totfact> 0.14721867E-02</totfact>
</mgrwt>
</event>
<event>
12    1  0.8033771E-008  0.1588456E+04  0.7818608E-02  0.8827672E-01
         -1   -1    0    0    0  501 -0.00000000000E+00  0.00000000000E+00  0.13080408612E+04  0.13080408612E+04  0.00000000000E+00 0.  1.
          1   -1    0    0  501    0  0.00000000000E+00 -0.00000000000E+00 -0.25865185568E+04  0.25865185568E+04  0.00000000000E+00 0. -1.
         23    2    1    2    0    0 -0.84075470597E+03  0.13237486383E+04  0.28941082844E+03  0.15972224878E+04  0.90455044437E+02 0.  0.
    5000000    2    1    2    0    0  0.84075470597E+03 -0.13237486383E+04 -0.15678885240E+04  0.22973369302E+04  0.60025295861E+03 0.  0.
         23    2    4    4    0    0  0.41611274044E+02 -0.25144354340E+03 -0.55186983093E+02  0.27614388730E+03  0.90854222488E+02 0.  0.
         23    2    4    4    0    0  0.79914343192E+03 -0.10723050949E+04 -0.15127015410E+04  0.20211930429E+04  0.92124500545E+02 0.  0.
          3    1    3    3  502    0 -0.74494933470E+03  0.11318994409E+04  0.27201496809E+03  0.13820774213E+04  0.00000000000E+00 0. -1.
         -3    1    3    3    0  502 -0.95805371269E+02  0.19184919739E+03  0.17395860354E+02  0.21514506655E+03  0.00000000000E+00 0.  1.
         15    1    5    5    0    0  0.62395327338E+02 -0.12517641282E+03 -0.48296957481E+02  0.14797994807E+03  0.17770000000E+01 0. -1.
        -15    1    5    5    0    0 -0.20784053294E+02 -0.12626713058E+03 -0.68900256122E+01  0.12816393923E+03  0.17770000000E+01 0.  1.
          2    1    6    6  503    0  0.14469634279E+03 -0.24717590816E+03 -0.29308036891E+03  0.40979148824E+03  0.00000000000E+00 0. -1.
         -2    1    6    6    0  503  0.65444708914E+03 -0.82512918670E+03 -0.12196211720E+04  0.16114015547E+04  0.00000000000E+00 0.  1.
<mgrwt>
<rscale>  0 0.15884556E+04</rscale>
<asrwt>0</asrwt>
<pdfrwt beam="1">  1        1 0.39792593E+00 0.15884556E+04</pdfrwt>
<pdfrwt beam="2">  1       -1 0.20123706E+00 0.15884556E+04</pdfrwt>
<totfact> 0.16281413E-01</totfact>
</mgrwt>
</event>
<event>
12    1  0.8033771E-008  0.6949027E+03  0.7818608E-02  0.9725989E-01
          1   -1    0    0  501    0  0.00000000000E+00  0.00000000000E+00  0.14293147316E+04  0.14293147316E+04  0.00000000000E+00 0. -1.
         -1   -1    0    0    0  501 -0.00000000000E+00 -0.00000000000E+00 -0.40180832117E+03  0.40180832117E+03  0.00000000000E+00 0.  1.
         23    2    1    2    0    0 -0.11305969098E+03 -0.57377737096E+03  0.73483929821E+03  0.94357043003E+03  0.91287442075E+02 0.  0.
    5000000    2    1    2    0    0  0.11305969098E+03  0.57377737096E+03  0.29266711218E+03  0.88755262269E+03  0.60007720699E+03 0.  0.
         23    2    4    4    0    0  0.20958830905E+03 -0.85786527718E+01  0.14759903666E+03  0.27240341617E+03  0.91745806158E+02 0.  0.
         23    2    4    4    0    0 -0.96528618065E+02  0.58235602373E+03  0.14506807552E+03  0.61514920652E+03  0.94379485400E+02 0.  0.
          1    1    3    3  502    0 -0.64816226269E+01 -0.14537254990E+03  0.23776417632E+03  0.27875974106E+03  0.00000000000E+00 0. -1.
         -1    1    3    3    0  502 -0.10657806835E+03 -0.42840482106E+03  0.49707512189E+03  0.66481068897E+03  0.00000000000E+00 0.  1.
         15    1    5    5    0    0  0.10886411073E+03 -0.77019346021E+00  0.21786571263E+02  0.11103963356E+03  0.17770000000E+01 0. -1.
        -15    1    5    5    0    0  0.10072419831E+03 -0.78084593116E+01  0.12581246539E+03  0.16136378261E+03  0.17770000000E+01 0.  1.
          3    1    6    6  503    0 -0.82762743498E+01  0.21255732088E+03  0.14665392622E+02  0.21322332217E+03  0.00000000000E+00 0. -1.
         -3    1    6    6    0  503 -0.88252343715E+02  0.36979870285E+03  0.13040268290E+03  0.40192588435E+03  0.00000000000E+00 0.  1.
<mgrwt>
<rscale>  0 0.69490266E+03</rscale>
<asrwt>0</asrwt>
<pdfrwt beam="1">  1        1 0.21989457E+00 0.69490266E+03</pdfrwt>
<pdfrwt beam="2">  1       -1 0.61816665E-01 0.69490266E+03</pdfrwt>
<totfact> 0.20255192E+01</totfact>
</mgrwt>
</event>
<event>
12    1  0.8033771E-008  0.6099456E+03  0.7818608E-02  0.9884984E-01
          1   -1    0    0  501    0  0.00000000000E+00  0.00000000000E+00  0.10423582665E+04  0.10423582665E+04  0.00000000000E+00 0. -1.
         -1   -1    0    0    0  501 -0.00000000000E+00 -0.00000000000E+00 -0.84810254813E+03  0.84810254813E+03  0.00000000000E+00 0.  1.
         23    2    1    2    0    0  0.57503047078E+03 -0.84417685897E+02  0.69967083576E+03  0.91413274797E+03  0.91175734027E+02 0.  0.
    5000000    2    1    2    0    0 -0.57503047078E+03  0.84417685897E+02 -0.50541511737E+03  0.97632806668E+03  0.59998805397E+03 0.  0.
         23    2    4    4    0    0 -0.66853908063E+02  0.53350067328E+02  0.11398295821E+03  0.16957899657E+03  0.91919783553E+02 0.  0.
         23    2    4    4    0    0 -0.50817656272E+03  0.31067618569E+02 -0.61939807559E+03  0.80674907011E+03  0.89339074676E+02 0.  0.
          1    1    3    3  502    0  0.21949421175E+03 -0.31410247857E+02  0.33777631436E+03  0.40405092649E+03  0.00000000000E+00 0. -1.
         -1    1    3    3    0  502  0.35553625903E+03 -0.53007438040E+02  0.36189452140E+03  0.51008182147E+03  0.00000000000E+00 0.  1.
         15    1    5    5    0    0 -0.82656411126E+02  0.15036296097E+02  0.74187924214E+02  0.11209450624E+03  0.17770000000E+01 0.  1.
        -15    1    5    5    0    0  0.15802503063E+02  0.38313771231E+02  0.39795034000E+02  0.57484490335E+02  0.17770000000E+01 0. -1.
          3    1    6    6  503    0 -0.92044301972E+02  0.30759666466E+02 -0.15792399038E+03  0.18535991299E+03  0.00000000000E+00 0. -1.
         -3    1    6    6    0  503 -0.41613226074E+03  0.30795210233E+00 -0.46147408521E+03  0.62138915712E+03  0.00000000000E+00 0.  1.
<mgrwt>
<rscale>  0 0.60994558E+03</rscale>
<asrwt>0</asrwt>
<pdfrwt beam="1">  1        1 0.16036281E+00 0.60994558E+03</pdfrwt>
<pdfrwt beam="2">  1       -1 0.13047732E+00 0.60994558E+03</pdfrwt>
<totfact> 0.74615460E+00</totfact>
</mgrwt>
</event>
<event>
12    1  0.8033771E-008  0.9466187E+03  0.7818608E-02  0.9369112E-01
          1   -1    0    0  501    0  0.00000000000E+00  0.00000000000E+00  0.88953800511E+03  0.88953800511E+03  0.00000000000E+00 0. -1.
         -1   -1    0    0    0  501 -0.00000000000E+00 -0.00000000000E+00 -0.11946833940E+04  0.11946833940E+04  0.00000000000E+00 0.  1.
         23    2    1    2    0    0 -0.83644101369E+03 -0.24057163870E+03  0.22207792345E+03  0.90292445925E+03  0.91900447730E+02 0.  0.
    5000000    2    1    2    0    0  0.83644101369E+03  0.24057163870E+03 -0.52722331232E+03  0.11812969398E+04  0.59999146351E+03 0.  0.
         23    2    4    4    0    0  0.13243023820E+03  0.27933394971E+03 -0.49972758451E+02  0.32600690217E+03  0.90653186530E+02 0.  0.
         23    2    4    4    0    0  0.70401077549E+03 -0.38762311006E+02 -0.47725055387E+03  0.85529003766E+03  0.81358887671E+02 0.  0.
          3    1    3    3  502    0 -0.54214363990E+03 -0.11894350714E+03  0.11384578711E+03  0.56659345868E+03  0.00000000000E+00 0. -1.
         -3    1    3    3    0  502 -0.29429737379E+03 -0.12162813156E+03  0.10823213634E+03  0.33633100057E+03  0.00000000000E+00 0.  1.
         15    1    5    5    0    0  0.56590350296E+00  0.50241074188E+02  0.17427996986E+02  0.53210699960E+02  0.17770000000E+01 0. -1.
        -15    1    5    5    0    0  0.13186433470E+03  0.22909287552E+03 -0.67400755437E+02  0.27279620221E+03  0.17770000000E+01 0.  1.
          3    1    6    6  503    0  0.95024422239E+02 -0.85714341471E+01 -0.10036660738E+03  0.13847947928E+03  0.00000000000E+00 0. -1.
         -3    1    6    6    0  503  0.60898635325E+03 -0.30190876859E+02 -0.37688394649E+03  0.71681055838E+03  0.00000000000E+00 0.  1.
<mgrwt>
<rscale>  0 0.94661868E+03</rscale>
<asrwt>0</asrwt>
<pdfrwt beam="1">  1        1 0.13685200E+00 0.94661868E+03</pdfrwt>
<pdfrwt beam="2">  1       -1 0.18379744E+00 0.94661868E+03</pdfrwt>
<totfact> 0.36641943E+00</totfact>
</mgrwt>
</event>
<event>
12    1  0.8033771E-008  0.4075077E+03  0.7818608E-02  0.1041211E+00
         -1   -1    0    0    0  501 -0.00000000000E+00  0.00000000000E+00  0.43070678477E+03  0.43070678477E+03  0.00000000000E+00 0.  1.
          1   -1    0    0  501    0  0.00000000000E+00 -0.00000000000E+00 -0.72471884983E+03  0.72471884983E+03  0.00000000000E+00 0. -1.
         23    2    1    2    0    0  0.16157602352E+03 -0.32212696036E+03 -0.26157871464E+03  0.45475160308E+03  0.92211748633E+02 0.  0.
    5000000    2    1    2    0    0 -0.16157602352E+03  0.32212696036E+03 -0.32433350416E+02  0.70067403151E+03  0.60001632165E+03 0.  0.
         23    2    4    4    0    0  0.58715694270E+02  0.16092618037E+03 -0.26759996745E+03  0.32941481156E+03  0.86946001700E+02 0.  0.
         23    2    4    4    0    0 -0.22029171779E+03  0.16120077999E+03  0.23516661704E+03  0.37125921995E+03  0.89531772195E+02 0.  0.
          2    1    3    3  502    0  0.11191090896E+03 -0.15837453798E+03 -0.95004737958E+02  0.21594547010E+03  0.00000000000E+00 0. -1.
         -2    1    3    3    0  502  0.49665114560E+02 -0.16375242238E+03 -0.16657397669E+03  0.23880613298E+03  0.00000000000E+00 0.  1.
         15    1    5    5    0    0  0.38998193336E+02  0.47069993267E+02 -0.36991237237E+02  0.71469942710E+02  0.17770000000E+01 0. -1.
        -15    1    5    5    0    0  0.19717500934E+02  0.11385618710E+03 -0.23060873022E+03  0.25794486885E+03  0.17770000000E+01 0.  1.
          3    1    6    6  503    0 -0.25899145884E+02  0.24123034753E+02  0.79401737128E+02  0.86932861578E+02  0.00000000000E+00 0. -1.
         -3    1    6    6    0  503 -0.19439257191E+03  0.13707774524E+03  0.15576487991E+03  0.28432635837E+03  0.00000000000E+00 0.  1.
<mgrwt>
<rscale>  0 0.40750775E+03</rscale>
<asrwt>0</asrwt>
<pdfrwt beam="1">  1        1 0.11149521E+00 0.40750775E+03</pdfrwt>
<pdfrwt beam="2">  1       -1 0.66262583E-01 0.40750775E+03</pdfrwt>
<totfact> 0.63332539E+01</totfact>
</mgrwt>
</event>
<event>
12    1  0.8033771E-008  0.6444885E+03  0.7818608E-02  0.9817176E-01
          1   -1    0    0  501    0  0.00000000000E+00  0.00000000000E+00  0.57566772213E+03  0.57566772213E+03  0.00000000000E+00 0. -1.
         -1   -1    0    0    0  501 -0.00000000000E+00 -0.00000000000E+00 -0.91826511053E+03  0.91826511053E+03  0.00000000000E+00 0.  1.
         23    2    1    2    0    0 -0.20145621554E+02  0.51737956200E+03 -0.45293099121E+03  0.69373505327E+03  0.89634725942E+02 0.  0.
    5000000    2    1    2    0    0  0.20145621554E+02 -0.51737956200E+03  0.11033360281E+03  0.80019777938E+03  0.60004626902E+03 0.  0.
         23    2    4    4    0    0 -0.18860709632E+03  0.19175289051E+02  0.21130013781E+02  0.21072299263E+03  0.89539788076E+02 0.  0.
         23    2    4    4    0    0  0.20875271788E+03 -0.53655485105E+03  0.89203589031E+02  0.58947478674E+03  0.89746523616E+02 0.  0.
          4    1    3    3  502    0 -0.33836866025E+01  0.75065833167E+02 -0.11269557458E+03  0.13544969980E+03  0.00000000000E+00 0. -1.
         -4    1    3    3    0  502 -0.16761934951E+02  0.44231372884E+03 -0.34023541663E+03  0.55828535348E+03  0.00000000000E+00 0.  1.
         15    1    5    5    0    0 -0.15753790724E+03  0.63978772596E+01  0.51014797641E+02  0.16572505048E+03  0.17770000000E+01 0. -1.
        -15    1    5    5    0    0 -0.31069189084E+02  0.12777411792E+02 -0.29884783859E+02  0.44997942150E+02  0.17770000000E+01 0.  1.
          2    1    6    6  503    0  0.95975445035E+02 -0.15778246881E+03  0.55480474927E+02  0.19283328710E+03  0.00000000000E+00 0. -1.
         -2    1    6    6    0  503  0.11277727284E+03 -0.37877238224E+03  0.33723114103E+02  0.39664149965E+03  0.00000000000E+00 0.  1.
<mgrwt>
<rscale>  0 0.64448852E+03</rscale>
<asrwt>0</asrwt>
<pdfrwt beam="1">  1        1 0.88564266E-01 0.64448852E+03</pdfrwt>
<pdfrwt beam="2">  1       -1 0.14127155E+00 0.64448852E+03</pdfrwt>
<totfact> 0.15497259E+01</totfact>
</mgrwt>
</event>
<event>
12    1  0.8033771E-008  0.7641858E+03  0.7818608E-02  0.9613354E-01
         -1   -1    0    0    0  501 -0.00000000000E+00  0.00000000000E+00  0.12758669848E+04  0.12758669848E+04  0.00000000000E+00 0.  1.
          1   -1    0    0  501    0  0.00000000000E+00 -0.00000000000E+00 -0.77153305443E+03  0.77153305443E+03  0.00000000000E+00 0. -1.
         23    2    1    2    0    0  0.44332347008E+03  0.48913744421E+03 -0.39995347021E+03  0.77725401968E+03  0.91487126500E+02 0.  0.
    5000000    2    1    2    0    0 -0.44332347008E+03 -0.48913744421E+03  0.90428740062E+03  0.12701460196E+04  0.59978668684E+03 0.  0.
         23    2    4    4    0    0 -0.10824750160E+02  0.99698870958E+02  0.25134617315E+03  0.28606135026E+03  0.92731641158E+02 0.  0.
         23    2    4    4    0    0 -0.43249871992E+03 -0.58883631517E+03  0.65294122747E+03  0.98408466933E+03  0.91142970562E+02 0.  0.
          2    1    3    3  502    0  0.27900306992E+03  0.33308932142E+03 -0.30851628426E+03  0.53289164632E+03  0.00000000000E+00 0. -1.
         -2    1    3    3    0  502  0.16432040016E+03  0.15604812280E+03 -0.91437185952E+02  0.24436237336E+03  0.00000000000E+00 0.  1.
         15    1    5    5    0    0  0.40516067722E+02  0.33213975661E+02  0.10310580356E+03  0.11566626293E+03  0.17770000000E+01 0.  1.
        -15    1    5    5    0    0 -0.51340817882E+02  0.66484895297E+02  0.14824036959E+03  0.17039508734E+03  0.17770000000E+01 0. -1.
          3    1    6    6  503    0 -0.65543390996E+02 -0.10034013058E+03  0.65803066205E+02  0.13672644745E+03  0.00000000000E+00 0. -1.
         -3    1    6    6    0  503 -0.36695532892E+03 -0.48849618459E+03  0.58713816127E+03  0.84735822189E+03  0.00000000000E+00 0.  1.
<mgrwt>
<rscale>  0 0.76418582E+03</rscale>
<asrwt>0</asrwt>
<pdfrwt beam="1">  1        1 0.11869739E+00 0.76418582E+03</pdfrwt>
<pdfrwt beam="2">  1       -1 0.19628723E+00 0.76418582E+03</pdfrwt>
<totfact> 0.38746946E+00</totfact>
</mgrwt>
</event>
<event>
12    1  0.8033771E-008  0.1340202E+04  0.7818608E-02  0.8998279E-01
         -2   -1    0    0    0  501 -0.00000000000E+00  0.00000000000E+00  0.79954483730E+03  0.79954483730E+03  0.00000000000E+00 0.  1.
          2   -1    0    0  501    0  0.00000000000E+00 -0.00000000000E+00 -0.25079902359E+04  0.25079902359E+04  0.00000000000E+00 0. -1.
         23    2    1    2    0    0  0.13248737212E+04  0.12984025209E+03 -0.54815521387E+03  0.14425201834E+04  0.90782557181E+02 0.  0.
    5000000    2    1    2    0    0 -0.13248737212E+04 -0.12984025209E+03 -0.11602901847E+04  0.18650148898E+04  0.59988195367E+03 0.  0.
         23    2    4    4    0    0 -0.45146543149E+03 -0.77775734099E+02 -0.85857482073E+02  0.47643807325E+03  0.98750340605E+02 0.  0.
         23    2    4    4    0    0 -0.87340828971E+03 -0.52064517991E+02 -0.10744327026E+04  0.13885768166E+04  0.90483083813E+02 0.  0.
          3    1    3    3  502    0  0.11762995988E+04  0.86879619122E+02 -0.49145518185E+03  0.12777938058E+04  0.00000000000E+00 0. -1.
         -3    1    3    3    0  502  0.14857412243E+03  0.42960632968E+02 -0.56700032021E+02  0.16472637759E+03  0.00000000000E+00 0.  1.
         15    1    5    5    0    0 -0.32469347000E+03 -0.98782713910E+02 -0.74110066445E+02  0.34738931144E+03  0.17770000000E+01 0. -1.
        -15    1    5    5    0    0 -0.12677196149E+03  0.21006979811E+02 -0.11747415628E+02  0.12904876181E+03  0.17770000000E+01 0.  1.
          2    1    6    6  503    0 -0.48093884945E+03 -0.66983038099E+02 -0.55643426716E+03  0.73851743241E+03  0.00000000000E+00 0. -1.
         -2    1    6    6    0  503 -0.39246944026E+03  0.14918520108E+02 -0.51799843548E+03  0.65005938416E+03  0.00000000000E+00 0.  1.
<mgrwt>
<rscale>  0 0.13402016E+04</rscale>
<asrwt>0</asrwt>
<pdfrwt beam="1">  1        2 0.38584465E+00 0.13402016E+04</pdfrwt>
<pdfrwt beam="2">  1       -2 0.12300690E+00 0.13402016E+04</pdfrwt>
<totfact> 0.16588836E+00</totfact>
</mgrwt>
</event>
<event>
12    1  0.8033771E-008  0.1111030E+04  0.7818608E-02  0.9194508E-01
         -2   -1    0    0    0  501 -0.00000000000E+00  0.00000000000E+00  0.38094691983E+03  0.38094691983E+03  0.00000000000E+00 0.  1.
          2   -1    0    0  501    0  0.00000000000E+00 -0.00000000000E+00 -0.35842480887E+04  0.35842480887E+04  0.00000000000E+00 0. -1.
         23    2    1    2    0    0 -0.10081806845E+04 -0.33474799495E+03 -0.19091306206E+04  0.21866186977E+04  0.89649817151E+02 0.  0.
    5000000    2    1    2    0    0  0.10081806845E+04  0.33474799495E+03 -0.12941705483E+04  0.17785763109E+04  0.59997647681E+03 0.  0.
         23    2    4    4    0    0  0.39867028662E+03 -0.79407872268E+02 -0.74995732646E+03  0.85801129401E+03  0.92215950471E+02 0.  0.
         23    2    4    4    0    0  0.60951039793E+03  0.41415586721E+03 -0.54421322182E+03  0.92056501686E+03  0.90795990717E+02 0.  0.
          3    1    3    3  502    0 -0.56204683806E+03 -0.20652666185E+03 -0.11572924641E+04  0.13030256167E+04  0.00000000000E+00 0. -1.
         -3    1    3    3    0  502 -0.44613384648E+03 -0.12822133309E+03 -0.75183815648E+03  0.88359308099E+03  0.00000000000E+00 0.  1.
         15    1    5    5    0    0  0.59749656554E+02  0.20850688306E+02 -0.10803832884E+03  0.12522064882E+03  0.17770000000E+01 0.  1.
        -15    1    5    5    0    0  0.33892063007E+03 -0.10025856057E+03 -0.64191899762E+03  0.73279064519E+03  0.17770000000E+01 0. -1.
          1    1    6    6  503    0  0.44364215586E+03  0.34760553057E+03 -0.42112490792E+03  0.70355821039E+03  0.00000000000E+00 0. -1.
         -1    1    6    6    0  503  0.16586824207E+03  0.66550336644E+02 -0.12308831390E+03  0.21700680647E+03  0.00000000000E+00 0.  1.
<mgrwt>
<rscale>  0 0.11110298E+04</rscale>
<asrwt>0</asrwt>
<pdfrwt beam="1">  1        2 0.55142279E+00 0.11110298E+04</pdfrwt>
<pdfrwt beam="2">  1       -2 0.58607217E-01 0.11110298E+04</pdfrwt>
<totfact> 0.19702135E+00</totfact>
</mgrwt>
</event>
<event>
12    1  0.8033771E-008  0.1270679E+04  0.7818608E-02  0.9053146E-01
          3   -1    0    0  501    0  0.00000000000E+00  0.00000000000E+00  0.21431209506E+04  0.21431209506E+04  0.00000000000E+00 0. -1.
         -3   -1    0    0    0  501 -0.00000000000E+00 -0.00000000000E+00 -0.78236741638E+03  0.78236741638E+03  0.00000000000E+00 0.  1.
         23    2    1    2    0    0 -0.73704283810E+03 -0.95554064899E+03  0.41636505839E+03  0.12798247213E+04  0.91111900120E+02 0.  0.
    5000000    2    1    2    0    0  0.73704283810E+03  0.95554064899E+03  0.94438847582E+03  0.16456636457E+04  0.60004096885E+03 0.  0.
         23    2    4    4    0    0  0.69125246564E+03  0.10101569642E+04  0.89948292199E+03  0.15217272825E+04  0.91308991319E+02 0.  0.
         23    2    4    4    0    0  0.45790372460E+02 -0.54616315182E+02  0.44905553833E+02  0.12393636313E+03  0.90906618283E+02 0.  0.
          1    1    3    3  502    0 -0.52221471066E+03 -0.62400059841E+03  0.30959448977E+03  0.87059387715E+03  0.00000000000E+00 0. -1.
         -1    1    3    3    0  502 -0.21482812745E+03 -0.33154005058E+03  0.10677056862E+03  0.40923084415E+03  0.00000000000E+00 0.  1.
         15    1    5    5    0    0  0.25929865359E+03  0.45290359695E+03  0.36156889498E+03  0.63489580518E+03  0.17770000000E+01 0. -1.
        -15    1    5    5    0    0  0.43195381206E+03  0.55725336722E+03  0.53791402701E+03  0.88683147734E+03  0.17770000000E+01 0.  1.
          3    1    6    6  503    0  0.42798220252E+02 -0.74306358237E+02  0.54731392729E+02  0.10172830423E+03  0.00000000000E+00 0. -1.
         -3    1    6    6    0  503  0.29921522081E+01  0.19690043055E+02 -0.98258388960E+01  0.22208058905E+02  0.00000000000E+00 0.  1.
<mgrwt>
<rscale>  0 0.12706788E+04</rscale>
<asrwt>0</asrwt>
<pdfrwt beam="1">  1        3 0.32971091E+00 0.12706788E+04</pdfrwt>
<pdfrwt beam="2">  1       -3 0.12036422E+00 0.12706788E+04</pdfrwt>
<totfact> 0.37184429E-02</totfact>
</mgrwt>
</event>
<event>
12    1  0.8033771E-008  0.3252230E+03  0.7818608E-02  0.1073270E+00
         -2   -1    0    0    0  501 -0.00000000000E+00  0.00000000000E+00  0.17843712651E+03  0.17843712651E+03  0.00000000000E+00 0.  1.
          2   -1    0    0  501    0  0.00000000000E+00 -0.00000000000E+00 -0.84916253634E+03  0.84916253634E+03  0.00000000000E+00 0. -1.
         23    2    1    2    0    0  0.11881682868E+03  0.52635409658E+02 -0.18447834610E+03  0.24374018942E+03  0.92136282922E+02 0.  0.
    5000000    2    1    2    0    0 -0.11881682868E+03 -0.52635409658E+02 -0.48624706373E+03  0.78385947343E+03  0.60092557107E+03 0.  0.
         23    2    4    4    0    0  0.10067122383E+03  0.15393562020E+03 -0.13496453953E+01  0.20520270758E+03  0.90969550840E+02 0.  0.
         23    2    4    4    0    0 -0.21948805251E+03 -0.20657102986E+03 -0.48489741833E+03  0.57865676585E+03  0.94188910079E+02 0.  0.
          2    1    3    3  502    0  0.81173969720E+02  0.76963454716E+02 -0.11044252660E+03  0.15719458770E+03  0.00000000000E+00 0. -1.
         -2    1    3    3    0  502  0.37642858959E+02 -0.24328045058E+02 -0.74035819501E+02  0.86545601714E+02  0.00000000000E+00 0.  1.
         15    1    5    5    0    0  0.58785258511E+02  0.40965307505E+02  0.34416878127E+02  0.79508127045E+02  0.17770000000E+01 0. -1.
        -15    1    5    5    0    0  0.41885965324E+02  0.11297031270E+03 -0.35766523522E+02  0.12569458054E+03  0.17770000000E+01 0.  1.
          4    1    6    6  503    0 -0.54190721420E+02 -0.44834631127E+02 -0.50665743777E+02  0.86682155193E+02  0.00000000000E+00 0. -1.
         -4    1    6    6    0  503 -0.16529733109E+03 -0.16173639873E+03 -0.43423167455E+03  0.49197461065E+03  0.00000000000E+00 0.  1.
<mgrwt>
<rscale>  0 0.32522302E+03</rscale>
<asrwt>0</asrwt>
<pdfrwt beam="1">  1        2 0.13064039E+00 0.32522302E+03</pdfrwt>
<pdfrwt beam="2">  1       -2 0.27451866E-01 0.32522302E+03</pdfrwt>
<totfact> 0.39541804E+02</totfact>
</mgrwt>
</event>
<event>
12    1  0.8033771E-008  0.9133151E+03  0.7818608E-02  0.9409088E-01
         -1   -1    0    0    0  501 -0.00000000000E+00  0.00000000000E+00  0.71073249199E+03  0.71073249199E+03  0.00000000000E+00 0.  1.
          1   -1    0    0  501    0  0.00000000000E+00 -0.00000000000E+00 -0.24933010914E+04  0.24933010914E+04  0.00000000000E+00 0. -1.
         23    2    1    2    0    0  0.12542759845E+03 -0.83459727802E+03  0.28187087290E+03  0.89444273344E+03  0.91059955488E+02 0.  0.
    5000000    2    1    2    0    0 -0.12542759845E+03  0.83459727802E+03 -0.20644394723E+04  0.23095908499E+04  0.60001238352E+03 0.  0.
         23    2    4    4    0    0  0.11229686050E+03  0.67565352809E+03 -0.10945263946E+04  0.12941682582E+04  0.88120242834E+02 0.  0.
         23    2    4    4    0    0 -0.23772445895E+03  0.15894374993E+03 -0.96991307771E+03  0.10154225917E+04  0.92604683731E+02 0.  0.
          1    1    3    3  502    0  0.13922029970E+03 -0.71473838770E+03  0.24507488300E+03  0.76830654883E+03  0.00000000000E+00 0. -1.
         -1    1    3    3    0  502 -0.13792701245E+02 -0.11985889032E+03  0.36795989895E+02  0.12613618461E+03  0.00000000000E+00 0.  1.
         15    1    5    5    0    0  0.20886769351E+02  0.35470167283E+03 -0.52135741477E+03  0.63092491274E+03  0.17770000000E+01 0.  1.
        -15    1    5    5    0    0  0.91410091148E+02  0.32095185526E+03 -0.57316897980E+03  0.66324334545E+03  0.17770000000E+01 0. -1.
          3    1    6    6  503    0 -0.18777172621E+03  0.14399190248E+03 -0.88218321142E+03  0.91336690746E+03  0.00000000000E+00 0. -1.
         -3    1    6    6    0  503 -0.49952732741E+02  0.14951847445E+02 -0.87729866293E+02  0.10205568426E+03  0.00000000000E+00 0.  1.
<mgrwt>
<rscale>  0 0.91331505E+03</rscale>
<asrwt>0</asrwt>
<pdfrwt beam="1">  1        1 0.38358477E+00 0.91331505E+03</pdfrwt>
<pdfrwt beam="2">  1       -1 0.10934346E+00 0.91331505E+03</pdfrwt>
<totfact> 0.10952872E+00</totfact>
</mgrwt>
</event>
<event>
12    1  0.8033771E-008  0.9350571E+03  0.7818608E-02  0.9382789E-01
          1   -1    0    0  501    0  0.00000000000E+00  0.00000000000E+00  0.19552165008E+04  0.19552165008E+04  0.00000000000E+00 0. -1.
         -1   -1    0    0    0  501 -0.00000000000E+00 -0.00000000000E+00 -0.91136531475E+03  0.91136531475E+03  0.00000000000E+00 0.  1.
         23    2    1    2    0    0 -0.85301719177E+03 -0.77142599159E+02  0.14966178088E+04  0.17272437357E+04  0.99582864543E+02 0.  0.
    5000000    2    1    2    0    0  0.85301719177E+03  0.77142599159E+02 -0.45276662273E+03  0.11393380799E+04  0.59958680396E+03 0.  0.
         23    2    4    4    0    0  0.87433320958E+03 -0.40115109302E+02 -0.45300102352E+03  0.98928755912E+03  0.86093925271E+02 0.  0.
         23    2    4    4    0    0 -0.21316017811E+02  0.11725770846E+03  0.23440078253E+00  0.15005052073E+03  0.91166666156E+02 0.  0.
          3    1    3    3  502    0 -0.69232857707E+03 -0.33629636002E+02  0.12575105972E+04  0.14358909126E+04  0.00000000000E+00 0. -1.
         -3    1    3    3    0  502 -0.16068861470E+03 -0.43512963156E+02  0.23910721165E+03  0.29135282308E+03  0.00000000000E+00 0.  1.
         15    1    5    5    0    0  0.38822759865E+03 -0.14891150960E+02 -0.24928401571E+03  0.46161465851E+03  0.17770000000E+01 0.  1.
        -15    1    5    5    0    0  0.48610561092E+03 -0.25223958342E+02 -0.20371700781E+03  0.52767290061E+03  0.17770000000E+01 0. -1.
          4    1    6    6  503    0 -0.16278955197E+02  0.12495693577E+03 -0.20217511307E+02  0.12762440183E+03  0.00000000000E+00 0.  1.
         -4    1    6    6    0  503 -0.50370626139E+01 -0.76992273042E+01  0.20451912089E+02  0.22426118901E+02  0.00000000000E+00 0. -1.
<mgrwt>
<rscale>  0 0.93505706E+03</rscale>
<asrwt>0</asrwt>
<pdfrwt beam="1">  1        1 0.30080254E+00 0.93505706E+03</pdfrwt>
<pdfrwt beam="2">  1       -1 0.14021005E+00 0.93505706E+03</pdfrwt>
<totfact> 0.13620800E+00</totfact>
</mgrwt>
</event>
<event>
12    1  0.8033771E-008  0.7089675E+03  0.7818608E-02  0.9702018E-01
         -1   -1    0    0    0  501 -0.00000000000E+00  0.00000000000E+00  0.27233761464E+03  0.27233761464E+03  0.00000000000E+00 0.  1.
          1   -1    0    0  501    0  0.00000000000E+00 -0.00000000000E+00 -0.23546729226E+04  0.23546729226E+04  0.00000000000E+00 0. -1.
         23    2    1    2    0    0  0.16150360111E+03  0.56188078185E+03 -0.14837808078E+04  0.15974664853E+04  0.92196854590E+02 0.  0.
    5000000    2    1    2    0    0 -0.16150360111E+03 -0.56188078185E+03 -0.59855450020E+03  0.10295440519E+04  0.59991669338E+03 0.  0.
         23    2    4    4    0    0  0.71704490671E+02 -0.57112551806E+03 -0.46182511015E+03  0.74430822530E+03  0.96883489462E+02 0.  0.
         23    2    4    4    0    0 -0.23320809178E+03  0.92447362058E+01 -0.13672939005E+03  0.28523582664E+03  0.90515586934E+02 0.  0.
          1    1    3    3  502    0  0.11000961468E+03  0.29985721861E+03 -0.91435744501E+03  0.96853807572E+03  0.00000000000E+00 0. -1.
         -1    1    3    3    0  502  0.51493986422E+02  0.26202356324E+03 -0.56942336278E+03  0.62892840961E+03  0.00000000000E+00 0.  1.
         15    1    5    5    0    0  0.75562366716E+02 -0.22863308233E+03 -0.20399502230E+03  0.31559449370E+03  0.17770000000E+01 0. -1.
        -15    1    5    5    0    0 -0.38578760451E+01 -0.34249243573E+03 -0.25783008785E+03  0.42871373161E+03  0.17770000000E+01 0.  1.
          1    1    6    6  503    0 -0.15601763404E+03  0.46036181417E+02 -0.71507970889E+02  0.17769136735E+03  0.00000000000E+00 0. -1.
         -1    1    6    6    0  503 -0.77190457740E+02 -0.36791445211E+02 -0.65221419158E+02  0.10754445929E+03  0.00000000000E+00 0.  1.
<mgrwt>
<rscale>  0 0.70896754E+03</rscale>
<asrwt>0</asrwt>
<pdfrwt beam="1">  1        1 0.36225737E+00 0.70896754E+03</pdfrwt>
<pdfrwt beam="2">  1       -1 0.41898094E-01 0.70896754E+03</pdfrwt>
<totfact> 0.10105049E+01</totfact>
</mgrwt>
</event>
<event>
12    1  0.8033771E-008  0.9849296E+03  0.7818608E-02  0.9325230E-01
         -1   -1    0    0    0  501 -0.00000000000E+00  0.00000000000E+00  0.12325112645E+04  0.12325112645E+04  0.00000000000E+00 0.  1.
          1   -1    0    0  501    0  0.00000000000E+00 -0.00000000000E+00 -0.11826020042E+04  0.11826020042E+04  0.00000000000E+00 0. -1.
         23    2    1    2    0    0 -0.84611344408E+03 -0.30766549567E+03 -0.66094436682E+03  0.11204989975E+04  0.90025162657E+02 0.  0.
    5000000    2    1    2    0    0  0.84611344408E+03  0.30766549567E+03  0.71085362707E+03  0.12946142712E+04  0.60012266620E+03 0.  0.
         23    2    4    4    0    0  0.63601353857E+03 -0.61606371447E+02  0.39185632471E+03  0.75528242262E+03  0.92690843387E+02 0.  0.
         23    2    4    4    0    0  0.21009990551E+03  0.36927186712E+03  0.31899730237E+03  0.53933184854E+03  0.92821774377E+02 0.  0.
          1    1    3    3  502    0 -0.67699602092E+03 -0.28153964775E+03 -0.54990675678E+03  0.91650729771E+03  0.00000000000E+00 0. -1.
         -1    1    3    3    0  502 -0.16911742316E+03 -0.26125847922E+02 -0.11103761005E+03  0.20399169981E+03  0.00000000000E+00 0.  1.
         15    1    5    5    0    0  0.41075377319E+03 -0.17526147605E+02  0.29565119620E+03  0.50639768521E+03  0.17770000000E+01 0. -1.
        -15    1    5    5    0    0  0.22525976538E+03 -0.44080223842E+02  0.96205128503E+02  0.24888473741E+03  0.17770000000E+01 0.  1.
          3    1    6    6  503    0  0.15795688729E+03  0.27921608559E+03  0.28704997550E+03  0.43047611912E+03  0.00000000000E+00 0. -1.
         -3    1    6    6    0  503  0.52143018223E+02  0.90055781525E+02  0.31947326865E+02  0.10885572943E+03  0.00000000000E+00 0.  1.
<mgrwt>
<rscale>  0 0.98492960E+03</rscale>
<asrwt>0</asrwt>
<pdfrwt beam="1">  1        1 0.18193877E+00 0.98492960E+03</pdfrwt>
<pdfrwt beam="2">  1       -1 0.18961712E+00 0.98492960E+03</pdfrwt>
<totfact> 0.19693845E+00</totfact>
</mgrwt>
</event>
<event>
12    1  0.8033771E-008  0.6275460E+03  0.7818608E-02  0.9849849E-01
         -1   -1    0    0    0  501 -0.00000000000E+00  0.00000000000E+00  0.43320683094E+03  0.43320683094E+03  0.00000000000E+00 0.  1.
          1   -1    0    0  501    0  0.00000000000E+00 -0.00000000000E+00 -0.17611591674E+04  0.17611591674E+04  0.00000000000E+00 0. -1.
         23    2    1    2    0    0  0.51935830149E+03  0.90159910769E+02  0.11229363158E+03  0.54688395134E+03  0.92791926931E+02 0.  0.
    5000000    2    1    2    0    0 -0.51935830149E+03 -0.90159910769E+02 -0.14402459680E+04  0.16474820470E+04  0.60168662264E+03 0.  0.
         23    2    4    4    0    0  0.28868107643E+02 -0.14743218396E+03 -0.69108886930E+03  0.71282466379E+03  0.89137868123E+02 0.  0.
         23    2    4    4    0    0 -0.54822640913E+03  0.57272273188E+02 -0.74915709870E+03  0.93465738316E+03  0.92280856198E+02 0.  0.
          3    1    3    3  502    0  0.48167434517E+03  0.10508576667E+03  0.91848237211E+02  0.50148708043E+03  0.00000000000E+00 0. -1.
         -3    1    3    3    0  502  0.37683956318E+02 -0.14925855901E+02  0.20445394366E+02  0.45396870916E+02  0.00000000000E+00 0.  1.
         15    1    5    5    0    0  0.55316340383E+02 -0.86572817393E+02 -0.50239413352E+03  0.51279408474E+03  0.17770000000E+01 0. -1.
        -15    1    5    5    0    0 -0.26448232741E+02 -0.60859366564E+02 -0.18869473578E+03  0.20003057905E+03  0.17770000000E+01 0.  1.
          1    1    6    6  503    0 -0.33781332330E+03  0.17374662126E+02 -0.52586617478E+03  0.62526390753E+03  0.00000000000E+00 0.  1.
         -1    1    6    6    0  503 -0.21041308583E+03  0.39897611062E+02 -0.22329092392E+03  0.30939347563E+03  0.00000000000E+00 0. -1.
<mgrwt>
<rscale>  0 0.62754599E+03</rscale>
<asrwt>0</asrwt>
<pdfrwt beam="1">  1        1 0.27094757E+00 0.62754599E+03</pdfrwt>
<pdfrwt beam="2">  1       -1 0.66647204E-01 0.62754599E+03</pdfrwt>
<totfact> 0.10505765E+01</totfact>
</mgrwt>
</event>
<event>
12    1  0.8033771E-008  0.7408338E+03  0.7818608E-02  0.9649841E-01
          1   -1    0    0  501    0  0.00000000000E+00  0.00000000000E+00  0.35035718853E+04  0.35035718853E+04  0.00000000000E+00 0. -1.
         -1   -1    0    0    0  501 -0.00000000000E+00 -0.00000000000E+00 -0.20047905853E+03  0.20047905853E+03  0.00000000000E+00 0.  1.
         23    2    1    2    0    0  0.57990623039E+03  0.23340727661E+03  0.62238130164E+03  0.88681648529E+03  0.91185531282E+02 0.  0.
    5000000    2    1    2    0    0 -0.57990623039E+03 -0.23340727661E+03  0.26807115251E+04  0.28172344586E+04  0.59985458289E+03 0.  0.
         23    2    4    4    0    0 -0.38871132589E+03 -0.42364420886E+03  0.18334970674E+04  0.19236564049E+04  0.90396668585E+02 0.  0.
         23    2    4    4    0    0 -0.19119490450E+03  0.19023693225E+03  0.84721445778E+03  0.89357805361E+03  0.89240229272E+02 0.  0.
          2    1    3    3  502    0  0.15185642292E+03  0.10495807773E+03  0.19282168235E+03  0.26693964196E+03  0.00000000000E+00 0. -1.
         -2    1    3    3    0  502  0.42804980747E+03  0.12844919888E+03  0.42955961929E+03  0.61987684333E+03  0.00000000000E+00 0.  1.
         15    1    5    5    0    0 -0.30542687350E+03 -0.35828571915E+03  0.15874377906E+04  0.16557826332E+04  0.17770000000E+01 0.  1.
        -15    1    5    5    0    0 -0.83284452394E+02 -0.65358489706E+02  0.24605927672E+03  0.26787377172E+03  0.17770000000E+01 0. -1.
          4    1    6    6  503    0 -0.76560186638E+02  0.10803835471E+03  0.53216021735E+03  0.54838694842E+03  0.00000000000E+00 0. -1.
         -4    1    6    6    0  503 -0.11463471786E+03  0.82198577535E+02  0.31505424043E+03  0.34519110519E+03  0.00000000000E+00 0.  1.
<mgrwt>
<rscale>  0 0.74083384E+03</rscale>
<asrwt>0</asrwt>
<pdfrwt beam="1">  1        1 0.53901101E+00 0.74083384E+03</pdfrwt>
<pdfrwt beam="2">  1       -1 0.30842935E-01 0.74083384E+03</pdfrwt>
<totfact> 0.26195189E+00</totfact>
</mgrwt>
</event>
<event>
12    1  0.8033771E-008  0.6942188E+03  0.7818608E-02  0.9727170E-01
         -2   -1    0    0    0  501 -0.00000000000E+00  0.00000000000E+00  0.24773617047E+03  0.24773617047E+03  0.00000000000E+00 0.  1.
          2   -1    0    0  501    0  0.00000000000E+00 -0.00000000000E+00 -0.24603686078E+04  0.24603686078E+04  0.00000000000E+00 0. -1.
         23    2    1    2    0    0 -0.59607450897E+03  0.25988064210E+03 -0.72796152460E+03  0.97971209867E+03  0.84053831513E+02 0.  0.
    5000000    2    1    2    0    0  0.59607450897E+03 -0.25988064210E+03 -0.14846709127E+04  0.17283926796E+04  0.60020893646E+03 0.  0.
         23    2    4    4    0    0  0.68941446282E+02  0.61894867822E+02 -0.15508314938E+02  0.13202318488E+03  0.92766997561E+02 0.  0.
         23    2    4    4    0    0  0.52713306269E+03 -0.32177550992E+03 -0.14691625978E+04  0.15963694947E+04  0.92455829124E+02 0.  0.
          2    1    3    3  502    0 -0.32155101416E+03  0.94460092808E+02 -0.36787263209E+03  0.49764247938E+03  0.00000000000E+00 0. -1.
         -2    1    3    3    0  502 -0.27452349481E+03  0.16542054930E+03 -0.36008889252E+03  0.48206961929E+03  0.00000000000E+00 0.  1.
         15    1    5    5    0    0 -0.49368265708E+00 -0.10538556869E+02  0.22339325172E+02  0.24769095292E+02  0.17770000000E+01 0. -1.
        -15    1    5    5    0    0  0.69435128940E+02  0.72433424691E+02 -0.37847640110E+02  0.10725408959E+03  0.17770000000E+01 0.  1.
          2    1    6    6  503    0  0.10648204360E+02 -0.22289250118E+02 -0.94091861699E+02  0.97280385304E+02  0.00000000000E+00 0. -1.
         -2    1    6    6    0  503  0.51648485833E+03 -0.29948625981E+03 -0.13750707361E+04  0.14990891094E+04  0.00000000000E+00 0.  1.
<mgrwt>
<rscale>  0 0.69421875E+03</rscale>
<asrwt>0</asrwt>
<pdfrwt beam="1">  1        2 0.37851823E+00 0.69421875E+03</pdfrwt>
<pdfrwt beam="2">  1       -2 0.38113259E-01 0.69421875E+03</pdfrwt>
<totfact> 0.25104424E+01</totfact>
</mgrwt>
</event>
<event>
12    1  0.8033771E-008  0.7952722E+03  0.7818608E-02  0.9566886E-01
         -1   -1    0    0    0  501 -0.00000000000E+00  0.00000000000E+00  0.41276108198E+03  0.41276108198E+03  0.00000000000E+00 0.  1.
          1   -1    0    0  501    0  0.00000000000E+00 -0.00000000000E+00 -0.17459347716E+04  0.17459347716E+04  0.00000000000E+00 0. -1.
         23    2    1    2    0    0 -0.25408342784E+03 -0.66828422359E+03 -0.82872895803E+03  0.10977876026E+04  0.84756962239E+02 0.  0.
    5000000    2    1    2    0    0  0.25408342784E+03  0.66828422359E+03 -0.50444473157E+03  0.10609082510E+04  0.59991635919E+03 0.  0.
         23    2    4    4    0    0  0.22119515712E+03  0.37702947762E+02  0.85263097852E+01  0.24205599506E+03  0.90385822914E+02 0.  0.
         23    2    4    4    0    0  0.32888270720E+02  0.63058127583E+03 -0.51297104135E+03  0.81885225593E+03  0.93087829504E+02 0.  0.
          1    1    3    3  502    0 -0.54754022627E+02 -0.70800333560E+02 -0.88783175572E+02  0.12606800740E+03  0.00000000000E+00 0. -1.
         -1    1    3    3    0  502 -0.19932940522E+03 -0.59748389003E+03 -0.73994578246E+03  0.97171959516E+03  0.00000000000E+00 0.  1.
         15    1    5    5    0    0  0.23444646913E+02 -0.22774741394E+02 -0.10516805568E+02  0.34381699243E+02  0.17770000000E+01 0.  1.
        -15    1    5    5    0    0  0.19775051021E+03  0.60477689156E+02  0.19043115354E+02  0.20767429582E+03  0.17770000000E+01 0. -1.
          2    1    6    6  503    0  0.27221505976E+02  0.36619715669E+03 -0.23934552985E+03  0.43832368247E+03  0.00000000000E+00 0. -1.
         -2    1    6    6    0  503  0.56667647441E+01  0.26438411913E+03 -0.27362551150E+03  0.38052857346E+03  0.00000000000E+00 0.  1.
<mgrwt>
<rscale>  0 0.79527221E+03</rscale>
<asrwt>0</asrwt>
<pdfrwt beam="1">  1        1 0.26860534E+00 0.79527221E+03</pdfrwt>
<pdfrwt beam="2">  1       -1 0.63501706E-01 0.79527221E+03</pdfrwt>
<totfact> 0.11535703E+01</totfact>
</mgrwt>
</event>
<event>
12    1  0.8033771E-008  0.1016414E+04  0.7818608E-02  0.9290723E-01
         -2   -1    0    0    0  501 -0.00000000000E+00  0.00000000000E+00  0.56903673456E+03  0.56903673456E+03  0.00000000000E+00 0.  1.
          2   -1    0    0  501    0  0.00000000000E+00 -0.00000000000E+00 -0.22088981696E+04  0.22088981696E+04  0.00000000000E+00 0. -1.
         23    2    1    2    0    0  0.58487110908E+03 -0.81629736915E+03 -0.10917805568E+04  0.14861622265E+04  0.90982250927E+02 0.  0.
    5000000    2    1    2    0    0 -0.58487110908E+03  0.81629736915E+03 -0.54808087819E+03  0.12917726777E+04  0.59989031719E+03 0.  0.
         23    2    4    4    0    0 -0.20133152465E+03  0.14224844213E+03 -0.42773776071E+03  0.50154421944E+03  0.88419511458E+02 0.  0.
         23    2    4    4    0    0 -0.38353958443E+03  0.67404892701E+03 -0.12034311749E+03  0.79022845825E+03  0.92379551156E+02 0.  0.
          4    1    3    3  502    0  0.32034357397E+03 -0.45953384354E+03 -0.54271838426E+03  0.77995807795E+03  0.00000000000E+00 0. -1.
         -4    1    3    3    0  502  0.26452753512E+03 -0.35676352561E+03 -0.54906217257E+03  0.70620414852E+03  0.00000000000E+00 0.  1.
         15    1    5    5    0    0  0.13977883851E+01  0.12020025144E+01 -0.51030362178E+02  0.51094561505E+02  0.17770000000E+01 0. -1.
        -15    1    5    5    0    0 -0.20272931304E+03  0.14104643962E+03 -0.37670739853E+03  0.45044965793E+03  0.17770000000E+01 0.  1.
          1    1    6    6  503    0 -0.55893420526E+02  0.15917510539E+03 -0.49683642198E+02  0.17586714570E+03  0.00000000000E+00 0. -1.
         -1    1    6    6    0  503 -0.32764616390E+03  0.51487382162E+03 -0.70659475289E+02  0.61436131255E+03  0.00000000000E+00 0.  1.
<mgrwt>
<rscale>  0 0.10164138E+04</rscale>
<asrwt>0</asrwt>
<pdfrwt beam="1">  1        2 0.33983048E+00 0.10164138E+04</pdfrwt>
<pdfrwt beam="2">  1       -2 0.87544115E-01 0.10164138E+04</pdfrwt>
<totfact> 0.57638097E+00</totfact>
</mgrwt>
</event>
<event>
12    1  0.8033771E-008  0.4991572E+03  0.7818608E-02  0.1013999E+00
          2   -1    0    0  501    0  0.00000000000E+00  0.00000000000E+00  0.39186051233E+04  0.39186051233E+04  0.00000000000E+00 0.  1.
         -2   -1    0    0    0  501 -0.00000000000E+00 -0.00000000000E+00 -0.14726483874E+03  0.14726483874E+03  0.00000000000E+00 0. -1.
         23    2    1    2    0    0 -0.44741415539E+03 -0.57047215884E+02  0.28080214042E+04  0.28454793461E+04  0.91294530255E+02 0.  0.
    5000000    2    1    2    0    0  0.44741415539E+03  0.57047215884E+02  0.96331888029E+03  0.12203906159E+04  0.59827767713E+03 0.  0.
         23    2    4    4    0    0  0.41045126424E+03  0.13507013635E+03  0.99837452954E+03  0.10918753184E+04  0.93412138107E+02 0.  0.
         23    2    4    4    0    0  0.36962891155E+02 -0.78022920463E+02 -0.35055649252E+02  0.12851529754E+03  0.88506789103E+02 0.  0.
          2    1    3    3  502    0 -0.23036419025E+03 -0.23867641454E+02  0.17201127072E+04  0.17356339044E+04  0.00000000000E+00 0.  1.
         -2    1    3    3    0  502 -0.21704996514E+03 -0.33179574430E+02  0.10879086970E+04  0.11098454418E+04  0.00000000000E+00 0. -1.
         15    1    5    5    0    0  0.21879579759E+03  0.11941203834E+03  0.58960502991E+03  0.64013130292E+03  0.17770000000E+01 0. -1.
        -15    1    5    5    0    0  0.19165546665E+03  0.15658098004E+02  0.40876949963E+03  0.45174401544E+03  0.17770000000E+01 0.  1.
          3    1    6    6  503    0  0.44351142429E+02 -0.84705790314E+02 -0.37774465586E+01  0.95688890944E+02  0.00000000000E+00 0. -1.
         -3    1    6    6    0  503 -0.73882512744E+01  0.66828698506E+01 -0.31278202694E+02  0.32826406597E+02  0.00000000000E+00 0.  1.
<mgrwt>
<rscale>  0 0.49915720E+03</rscale>
<asrwt>0</asrwt>
<pdfrwt beam="1">  1        2 0.60286225E+00 0.49915720E+03</pdfrwt>
<pdfrwt beam="2">  1       -2 0.22656132E-01 0.49915720E+03</pdfrwt>
<totfact> 0.79658974E+00</totfact>
</mgrwt>
</event>
<event>
12    1  0.8033771E-008  0.7083336E+03  0.7818608E-02  0.9703086E-01
          2   -1    0    0  501    0  0.00000000000E+00  0.00000000000E+00  0.14566895705E+04  0.14566895705E+04  0.00000000000E+00 0. -1.
         -2   -1    0    0    0  501 -0.00000000000E+00 -0.00000000000E+00 -0.59881092846E+03  0.59881092846E+03  0.00000000000E+00 0.  1.
         23    2    1    2    0    0 -0.63436444357E+03 -0.80112974943E+02  0.97631269459E+03  0.11706399036E+04  0.91514863744E+02 0.  0.
    5000000    2    1    2    0    0  0.63436444357E+03  0.80112974943E+02 -0.11843405255E+03  0.88486059535E+03  0.60009608595E+03 0.  0.
         23    2    4    4    0    0  0.13916159274E+03 -0.15089667456E+03 -0.22626833681E+03  0.32022188699E+03  0.95963229279E+02 0.  0.
         23    2    4    4    0    0  0.49520285083E+03  0.23100964950E+03  0.10783428427E+03  0.56463870836E+03  0.92721715264E+02 0.  0.
          2    1    3    3  502    0 -0.59656089439E+03 -0.82332427465E+02  0.94899549956E+03  0.11239466124E+04  0.00000000000E+00 0.  1.
         -2    1    3    3    0  502 -0.37803549182E+02  0.22194525217E+01  0.27317195027E+02  0.46693291214E+02  0.00000000000E+00 0. -1.
         15    1    5    5    0    0  0.15376139263E+03 -0.13206341198E+03 -0.20236019083E+03  0.28641947421E+03  0.17770000000E+01 0. -1.
        -15    1    5    5    0    0 -0.14599799884E+02 -0.18833262580E+02 -0.23908145985E+02  0.33802412776E+02  0.17770000000E+01 0.  1.
          3    1    6    6  503    0  0.42248821040E+03  0.17127680538E+03  0.11529762179E+03  0.47023991066E+03  0.00000000000E+00 0. -1.
         -3    1    6    6    0  503  0.72714640427E+02  0.59732844127E+02 -0.74633375207E+01  0.94398797698E+02  0.00000000000E+00 0.  1.
<mgrwt>
<rscale>  0 0.70833355E+03</rscale>
<asrwt>0</asrwt>
<pdfrwt beam="1">  1        2 0.22410609E+00 0.70833355E+03</pdfrwt>
<pdfrwt beam="2">  1       -2 0.92124759E-01 0.70833355E+03</pdfrwt>
<totfact> 0.13841210E+01</totfact>
</mgrwt>
</event>
<event>
12    1  0.8033771E-008  0.3975787E+03  0.7818608E-02  0.1044621E+00
         -1   -1    0    0    0  501 -0.00000000000E+00  0.00000000000E+00  0.75211642115E+03  0.75211642115E+03  0.00000000000E+00 0.  1.
          1   -1    0    0  501    0  0.00000000000E+00 -0.00000000000E+00 -0.33042823519E+03  0.33042823519E+03  0.00000000000E+00 0. -1.
         23    2    1    2    0    0 -0.26967399473E+03 -0.68854881345E+02  0.27201669385E+03  0.40436127104E+03  0.10977202590E+03 0.  0.
    5000000    2    1    2    0    0  0.26967399473E+03  0.68854881345E+02  0.14967149212E+03  0.67818338530E+03  0.60005507282E+03 0.  0.
         23    2    4    4    0    0 -0.69885060181E+02  0.12843338866E+03 -0.13652259673E+03  0.22027299181E+03  0.92210165061E+02 0.  0.
         23    2    4    4    0    0  0.33955905491E+03 -0.59578507317E+02  0.28619408885E+03  0.45791039349E+03  0.94471803559E+02 0.  0.
          1    1    3    3  502    0 -0.26746245056E+03 -0.40225307166E+02  0.24661017949E+03  0.36602024319E+03  0.00000000000E+00 0. -1.
         -1    1    3    3    0  502 -0.22115441738E+01 -0.28629574179E+02  0.25406514355E+02  0.38341027855E+02  0.00000000000E+00 0.  1.
         15    1    5    5    0    0 -0.82749282379E+01  0.34112514654E+02 -0.93114211790E+02  0.99526640954E+02  0.17770000000E+01 0.  1.
        -15    1    5    5    0    0 -0.61610131943E+02  0.94320874008E+02 -0.43408384944E+02  0.12074635085E+03  0.17770000000E+01 0. -1.
          3    1    6    6  503    0  0.27897685622E+03 -0.29555919228E+02  0.18442942952E+03  0.33573181729E+03  0.00000000000E+00 0. -1.
         -3    1    6    6    0  503  0.60582198695E+02 -0.30022588089E+02  0.10176465933E+03  0.12217857621E+03  0.00000000000E+00 0.  1.
<mgrwt>
<rscale>  0 0.39757865E+03</rscale>
<asrwt>0</asrwt>
<pdfrwt beam="1">  1        1 0.50835113E-01 0.39757865E+03</pdfrwt>
<pdfrwt beam="2">  1       -1 0.11571022E+00 0.39757865E+03</pdfrwt>
<totfact> 0.55280327E+01</totfact>
</mgrwt>
</event>
<event>
12    1  0.8033771E-008  0.9649884E+03  0.7818608E-02  0.9347801E-01
          2   -1    0    0  501    0  0.00000000000E+00  0.00000000000E+00  0.25442756330E+04  0.25442756330E+04  0.00000000000E+00 0. -1.
         -2   -1    0    0    0  501 -0.00000000000E+00 -0.00000000000E+00 -0.50490769759E+03  0.50490769759E+03  0.00000000000E+00 0.  1.
         23    2    1    2    0    0 -0.49087715858E+03  0.78952837519E+03  0.28786274768E+03  0.97750349136E+03  0.91283481885E+02 0.  0.
    5000000    2    1    2    0    0  0.49087715858E+03 -0.78952837519E+03  0.17515051877E+04  0.20716798392E+04  0.59980954776E+03 0.  0.
         23    2    4    4    0    0  0.53054485533E+03 -0.74263369556E+03  0.17323565937E+04  0.19601067101E+04  0.89310121325E+02 0.  0.
         23    2    4    4    0    0 -0.39667696744E+02 -0.46894679639E+02  0.19148594011E+02  0.11157312916E+03  0.91155127971E+02 0.  0.
          3    1    3    3  502    0 -0.34575725264E+03  0.50115619532E+03  0.22170961390E+03  0.64796663707E+03  0.00000000000E+00 0. -1.
         -3    1    3    3    0  502 -0.14511990595E+03  0.28837217987E+03  0.66153133774E+02  0.32953685429E+03  0.00000000000E+00 0.  1.
         15    1    5    5    0    0  0.39045390754E+03 -0.52500230234E+03  0.13198546804E+04  0.14731263376E+04  0.17770000000E+01 0. -1.
        -15    1    5    5    0    0  0.14009094779E+03 -0.21763139322E+03  0.41250191327E+03  0.48698037245E+03  0.17770000000E+01 0.  1.
          2    1    6    6  503    0 -0.55385533084E+02 -0.35987760094E+02 -0.19142640376E+02  0.68768574452E+02  0.00000000000E+00 0. -1.
         -2    1    6    6    0  503  0.15717836340E+02 -0.10906919545E+02  0.38291234387E+02  0.42804554712E+02  0.00000000000E+00 0.  1.
<mgrwt>
<rscale>  0 0.96498835E+03</rscale>
<asrwt>0</asrwt>
<pdfrwt beam="1">  1        2 0.39142701E+00 0.96498835E+03</pdfrwt>
<pdfrwt beam="2">  1       -2 0.77678109E-01 0.96498835E+03</pdfrwt>
<totfact> 0.49229942E+00</totfact>
</mgrwt>
</event>
<event>
12    1  0.8033771E-008  0.1132181E+04  0.7818608E-02  0.9174381E-01
         -1   -1    0    0    0  501 -0.00000000000E+00  0.00000000000E+00  0.22012957178E+04  0.22012957178E+04  0.00000000000E+00 0.  1.
          1   -1    0    0  501    0  0.00000000000E+00 -0.00000000000E+00 -0.63814129475E+03  0.63814129475E+03  0.00000000000E+00 0. -1.
         23    2    1    2    0    0 -0.10932141007E+04 -0.10220698918E+03  0.89712856587E+03  0.14211559025E+04  0.96338450343E+02 0.  0.
    5000000    2    1    2    0    0  0.10932141007E+04  0.10220698918E+03  0.66602585715E+03  0.14182811100E+04  0.60196970509E+03 0.  0.
         23    2    4    4    0    0  0.99378834249E+03  0.17978695782E+03  0.36273018150E+03  0.10772930523E+04  0.95123688290E+02 0.  0.
         23    2    4    4    0    0  0.99425758220E+02 -0.77579968641E+02  0.30329567565E+03  0.34098805767E+03  0.91544828758E+02 0.  0.
          4    1    3    3  502    0 -0.13546750735E+03 -0.20315213337E+02  0.15435886519E+03  0.20637541691E+03  0.00000000000E+00 0. -1.
         -4    1    3    3    0  502 -0.95774659336E+03 -0.81891775840E+02  0.74276970068E+03  0.12147804856E+04  0.00000000000E+00 0.  1.
         15    1    5    5    0    0  0.20379914959E+03  0.76025956602E+02  0.71964452055E+02  0.22912022944E+03  0.17770000000E+01 0.  1.
        -15    1    5    5    0    0  0.78998919290E+03  0.10376100122E+03  0.29076572944E+03  0.84817282285E+03  0.17770000000E+01 0. -1.
          4    1    6    6  503    0  0.83696554202E+02 -0.12186205360E+02  0.12994012562E+03  0.15504210084E+03  0.00000000000E+00 0. -1.
         -4    1    6    6    0  503  0.15729204018E+02 -0.65393763281E+02  0.17335555002E+03  0.18594595682E+03  0.00000000000E+00 0.  1.
<mgrwt>
<rscale>  0 0.11321815E+04</rscale>
<asrwt>0</asrwt>
<pdfrwt beam="1">  1        1 0.98175585E-01 0.11321815E+04</pdfrwt>
<pdfrwt beam="2">  1       -1 0.33866088E+00 0.11321815E+04</pdfrwt>
<totfact> 0.57817662E-01</totfact>
</mgrwt>
</event>
<event>
12    1  0.8033771E-008  0.2235587E+03  0.7818608E-02  0.1131257E+00
          2   -1    0    0  501    0  0.00000000000E+00  0.00000000000E+00  0.28889170735E+04  0.28889170735E+04  0.00000000000E+00 0. -1.
         -2   -1    0    0    0  501 -0.00000000000E+00 -0.00000000000E+00 -0.93989756169E+02  0.93989756169E+02  0.00000000000E+00 0.  1.
         23    2    1    2    0    0 -0.12931859897E+02 -0.10736018843E+03  0.18702830945E+04  0.18756588610E+04  0.91890512735E+02 0.  0.
    5000000    2    1    2    0    0  0.12931859897E+02  0.10736018843E+03  0.92464422276E+03  0.11072479686E+04  0.59944781437E+03 0.  0.
         23    2    4    4    0    0  0.11822331090E+03  0.12054596545E+02 -0.16241248616E+02  0.15100150852E+03  0.91736649609E+02 0.  0.
         23    2    4    4    0    0 -0.10529145100E+03  0.95305591882E+02  0.94088547138E+03  0.95624646005E+03  0.94722629836E+02 0.  0.
          2    1    3    3  502    0 -0.41203458088E+02 -0.69090952897E+02  0.73697415469E+03  0.74135159635E+03  0.00000000000E+00 0. -1.
         -2    1    3    3    0  502  0.28271598191E+02 -0.38269235530E+02  0.11333089398E+04  0.11343072647E+04  0.00000000000E+00 0.  1.
         15    1    5    5    0    0  0.32176320056E+02  0.45852975270E+02 -0.16894173819E+02  0.58535303463E+02  0.17770000000E+01 0. -1.
        -15    1    5    5    0    0  0.86046990844E+02 -0.33798378725E+02  0.65292520374E+00  0.92466205059E+02  0.17770000000E+01 0.  1.
          3    1    6    6  503    0 -0.65709523948E+02  0.11019192558E+03  0.69151711990E+03  0.70331780094E+03  0.00000000000E+00 0. -1.
         -3    1    6    6    0  503 -0.39581927055E+02 -0.14886333694E+02  0.24936835148E+03  0.25292865911E+03  0.00000000000E+00 0.  1.
<mgrwt>
<rscale>  0 0.22355867E+03</rscale>
<asrwt>0</asrwt>
<pdfrwt beam="1">  1        2 0.44444871E+00 0.22355867E+03</pdfrwt>
<pdfrwt beam="2">  1       -2 0.14459965E-01 0.22355867E+03</pdfrwt>
<totfact> 0.90248233E+01</totfact>
</mgrwt>
</event>
<event>
12    1  0.8033771E-008  0.8118068E+03  0.7818608E-02  0.9543083E-01
         -1   -1    0    0    0  501 -0.00000000000E+00  0.00000000000E+00  0.95576691124E+03  0.95576691124E+03  0.00000000000E+00 0.  1.
          1   -1    0    0  501    0  0.00000000000E+00 -0.00000000000E+00 -0.11279229614E+04  0.11279229614E+04  0.00000000000E+00 0. -1.
         23    2    1    2    0    0 -0.30483955428E+03 -0.71288670958E+03 -0.62868711179E+03  0.10022587149E+04  0.90224345324E+02 0.  0.
    5000000    2    1    2    0    0  0.30483955428E+03  0.71288670958E+03  0.45653106167E+03  0.10814311577E+04  0.59994843448E+03 0.  0.
         23    2    4    4    0    0  0.27558057920E+03  0.29116558127E+03 -0.51263783178E+02  0.41425300461E+03  0.90859919720E+02 0.  0.
         23    2    4    4    0    0  0.29258975080E+02  0.42172112831E+03  0.50779484484E+03  0.66717815310E+03  0.92554231856E+02 0.  0.
          3    1    3    3  502    0 -0.16504129646E+03 -0.27325564123E+03 -0.25940798090E+03  0.41133900320E+03  0.00000000000E+00 0. -1.
         -3    1    3    3    0  502 -0.13979825782E+03 -0.43963106835E+03 -0.36927913089E+03  0.59091971169E+03  0.00000000000E+00 0.  1.
         15    1    5    5    0    0  0.70475664472E+01  0.47884930146E+02 -0.11040669010E+02  0.49675837478E+02  0.17770000000E+01 0.  1.
        -15    1    5    5    0    0  0.26853301275E+03  0.24328065113E+03 -0.40223114168E+02  0.36457716713E+03  0.17770000000E+01 0. -1.
          4    1    6    6  503    0 -0.26131253977E+02  0.49667192158E+02  0.76819024166E+02  0.95135875910E+02  0.00000000000E+00 0. -1.
         -4    1    6    6    0  503  0.55390229056E+02  0.37205393615E+03  0.43097582068E+03  0.57204227719E+03  0.00000000000E+00 0.  1.
<mgrwt>
<rscale>  0 0.81180682E+03</rscale>
<asrwt>0</asrwt>
<pdfrwt beam="1">  1        1 0.17352661E+00 0.81180682E+03</pdfrwt>
<pdfrwt beam="2">  1       -1 0.14704106E+00 0.81180682E+03</pdfrwt>
<totfact> 0.45727491E+00</totfact>
</mgrwt>
</event>
<event>
12    1  0.8033771E-008  0.4323423E+03  0.7818608E-02  0.1033123E+00
          2   -1    0    0  501    0  0.00000000000E+00  0.00000000000E+00  0.20324312326E+04  0.20324312326E+04  0.00000000000E+00 0. -1.
         -2   -1    0    0    0  501 -0.00000000000E+00 -0.00000000000E+00 -0.17057665589E+03  0.17057665589E+03  0.00000000000E+00 0.  1.
         23    2    1    2    0    0  0.28976136801E+03  0.23019346757E+03  0.28414635934E+03  0.47495299022E+03  0.88828522984E+02 0.  0.
    5000000    2    1    2    0    0 -0.28976136801E+03 -0.23019346757E+03  0.15777082173E+04  0.17280548982E+04  0.60004985568E+03 0.  0.
         23    2    4    4    0    0 -0.20584564141E+03 -0.28282984716E+03  0.15387359154E+04  0.15802650125E+04  0.84641254626E+02 0.  0.
         23    2    4    4    0    0 -0.83915726598E+02  0.52636379582E+02  0.38972301951E+02  0.14778988569E+03  0.10252108255E+03 0.  0.
          3    1    3    3  502    0  0.23095196250E+03  0.14286347779E+03  0.23336128514E+03  0.35805903378E+03  0.00000000000E+00 0. -1.
         -3    1    3    3    0  502  0.58809405506E+02  0.87329989785E+02  0.50785074192E+02  0.11689395644E+03  0.00000000000E+00 0.  1.
         15    1    5    5    0    0 -0.16548625742E+03 -0.25422960726E+03  0.14117442976E+04  0.14439679754E+04  0.17770000000E+01 0.  1.
        -15    1    5    5    0    0 -0.40359383987E+02 -0.28600239891E+02  0.12699161782E+03  0.13629703710E+03  0.17770000000E+01 0. -1.
          3    1    6    6  503    0 -0.48541439506E+02 -0.21308806693E+02 -0.75338119540E+01  0.53545260430E+02  0.00000000000E+00 0.  1.
         -3    1    6    6    0  503 -0.35374287092E+02  0.73945186276E+02  0.46506113905E+02  0.94244625264E+02  0.00000000000E+00 0. -1.
<mgrwt>
<rscale>  0 0.43234230E+03</rscale>
<asrwt>0</asrwt>
<pdfrwt beam="1">  1        2 0.31268171E+00 0.43234230E+03</pdfrwt>
<pdfrwt beam="2">  1       -2 0.26242564E-01 0.43234230E+03</pdfrwt>
<totfact> 0.90427357E+01</totfact>
</mgrwt>
</event>
<event>
12    1  0.8033771E-008  0.7949532E+03  0.7818608E-02  0.9567351E-01
          1   -1    0    0  501    0  0.00000000000E+00  0.00000000000E+00  0.10093772285E+04  0.10093772285E+04  0.00000000000E+00 0. -1.
         -1   -1    0    0    0  501 -0.00000000000E+00 -0.00000000000E+00 -0.69528277521E+03  0.69528277521E+03  0.00000000000E+00 0.  1.
         23    2    1    2    0    0 -0.12284509649E+03  0.66762761599E+03  0.40229412900E+03  0.79427304293E+03  0.90617598328E+02 0.  0.
    5000000    2    1    2    0    0  0.12284509649E+03 -0.66762761599E+03 -0.88199675722E+02  0.91038696078E+03  0.60017304520E+03 0.  0.
         23    2    4    4    0    0  0.21110904820E+03 -0.37968089880E+01 -0.28590351429E+02  0.23163844081E+03  0.90870859345E+02 0.  0.
         23    2    4    4    0    0 -0.88263951711E+02 -0.66383080701E+03 -0.59609324293E+02  0.67874851997E+03  0.93190215751E+02 0.  0.
          2    1    3    3  502    0 -0.70258154404E+02  0.16358136434E+03  0.10854074748E+03  0.20850938800E+03  0.00000000000E+00 0. -1.
         -2    1    3    3    0  502 -0.52586942082E+02  0.50404625165E+03  0.29375338152E+03  0.58576365493E+03  0.00000000000E+00 0.  1.
         15    1    5    5    0    0  0.16166588653E+03 -0.42360916709E+02 -0.21455824907E+02  0.16850464766E+03  0.17770000000E+01 0. -1.
        -15    1    5    5    0    0  0.49443161666E+02  0.38564107721E+02 -0.71345265223E+01  0.63133793151E+02  0.17770000000E+01 0.  1.
          2    1    6    6  503    0 -0.32581802441E+02 -0.51966698289E+03 -0.31248428163E+02  0.52162420498E+03  0.00000000000E+00 0. -1.
         -2    1    6    6    0  503 -0.55682149270E+02 -0.14416382411E+03 -0.28360896130E+02  0.15712431498E+03  0.00000000000E+00 0.  1.
<mgrwt>
<rscale>  0 0.79495324E+03</rscale>
<asrwt>0</asrwt>
<pdfrwt beam="1">  1        1 0.15528880E+00 0.79495324E+03</pdfrwt>
<pdfrwt beam="2">  1       -1 0.10696658E+00 0.79495324E+03</pdfrwt>
<totfact> 0.12439086E+01</totfact>
</mgrwt>
</event>
<event>
12    1  0.8033771E-008  0.9907843E+03  0.7818608E-02  0.9318711E-01
          1   -1    0    0  501    0  0.00000000000E+00  0.00000000000E+00  0.16032527325E+04  0.16032527325E+04  0.00000000000E+00 0. -1.
         -1   -1    0    0    0  501 -0.00000000000E+00 -0.00000000000E+00 -0.69606439147E+03  0.69606439147E+03  0.00000000000E+00 0.  1.
         23    2    1    2    0    0  0.64305239865E+03  0.72524451815E+03  0.43464980535E+03  0.10652591681E+04  0.79753642697E+02 0.  0.
    5000000    2    1    2    0    0 -0.64305239865E+03 -0.72524451815E+03  0.47253853564E+03  0.12340579558E+04  0.60009196965E+03 0.  0.
         23    2    4    4    0    0 -0.29300275955E+03 -0.15226809580E+03 -0.90340016498E+02  0.35346567632E+03  0.87979973024E+02 0.  0.
         23    2    4    4    0    0 -0.35004963909E+03 -0.57297642235E+03  0.56287855213E+03  0.88059227945E+03  0.88168972876E+02 0.  0.
          1    1    3    3  502    0  0.54825399754E+03  0.61903072145E+03  0.33875536997E+03  0.89360879618E+03  0.00000000000E+00 0. -1.
         -1    1    3    3    0  502  0.94798401110E+02  0.10621379669E+03  0.95894435384E+02  0.17165037197E+03  0.00000000000E+00 0.  1.
         15    1    5    5    0    0  0.53372186478E+01 -0.19296875807E+01 -0.69214457456E+01  0.91254444967E+01  0.17770000000E+01 0.  1.
        -15    1    5    5    0    0 -0.29833997820E+03 -0.15033840821E+03 -0.83418570752E+02  0.34434023183E+03  0.17770000000E+01 0. -1.
          2    1    6    6  503    0 -0.26391514908E+03 -0.45803393581E+03  0.48396857802E+03  0.71670906006E+03  0.00000000000E+00 0.  1.
         -2    1    6    6    0  503 -0.86134490013E+02 -0.11494248654E+03  0.78909974113E+02  0.16388321939E+03  0.00000000000E+00 0. -1.
<mgrwt>
<rscale>  0 0.99078429E+03</rscale>
<asrwt>0</asrwt>
<pdfrwt beam="1">  1        1 0.24665426E+00 0.99078429E+03</pdfrwt>
<pdfrwt beam="2">  1       -1 0.10708683E+00 0.99078429E+03</pdfrwt>
<totfact> 0.45482884E+00</totfact>
</mgrwt>
</event>
<event>
12    1  0.8033771E-008  0.6987789E+03  0.7818608E-02  0.9719323E-01
          2   -1    0    0  501    0  0.00000000000E+00  0.00000000000E+00  0.14514392302E+04  0.14514392302E+04  0.00000000000E+00 0. -1.
         -2   -1    0    0    0  501 -0.00000000000E+00 -0.00000000000E+00 -0.37003006402E+03  0.37003006402E+03  0.00000000000E+00 0.  1.
         23    2    1    2    0    0  0.59622903426E+03  0.10784443316E+03  0.43521455500E+03  0.75159089105E+03  0.91420323549E+02 0.  0.
    5000000    2    1    2    0    0 -0.59622903426E+03 -0.10784443316E+03  0.64619461123E+03  0.10698784032E+04  0.59996069790E+03 0.  0.
         23    2    4    4    0    0 -0.37483333794E+02 -0.21405024526E+03  0.49443222132E+02  0.24049874665E+03  0.90401919883E+02 0.  0.
         23    2    4    4    0    0 -0.55874570047E+03  0.10620581210E+03  0.59675138910E+03  0.82937965656E+03  0.91005285617E+02 0.  0.
          2    1    3    3  502    0  0.36639942080E+03  0.37762886463E+02  0.30544841410E+03  0.47851155141E+03  0.00000000000E+00 0. -1.
         -2    1    3    3    0  502  0.22982961346E+03  0.70081546698E+02  0.12976614090E+03  0.27307933964E+03  0.00000000000E+00 0.  1.
         15    1    5    5    0    0 -0.20387599911E+02 -0.77080317673E+02 -0.25108301293E+02  0.83609892510E+02  0.17770000000E+01 0. -1.
        -15    1    5    5    0    0 -0.17095733883E+02 -0.13696992759E+03  0.74551523425E+02  0.15688885415E+03  0.17770000000E+01 0.  1.
          1    1    6    6  503    0 -0.47814316218E+03  0.10932631381E+03  0.47119657472E+03  0.68014655660E+03  0.00000000000E+00 0. -1.
         -1    1    6    6    0  503 -0.80602538289E+02 -0.31205017067E+01  0.12555481438E+03  0.14923309996E+03  0.00000000000E+00 0.  1.
<mgrwt>
<rscale>  0 0.69877888E+03</rscale>
<asrwt>0</asrwt>
<pdfrwt beam="1">  1        2 0.22329834E+00 0.69877888E+03</pdfrwt>
<pdfrwt beam="2">  1       -2 0.56927703E-01 0.69877888E+03</pdfrwt>
<totfact> 0.40207718E+01</totfact>
</mgrwt>
</event>
<event>
12    1  0.8033771E-008  0.4472181E+03  0.7818608E-02  0.1028555E+00
          2   -1    0    0  501    0  0.00000000000E+00  0.00000000000E+00  0.71047283499E+03  0.71047283499E+03  0.00000000000E+00 0. -1.
         -2   -1    0    0    0  501 -0.00000000000E+00 -0.00000000000E+00 -0.40756868234E+03  0.40756868234E+03  0.00000000000E+00 0.  1.
         23    2    1    2    0    0  0.28390455511E+03  0.23209028611E+03  0.11412915759E+03  0.38965912165E+03  0.65886790399E+02 0.  0.
    5000000    2    1    2    0    0 -0.28390455511E+03 -0.23209028611E+03  0.18877499506E+03  0.72838239569E+03  0.60036423800E+03 0.  0.
         23    2    4    4    0    0 -0.25346392831E+02  0.80580857353E+02 -0.14891953978E+03  0.19272941748E+03  0.88497936886E+02 0.  0.
         23    2    4    4    0    0 -0.25855816228E+03 -0.31267114346E+03  0.33769453484E+03  0.53565297821E+03  0.90944746781E+02 0.  0.
          1    1    3    3  502    0  0.91920251171E+02  0.40597297113E+02  0.18794326954E+02  0.10222866444E+03  0.00000000000E+00 0. -1.
         -1    1    3    3    0  502  0.19198430394E+03  0.19149298900E+03  0.95334830639E+02  0.28743045720E+03  0.00000000000E+00 0.  1.
         15    1    5    5    0    0 -0.36123570294E+02  0.89723612003E+02 -0.90060883692E+02  0.13217170417E+03  0.17770000000E+01 0.  1.
        -15    1    5    5    0    0  0.10777177462E+02 -0.91427546499E+01 -0.58858656084E+02  0.60557713313E+02  0.17770000000E+01 0. -1.
          1    1    6    6  503    0 -0.14545326830E+03 -0.22830876501E+03  0.18580723015E+03  0.32833804564E+03  0.00000000000E+00 0. -1.
         -1    1    6    6    0  503 -0.11310489398E+03 -0.84362378459E+02  0.15188730468E+03  0.20731493257E+03  0.00000000000E+00 0.  1.
<mgrwt>
<rscale>  0 0.44721811E+03</rscale>
<asrwt>0</asrwt>
<pdfrwt beam="1">  1        2 0.10930351E+00 0.44721811E+03</pdfrwt>
<pdfrwt beam="2">  1       -2 0.62702874E-01 0.44721811E+03</pdfrwt>
<totfact> 0.98297274E+01</totfact>
</mgrwt>
</event>
<event>
12    1  0.1213548E-007  0.1285074E+04  0.7818608E-02  0.9041486E-01
          2   -1    0    0  501    0  0.00000000000E+00  0.00000000000E+00  0.16773486736E+04  0.16773486736E+04  0.00000000000E+00 0. -1.
         -2   -1    0    0    0  501 -0.00000000000E+00 -0.00000000000E+00 -0.11940679777E+04  0.11940679777E+04  0.00000000000E+00 0.  1.
         23    2    1    2    0    0 -0.91782991611E+03  0.84967492255E+03 -0.28474172342E+03  0.12857814346E+04  0.88299601322E+02 0.  0.
    5000000    2    1    2    0    0  0.91782991611E+03 -0.84967492255E+03  0.76802241928E+03  0.15856352167E+04  0.60001781230E+03 0.  0.
         23    2    4    4    0    0  0.40217623819E+03 -0.64808268611E+03  0.66243416328E+03  0.10141954010E+04  0.89534329525E+02 0.  0.
         23    2    4    4    0    0  0.51565367792E+03 -0.20159223644E+03  0.10558825600E+03  0.57143981570E+03  0.94108649020E+02 0.  0.
          3    1    3    3  502    0 -0.34436038838E+03  0.30177171485E+03 -0.14609246441E+03  0.48061757471E+03  0.00000000000E+00 0. -1.
         -3    1    3    3    0  502 -0.57346952774E+03  0.54790320771E+03 -0.13864925902E+03  0.80516385990E+03  0.00000000000E+00 0.  1.
         15    1    5    5    0    0  0.18044638802E+03 -0.32619980206E+03  0.26980379265E+03  0.46017871971E+03  0.17770000000E+01 0. -1.
        -15    1    5    5    0    0  0.22172985017E+03 -0.32188288405E+03  0.39263037063E+03  0.55401668131E+03  0.17770000000E+01 0.  1.
          3    1    6    6  503    0  0.34190116145E+03 -0.15624030281E+03  0.31646444809E+02  0.37723856363E+03  0.00000000000E+00 0. -1.
         -3    1    6    6    0  503  0.17375251647E+03 -0.45351933634E+02  0.73941811189E+02  0.19420125207E+03  0.00000000000E+00 0.  1.
<mgrwt>
<rscale>  0 0.12850738E+04</rscale>
<asrwt>0</asrwt>
<pdfrwt beam="1">  1        2 0.25805364E+00 0.12850738E+04</pdfrwt>
<pdfrwt beam="2">  1       -2 0.18370277E+00 0.12850738E+04</pdfrwt>
<totfact> 0.16600940E+00</totfact>
</mgrwt>
</event>
<event>
12    1  0.8033771E-008  0.6585635E+03  0.7818608E-02  0.9790842E-01
          1   -1    0    0  501    0  0.00000000000E+00  0.00000000000E+00  0.17331533350E+04  0.17331533350E+04  0.00000000000E+00 0. -1.
         -1   -1    0    0    0  501 -0.00000000000E+00 -0.00000000000E+00 -0.44120187396E+03  0.44120187396E+03  0.00000000000E+00 0.  1.
         23    2    1    2    0    0  0.21353423948E+03 -0.58427913671E+03  0.10927492004E+02  0.62897550362E+03  0.92259379178E+02 0.  0.
    5000000    2    1    2    0    0 -0.21353423948E+03  0.58427913671E+03  0.12810239690E+04  0.15453797053E+04  0.60016418038E+03 0.  0.
         23    2    4    4    0    0 -0.18558825617E+03  0.14030626751E+03  0.95264354906E+03  0.98495126819E+03  0.92034882640E+02 0.  0.
         23    2    4    4    0    0 -0.27945983317E+02  0.44397286920E+03  0.32838041997E+03  0.56042843715E+03  0.91397190173E+02 0.  0.
          3    1    3    3  502    0  0.11641311233E+03 -0.20945762426E+03  0.28829593347E+02  0.24136208181E+03  0.00000000000E+00 0. -1.
         -3    1    3    3    0  502  0.97121127151E+02 -0.37482151245E+03 -0.17902101343E+02  0.38761342181E+03  0.00000000000E+00 0.  1.
         15    1    5    5    0    0 -0.98453058818E+02  0.39720531125E+02  0.57045296921E+03  0.58025035389E+03  0.17770000000E+01 0.  1.
        -15    1    5    5    0    0 -0.87135197348E+02  0.10058573639E+03  0.38219057985E+03  0.40470091430E+03  0.17770000000E+01 0. -1.
          2    1    6    6  503    0 -0.51237579234E+02  0.36831186079E+03  0.24421250432E+03  0.44488050484E+03  0.00000000000E+00 0. -1.
         -2    1    6    6    0  503  0.23291595917E+02  0.75661008413E+02  0.84167915654E+02  0.11554793231E+03  0.00000000000E+00 0.  1.
<mgrwt>
<rscale>  0 0.65856351E+03</rscale>
<asrwt>0</asrwt>
<pdfrwt beam="1">  1        1 0.26663897E+00 0.65856351E+03</pdfrwt>
<pdfrwt beam="2">  1       -1 0.67877212E-01 0.65856351E+03</pdfrwt>
<totfact> 0.10512210E+01</totfact>
</mgrwt>
</event>
<event>
12    1  0.8033771E-008  0.6605059E+03  0.7818608E-02  0.9787263E-01
          1   -1    0    0  501    0  0.00000000000E+00  0.00000000000E+00  0.90936482164E+03  0.90936482164E+03  0.00000000000E+00 0. -1.
         -1   -1    0    0    0  501 -0.00000000000E+00 -0.00000000000E+00 -0.11635098124E+04  0.11635098124E+04  0.00000000000E+00 0.  1.
         23    2    1    2    0    0 -0.51136811398E+03  0.12858106507E+03 -0.89917922985E+03  0.10461836942E+04  0.89143683702E+02 0.  0.
    5000000    2    1    2    0    0  0.51136811398E+03 -0.12858106507E+03  0.64503423912E+03  0.10266909398E+04  0.59999556493E+03 0.  0.
         23    2    4    4    0    0  0.58713145943E+03 -0.23532260595E+03  0.49752260716E+03  0.80991718437E+03  0.91307290952E+02 0.  0.
         23    2    4    4    0    0 -0.75763345450E+02  0.10674154088E+03  0.14751163195E+03  0.21677375543E+03  0.89985212213E+02 0.  0.
          3    1    3    3  502    0 -0.71760533548E+02 -0.12856530923E+02 -0.11708278844E+03  0.13792477628E+03  0.00000000000E+00 0. -1.
         -3    1    3    3    0  502 -0.43960758043E+03  0.14143759600E+03 -0.78209644141E+03  0.90825891793E+03  0.00000000000E+00 0.  1.
         15    1    5    5    0    0  0.25718735528E+03 -0.11752621363E+03  0.27762394922E+03  0.39627763186E+03  0.17770000000E+01 0. -1.
        -15    1    5    5    0    0  0.32994410414E+03 -0.11779639232E+03  0.21989865795E+03  0.41363955251E+03  0.17770000000E+01 0.  1.
          1    1    6    6  503    0 -0.33268291046E+02  0.10555912047E+03  0.78392741233E+02  0.13562790636E+03  0.00000000000E+00 0. -1.
         -1    1    6    6    0  503 -0.42495054404E+02  0.11824204031E+01  0.69118890722E+02  0.81145849071E+02  0.00000000000E+00 0.  1.
<mgrwt>
<rscale>  0 0.66050590E+03</rscale>
<asrwt>0</asrwt>
<pdfrwt beam="1">  1        1 0.13990228E+00 0.66050590E+03</pdfrwt>
<pdfrwt beam="2">  1       -1 0.17900151E+00 0.66050590E+03</pdfrwt>
<totfact> 0.39868356E+00</totfact>
</mgrwt>
</event>
<event>
12    1  0.8033771E-008  0.9930814E+03  0.7818608E-02  0.9316166E-01
         -1   -1    0    0    0  501 -0.00000000000E+00  0.00000000000E+00  0.83687511182E+03  0.83687511182E+03  0.00000000000E+00 0.  1.
          1   -1    0    0  501    0  0.00000000000E+00 -0.00000000000E+00 -0.14231498124E+04  0.14231498124E+04  0.00000000000E+00 0. -1.
         23    2    1    2    0    0 -0.11214306151E+03  0.94609190551E+03 -0.60944236466E+03  0.11338939005E+04  0.81421261584E+02 0.  0.
    5000000    2    1    2    0    0  0.11214306151E+03 -0.94609190551E+03  0.23167664028E+02  0.11261310238E+04  0.59997365117E+03 0.  0.
         23    2    4    4    0    0  0.25821950098E+03 -0.59367681416E+03  0.21720343291E+03  0.68857581366E+03  0.88486436926E+02 0.  0.
         23    2    4    4    0    0 -0.14607643948E+03 -0.35241509135E+03 -0.19403576888E+03  0.43755521010E+03  0.90939317688E+02 0.  0.
          1    1    3    3  502    0 -0.80376741834E+02  0.53872290441E+03 -0.30431120303E+03  0.62392956065E+03  0.00000000000E+00 0. -1.
         -1    1    3    3    0  502 -0.31766319674E+02  0.40736900110E+03 -0.30513116163E+03  0.50996433985E+03  0.00000000000E+00 0.  1.
         15    1    5    5    0    0  0.14772977699E+03 -0.39847539390E+03  0.17852214990E+03  0.46095557518E+03  0.17770000000E+01 0.  1.
        -15    1    5    5    0    0  0.11048972399E+03 -0.19520142026E+03  0.38681283016E+02  0.22762023848E+03  0.17770000000E+01 0. -1.
          4    1    6    6  503    0 -0.50695869850E+02 -0.17443949453E+03 -0.13761817755E+03  0.22789903743E+03  0.00000000000E+00 0. -1.
         -4    1    6    6    0  503 -0.95380569627E+02 -0.17797559682E+03 -0.56417591331E+02  0.20965617267E+03  0.00000000000E+00 0.  1.
<mgrwt>
<rscale>  0 0.99308141E+03</rscale>
<asrwt>0</asrwt>
<pdfrwt beam="1">  1        1 0.21894612E+00 0.99308141E+03</pdfrwt>
<pdfrwt beam="2">  1       -1 0.12875002E+00 0.99308141E+03</pdfrwt>
<totfact> 0.38676858E+00</totfact>
</mgrwt>
</event>
<event>
12    1  0.8033771E-008  0.5772088E+03  0.7818608E-02  0.9953852E-01
          1   -1    0    0  501    0  0.00000000000E+00  0.00000000000E+00  0.17687467015E+04  0.17687467015E+04  0.00000000000E+00 0. -1.
         -1   -1    0    0    0  501 -0.00000000000E+00 -0.00000000000E+00 -0.44596210600E+03  0.44596210600E+03  0.00000000000E+00 0.  1.
         23    2    1    2    0    0  0.24518741506E+03  0.49356452874E+03 -0.10767618134E+03  0.56855539426E+03  0.89096934768E+02 0.  0.
    5000000    2    1    2    0    0 -0.24518741506E+03 -0.49356452874E+03  0.14304607768E+04  0.16461534132E+04  0.59990016946E+03 0.  0.
         23    2    4    4    0    0 -0.83522611225E+01 -0.23089816553E+03  0.11730649184E+04  0.11992892715E+04  0.93966647514E+02 0.  0.
         23    2    4    4    0    0 -0.23683515393E+03 -0.26266636321E+03  0.25739585837E+03  0.44686414167E+03  0.91380658291E+02 0.  0.
          3    1    3    3  502    0  0.15389430552E+03  0.29486428623E+03 -0.10858464496E+03  0.34988430900E+03  0.00000000000E+00 0. -1.
         -3    1    3    3    0  502  0.91293109535E+02  0.19870024251E+03  0.90846361997E+00  0.21867108526E+03  0.00000000000E+00 0.  1.
         15    1    5    5    0    0  0.12663499750E+02 -0.22772807786E+03  0.10694525156E+04  0.10935045873E+04  0.17770000000E+01 0.  1.
        -15    1    5    5    0    0 -0.21015760873E+02 -0.31700876691E+01  0.10361240285E+03  0.10578468421E+03  0.17770000000E+01 0. -1.
          1    1    6    6  503    0 -0.12142024530E+03 -0.13921194126E+03  0.18977946017E+03  0.26483784484E+03  0.00000000000E+00 0. -1.
         -1    1    6    6    0  503 -0.11541490864E+03 -0.12345442194E+03  0.67616398200E+02  0.18202629683E+03  0.00000000000E+00 0.  1.
<mgrwt>
<rscale>  0 0.57720881E+03</rscale>
<asrwt>0</asrwt>
<pdfrwt beam="1">  1        1 0.27211487E+00 0.57720881E+03</pdfrwt>
<pdfrwt beam="2">  1       -1 0.68609556E-01 0.57720881E+03</pdfrwt>
<totfact> 0.98890393E+00</totfact>
</mgrwt>
</event>
<event>
12    1  0.8343120E-008  0.1245453E+04  0.7818608E-02  0.9073976E-01
         -2   -1    0    0    0  501 -0.00000000000E+00  0.00000000000E+00  0.82126813745E+03  0.82126813745E+03  0.00000000000E+00 0.  1.
          2   -1    0    0  501    0  0.00000000000E+00 -0.00000000000E+00 -0.19965324603E+04  0.19965324603E+04  0.00000000000E+00 0. -1.
         23    2    1    2    0    0 -0.44202871193E+03  0.11226093197E+04 -0.48051845925E+03  0.13018139493E+04  0.90446127557E+02 0.  0.
    5000000    2    1    2    0    0  0.44202871193E+03 -0.11226093197E+04 -0.69474586362E+03  0.15159866485E+04  0.59991885832E+03 0.  0.
         23    2    4    4    0    0  0.23699815539E+03 -0.15435169853E+03 -0.36242260084E+03  0.46844126396E+03  0.89969459754E+02 0.  0.
         23    2    4    4    0    0  0.20503055655E+03 -0.96825762117E+03 -0.33232326279E+03  0.10475453845E+04  0.85745155069E+02 0.  0.
          1    1    3    3  502    0 -0.30878450822E+03  0.71438717266E+03 -0.34699492403E+03  0.85211641358E+03  0.00000000000E+00 0. -1.
         -1    1    3    3    0  502 -0.13324420371E+03  0.40822214703E+03 -0.13352353522E+03  0.44969753569E+03  0.00000000000E+00 0.  1.
         15    1    5    5    0    0  0.57355218547E+02 -0.73010732085E+02 -0.16535543783E+03  0.18964642534E+03  0.17770000000E+01 0. -1.
        -15    1    5    5    0    0  0.17964293684E+03 -0.81340966445E+02 -0.19706716300E+03  0.27879483862E+03  0.17770000000E+01 0.  1.
          2    1    6    6  503    0  0.22532987061E+02 -0.28673380633E+03 -0.10759393947E+03  0.30708381105E+03  0.00000000000E+00 0. -1.
         -2    1    6    6    0  503  0.18249756948E+03 -0.68152381484E+03 -0.22472932331E+03  0.74046157349E+03  0.00000000000E+00 0.  1.
<mgrwt>
<rscale>  0 0.12454531E+04</rscale>
<asrwt>0</asrwt>
<pdfrwt beam="1">  1        2 0.30715883E+00 0.12454531E+04</pdfrwt>
<pdfrwt beam="2">  1       -2 0.12634895E+00 0.12454531E+04</pdfrwt>
<totfact> 0.30410284E+00</totfact>
</mgrwt>
</event>
<event>
12    1  0.8033771E-008  0.4790011E+03  0.7818608E-02  0.1019410E+00
         -2   -1    0    0    0  501 -0.00000000000E+00  0.00000000000E+00  0.22398700345E+03  0.22398700345E+03  0.00000000000E+00 0.  1.
          2   -1    0    0  501    0  0.00000000000E+00 -0.00000000000E+00 -0.21449986423E+04  0.21449986423E+04  0.00000000000E+00 0. -1.
         23    2    1    2    0    0  0.25147538103E+03  0.36885793613E+03 -0.13613475361E+04  0.14351733207E+04  0.84612658498E+02 0.  0.
    5000000    2    1    2    0    0 -0.25147538103E+03 -0.36885793613E+03 -0.55966410272E+03  0.93381232506E+03  0.59957110192E+03 0.  0.
         23    2    4    4    0    0 -0.20724004218E+03 -0.10284560107E+03 -0.59819114185E+03  0.64851688674E+03  0.95999257572E+02 0.  0.
         23    2    4    4    0    0 -0.44235338852E+02 -0.26601233505E+03  0.38527039134E+02  0.28529543832E+03  0.84792846279E+02 0.  0.
          2    1    3    3  502    0  0.18371457388E+03  0.27764212528E+03 -0.11196436624E+04  0.11680916595E+04  0.00000000000E+00 0. -1.
         -2    1    3    3    0  502  0.67760807149E+02  0.91215810845E+02 -0.24170387375E+03  0.26708166114E+03  0.00000000000E+00 0.  1.
         15    1    5    5    0    0 -0.43274244526E+02  0.18352500984E+01 -0.20857712652E+03  0.21303427851E+03  0.17770000000E+01 0.  1.
        -15    1    5    5    0    0 -0.16396579765E+03 -0.10468085117E+03 -0.38961401533E+03  0.43548260823E+03  0.17770000000E+01 0. -1.
          2    1    6    6  503    0  0.90599190971E+01 -0.63943244410E+02 -0.21159345766E+02  0.67959830436E+02  0.00000000000E+00 0. -1.
         -2    1    6    6    0  503 -0.53295257949E+02 -0.20206909064E+03  0.59686384900E+02  0.21733560789E+03  0.00000000000E+00 0.  1.
<mgrwt>
<rscale>  0 0.47900111E+03</rscale>
<asrwt>0</asrwt>
<pdfrwt beam="1">  1        2 0.32999978E+00 0.47900111E+03</pdfrwt>
<pdfrwt beam="2">  1       -2 0.34459541E-01 0.47900111E+03</pdfrwt>
<totfact> 0.47184085E+01</totfact>
</mgrwt>
</event>
<event>
12    1  0.8033771E-008  0.2703530E+03  0.7818608E-02  0.1101078E+00
          3   -1    0    0  501    0  0.00000000000E+00  0.00000000000E+00  0.58213366324E+03  0.58213366324E+03  0.00000000000E+00 0. -1.
         -3   -1    0    0    0  501 -0.00000000000E+00 -0.00000000000E+00 -0.50185792151E+03  0.50185792151E+03  0.00000000000E+00 0.  1.
         23    2    1    2    0    0 -0.17586645692E+03  0.41831533219E+01 -0.29451485626E+03  0.35471249573E+03  0.90196699660E+02 0.  0.
    5000000    2    1    2    0    0  0.17586645692E+03 -0.41831533219E+01  0.37479059799E+03  0.72927908902E+03  0.60036113123E+03 0.  0.
         23    2    4    4    0    0  0.21354000394E+03  0.61429720801E+02 -0.85195830484E+02  0.25496719957E+03  0.91525949562E+02 0.  0.
         23    2    4    4    0    0 -0.37673547017E+02 -0.65612874123E+02  0.45998642848E+03  0.47431188945E+03  0.87520904355E+02 0.  0.
          3    1    3    3  502    0 -0.84825528358E+02  0.33096536459E+02 -0.85496950948E+02  0.12490187992E+03  0.00000000000E+00 0. -1.
         -3    1    3    3    0  502 -0.91040928563E+02 -0.28913383137E+02 -0.20901790531E+03  0.22981061581E+03  0.00000000000E+00 0.  1.
         15    1    5    5    0    0  0.77958379205E+02 -0.21625103464E+02 -0.35575709024E+02  0.88396508922E+02  0.17770000000E+01 0. -1.
        -15    1    5    5    0    0  0.13558162473E+03  0.83054824265E+02 -0.49620121460E+02  0.16657069064E+03  0.17770000000E+01 0.  1.
          4    1    6    6  503    0  0.26685277057E+02 -0.80976924938E+01  0.82592685441E+02  0.87173552891E+02  0.00000000000E+00 0. -1.
         -4    1    6    6    0  503 -0.64358824074E+02 -0.57515181629E+02  0.37739374304E+03  0.38713833656E+03  0.00000000000E+00 0.  1.
<mgrwt>
<rscale>  0 0.27035298E+03</rscale>
<asrwt>0</asrwt>
<pdfrwt beam="1">  1        3 0.89559025E-01 0.27035298E+03</pdfrwt>
<pdfrwt beam="2">  1       -3 0.77208911E-01 0.27035298E+03</pdfrwt>
<totfact> 0.46094475E+00</totfact>
</mgrwt>
</event>
<event>
12    1  0.8033771E-008  0.8826912E+03  0.7818608E-02  0.9447481E-01
         -2   -1    0    0    0  501 -0.00000000000E+00  0.00000000000E+00  0.41262061751E+03  0.41262061751E+03  0.00000000000E+00 0. -1.
          2   -1    0    0  501    0  0.00000000000E+00 -0.00000000000E+00 -0.22363005485E+04  0.22363005485E+04  0.00000000000E+00 0.  1.
         23    2    1    2    0    0 -0.47582705815E+03  0.68036952627E+03 -0.49298362645E+03  0.96956086940E+03  0.87757290219E+02 0.  0.
    5000000    2    1    2    0    0  0.47582705815E+03 -0.68036952627E+03 -0.13306963045E+04  0.16793602966E+04  0.60015353816E+03 0.  0.
         23    2    4    4    0    0  0.53967518387E+03 -0.57998613298E+03 -0.13045703616E+04  0.15291675870E+04  0.93896018892E+02 0.  0.
         23    2    4    4    0    0 -0.63848125721E+02 -0.10038339329E+03 -0.26125942962E+02  0.15019270959E+03  0.87874207310E+02 0.  0.
          2    1    3    3  502    0 -0.13784090692E+03  0.22765263896E+03 -0.20166876227E+03  0.33391036121E+03  0.00000000000E+00 0. -1.
         -2    1    3    3    0  502 -0.33798615122E+03  0.45271688730E+03 -0.29131486418E+03  0.63565050819E+03  0.00000000000E+00 0.  1.
         15    1    5    5    0    0  0.36930858387E+03 -0.34524056528E+03 -0.88223770903E+03  0.10168217204E+04  0.17770000000E+01 0. -1.
        -15    1    5    5    0    0  0.17036659999E+03 -0.23474556769E+03 -0.42233265255E+03  0.51234586666E+03  0.17770000000E+01 0.  1.
          1    1    6    6  503    0 -0.31858214881E+02  0.14937561438E+01 -0.29377758476E+02  0.43361617311E+02  0.00000000000E+00 0. -1.
         -1    1    6    6    0  503 -0.31989910840E+02 -0.10187714943E+03  0.32518155133E+01  0.10683109227E+03  0.00000000000E+00 0.  1.
<mgrwt>
<rscale>  0 0.88269122E+03</rscale>
<asrwt>0</asrwt>
<pdfrwt beam="1">  1        2 0.34404624E+00 0.88269122E+03</pdfrwt>
<pdfrwt beam="2">  1       -2 0.63480095E-01 0.88269122E+03</pdfrwt>
<totfact> 0.11557916E+01</totfact>
</mgrwt>
</event>
<event>
12    1  0.8033771E-008  0.9661150E+03  0.7818608E-02  0.9346510E-01
          2   -1    0    0  501    0  0.00000000000E+00  0.00000000000E+00  0.18144700705E+04  0.18144700705E+04  0.00000000000E+00 0. -1.
         -2   -1    0    0    0  501 -0.00000000000E+00 -0.00000000000E+00 -0.59670853413E+03  0.59670853413E+03  0.00000000000E+00 0.  1.
         23    2    1    2    0    0 -0.19789926008E+03 -0.91435343353E+03  0.35449667715E+03  0.10045921116E+04  0.91274849381E+02 0.  0.
    5000000    2    1    2    0    0  0.19789926008E+03  0.91435343353E+03  0.86326485918E+03  0.14065864929E+04  0.59837532243E+03 0.  0.
         23    2    4    4    0    0 -0.66781347873E+02  0.13891653012E+03  0.45067620628E+03  0.48475245653E+03  0.90101889202E+02 0.  0.
         23    2    4    4    0    0  0.26468060795E+03  0.77543690341E+03  0.41258865290E+03  0.92183403641E+03  0.90500711579E+02 0.  0.
          2    1    3    3  502    0 -0.41340471899E+02 -0.16590626678E+03  0.28433478113E+02  0.17332739729E+03  0.00000000000E+00 0. -1.
         -2    1    3    3    0  502 -0.15655878818E+03 -0.74844716674E+03  0.32606319903E+03  0.83126471435E+03  0.00000000000E+00 0.  1.
         15    1    5    5    0    0 -0.21087487345E+02 -0.76682634013E+01  0.34910957101E+02  0.41538139593E+02  0.17770000000E+01 0.  1.
        -15    1    5    5    0    0 -0.45693860528E+02  0.14658479352E+03  0.41576524918E+03  0.44321431694E+03  0.17770000000E+01 0. -1.
          2    1    6    6  503    0  0.14027526166E+03  0.47747045548E+03  0.29304551779E+03  0.57752130731E+03  0.00000000000E+00 0. -1.
         -2    1    6    6    0  503  0.12440534629E+03  0.29796644792E+03  0.11954313510E+03  0.34431272910E+03  0.00000000000E+00 0.  1.
<mgrwt>
<rscale>  0 0.96611502E+03</rscale>
<asrwt>0</asrwt>
<pdfrwt beam="1">  1        2 0.27914924E+00 0.96611502E+03</pdfrwt>
<pdfrwt beam="2">  1       -2 0.91801314E-01 0.96611502E+03</pdfrwt>
<totfact> 0.85738596E+00</totfact>
</mgrwt>
</event>
<event>
12    1  0.8033771E-008  0.1599807E+04  0.7818608E-02  0.8820666E-01
         -2   -1    0    0    0  501 -0.00000000000E+00  0.00000000000E+00  0.98383757882E+03  0.98383757882E+03  0.00000000000E+00 0.  1.
          2   -1    0    0  501    0  0.00000000000E+00 -0.00000000000E+00 -0.27233885942E+04  0.27233885942E+04  0.00000000000E+00 0. -1.
         23    2    1    2    0    0 -0.12913905440E+04  0.90777226275E+03 -0.75068943612E+03  0.17502645837E+04  0.90285466428E+02 0.  0.
    5000000    2    1    2    0    0  0.12913905440E+04 -0.90777226275E+03 -0.98886157923E+03  0.19569615893E+04  0.60009284354E+03 0.  0.
         23    2    4    4    0    0  0.84144834339E+03 -0.38019830254E+03 -0.81876035031E+03  0.12374255309E+04  0.90925076265E+02 0.  0.
         23    2    4    4    0    0  0.44994220059E+03 -0.52757396021E+03 -0.17010122892E+03  0.71953605834E+03  0.89529010965E+02 0.  0.
          4    1    3    3  502    0 -0.12479532782E+04  0.87260781405E+03 -0.70487429854E+03  0.16779986765E+04  0.00000000000E+00 0.  1.
         -4    1    3    3    0  502 -0.43437265780E+02  0.35164448701E+02 -0.45815137580E+02  0.72265907192E+02  0.00000000000E+00 0. -1.
         15    1    5    5    0    0  0.39027259460E+03 -0.22438148995E+03 -0.41347817129E+03  0.61125044539E+03  0.17770000000E+01 0.  1.
        -15    1    5    5    0    0  0.45117574880E+03 -0.15581681259E+03 -0.40528217902E+03  0.62617508554E+03  0.17770000000E+01 0. -1.
          4    1    6    6  503    0  0.33110765701E+03 -0.38179997532E+03 -0.82510240986E+02  0.51206585666E+03  0.00000000000E+00 0. -1.
         -4    1    6    6    0  503  0.11883454358E+03 -0.14577398489E+03 -0.87590987935E+02  0.20747020168E+03  0.00000000000E+00 0.  1.
<mgrwt>
<rscale>  0 0.15998073E+04</rscale>
<asrwt>0</asrwt>
<pdfrwt beam="1">  1        2 0.41898286E+00 0.15998073E+04</pdfrwt>
<pdfrwt beam="2">  1       -2 0.15135963E+00 0.15998073E+04</pdfrwt>
<totfact> 0.70404721E-01</totfact>
</mgrwt>
</event>
<event>
12    1  0.8033771E-008  0.2201217E+03  0.7818608E-02  0.1133792E+00
          2   -1    0    0  501    0  0.00000000000E+00  0.00000000000E+00  0.53783454614E+03  0.53783454614E+03  0.00000000000E+00 0.  1.
         -2   -1    0    0    0  501 -0.00000000000E+00 -0.00000000000E+00 -0.28028816977E+03  0.28028816977E+03  0.00000000000E+00 0. -1.
         23    2    1    2    0    0  0.81009575127E+02 -0.99587164240E+02  0.94633076974E+02  0.18353884641E+03  0.90834653848E+02 0.  0.
    5000000    2    1    2    0    0 -0.81009575127E+02  0.99587164240E+02  0.16291329940E+03  0.63458386950E+03  0.59972976395E+03 0.  0.
         23    2    4    4    0    0  0.50244765325E+02 -0.47199606092E+02 -0.18997428463E+03  0.22109853191E+03  0.89677158379E+02 0.  0.
         23    2    4    4    0    0 -0.13125434045E+03  0.14678677033E+03  0.35288758402E+03  0.41348533759E+03  0.87558092771E+02 0.  0.
          3    1    3    3  502    0  0.93480042259E+02 -0.57486994465E+02  0.48912372056E+02  0.12014862868E+03  0.00000000000E+00 0. -1.
         -3    1    3    3    0  502 -0.12470467132E+02 -0.42100169774E+02  0.45720704918E+02  0.63390217729E+02  0.00000000000E+00 0.  1.
         15    1    5    5    0    0  0.34987665092E+02 -0.55139090703E+02 -0.56091539808E+02  0.86103859374E+02  0.17770000000E+01 0. -1.
        -15    1    5    5    0    0  0.15257100233E+02  0.79394846110E+01 -0.13388274482E+03  0.13499467254E+03  0.17770000000E+01 0.  1.
          3    1    6    6  503    0 -0.94108497692E+02  0.65664276706E+02  0.26246424429E+03  0.28645363692E+03  0.00000000000E+00 0. -1.
         -3    1    6    6    0  503 -0.37145842760E+02  0.81122493625E+02  0.90423339737E+02  0.12703170067E+03  0.00000000000E+00 0.  1.
<mgrwt>
<rscale>  0 0.22012166E+03</rscale>
<asrwt>0</asrwt>
<pdfrwt beam="1">  1        2 0.82743776E-01 0.22012166E+03</pdfrwt>
<pdfrwt beam="2">  1       -2 0.43121257E-01 0.22012166E+03</pdfrwt>
<totfact> 0.29847609E+02</totfact>
</mgrwt>
</event>
<event>
12    1  0.8033771E-008  0.5472505E+03  0.7818608E-02  0.1002132E+00
          2   -1    0    0  501    0  0.00000000000E+00  0.00000000000E+00  0.35553552806E+03  0.35553552806E+03  0.00000000000E+00 0. -1.
         -2   -1    0    0    0  501 -0.00000000000E+00 -0.00000000000E+00 -0.95185392304E+03  0.95185392304E+03  0.00000000000E+00 0.  1.
         23    2    1    2    0    0  0.39006535877E+03 -0.95960423032E+02 -0.78762344120E+02  0.41914302558E+03  0.90099845419E+02 0.  0.
    5000000    2    1    2    0    0 -0.39006535877E+03  0.95960423032E+02 -0.51755605086E+03  0.88824642552E+03  0.59979834926E+03 0.  0.
         23    2    4    4    0    0 -0.51262491029E+03  0.12201282619E+03 -0.50113581482E+03  0.73289572763E+03  0.91255762978E+02 0.  0.
         23    2    4    4    0    0  0.12255955152E+03 -0.26052403155E+02 -0.16420236038E+02  0.15535069789E+03  0.90358418559E+02 0.  0.
          1    1    3    3  502    0  0.21599897933E+03 -0.97924991211E+01 -0.25322108895E+02  0.21769855605E+03  0.00000000000E+00 0. -1.
         -1    1    3    3    0  502  0.17406637944E+03 -0.86167923911E+02 -0.53440235225E+02  0.20144446953E+03  0.00000000000E+00 0.  1.
         15    1    5    5    0    0 -0.33697290839E+03  0.10584092295E+03 -0.38060822182E+03  0.51924832036E+03  0.17770000000E+01 0. -1.
        -15    1    5    5    0    0 -0.17565200190E+03  0.16171903235E+02 -0.12052759301E+03  0.21364740727E+03  0.17770000000E+01 0.  1.
          1    1    6    6  503    0  0.13462394124E+02  0.29197471399E+02 -0.19988191794E+01  0.32213718658E+02  0.00000000000E+00 0. -1.
         -1    1    6    6    0  503  0.10909715740E+03 -0.55249874554E+02 -0.14421416858E+02  0.12313697923E+03  0.00000000000E+00 0.  1.
<mgrwt>
<rscale>  0 0.54725052E+03</rscale>
<asrwt>0</asrwt>
<pdfrwt beam="1">  1        2 0.54697774E-01 0.54725052E+03</pdfrwt>
<pdfrwt beam="2">  1       -2 0.14643906E+00 0.54725052E+03</pdfrwt>
<totfact> 0.29849573E+01</totfact>
</mgrwt>
</event>
<event>
12    1  0.8033771E-008  0.1110697E+04  0.7818608E-02  0.9194828E-01
         -2   -1    0    0    0  501 -0.00000000000E+00  0.00000000000E+00  0.90983761388E+03  0.90983761388E+03  0.00000000000E+00 0.  1.
          2   -1    0    0  501    0  0.00000000000E+00 -0.00000000000E+00 -0.14840570587E+04  0.14840570587E+04  0.00000000000E+00 0. -1.
         23    2    1    2    0    0 -0.74705544481E+03 -0.72211180032E+03 -0.58114476502E+03  0.11938957323E+04  0.90113772544E+02 0.  0.
    5000000    2    1    2    0    0  0.74705544481E+03  0.72211180032E+03  0.69253202430E+01  0.11999989402E+04  0.60034340726E+03 0.  0.
         23    2    4    4    0    0  0.80140217530E+03  0.72943351015E+03 -0.29430180481E+02  0.10879220817E+04  0.91594912079E+02 0.  0.
         23    2    4    4    0    0 -0.54346730491E+02 -0.73217098340E+01  0.36355500724E+02  0.11207685855E+03  0.90732162097E+02 0.  0.
          1    1    3    3  502    0 -0.66866482079E+03 -0.65598368398E+03 -0.49226088036E+03  0.10581814639E+04  0.00000000000E+00 0. -1.
         -1    1    3    3    0  502 -0.78390624022E+02 -0.66128116342E+02 -0.88883884666E+02  0.13571426844E+03  0.00000000000E+00 0.  1.
         15    1    5    5    0    0  0.37993344268E+03  0.32644297090E+03 -0.56946819496E+02  0.50414336463E+03  0.17770000000E+01 0.  1.
        -15    1    5    5    0    0  0.42146873262E+03  0.40299053925E+03  0.27516639015E+02  0.58377871703E+03  0.17770000000E+01 0. -1.
          3    1    6    6  503    0 -0.45403430306E+02  0.33413804659E+02 -0.56604151240E+00  0.56376184939E+02  0.00000000000E+00 0. -1.
         -3    1    6    6    0  503 -0.89433001844E+01 -0.40735514493E+02  0.36921542236E+02  0.55700673607E+02  0.00000000000E+00 0.  1.
<mgrwt>
<rscale>  0 0.11106969E+04</rscale>
<asrwt>0</asrwt>
<pdfrwt beam="1">  1        2 0.22831647E+00 0.11106969E+04</pdfrwt>
<pdfrwt beam="2">  1       -2 0.13997502E+00 0.11106969E+04</pdfrwt>
<totfact> 0.45699717E+00</totfact>
</mgrwt>
</event>
<event>
12    1  0.8033771E-008  0.3971993E+03  0.7818608E-02  0.1044754E+00
          2   -1    0    0  501    0  0.00000000000E+00  0.00000000000E+00  0.19535962135E+04  0.19535962135E+04  0.00000000000E+00 0. -1.
         -2   -1    0    0    0  501 -0.00000000000E+00 -0.00000000000E+00 -0.32392313796E+03  0.32392313796E+03  0.00000000000E+00 0.  1.
         23    2    1    2    0    0 -0.14377212776E+03  0.34115361718E+03  0.15162873998E+04  0.15634883098E+04  0.91170176142E+02 0.  0.
    5000000    2    1    2    0    0  0.14377212776E+03 -0.34115361718E+03  0.11338567573E+03  0.71403104160E+03  0.59993983171E+03 0.  0.
         23    2    4    4    0    0  0.10847373388E+03 -0.28366119164E+03 -0.20375882937E+03  0.37689895340E+03  0.91131432276E+02 0.  0.
         23    2    4    4    0    0  0.35298393884E+02 -0.57492425541E+02  0.31714450510E+03  0.33713208819E+03  0.92336624199E+02 0.  0.
          1    1    3    3  502    0 -0.15560097123E+02  0.15672579259E+02  0.21043958680E+03  0.21159528836E+03  0.00000000000E+00 0. -1.
         -1    1    3    3    0  502 -0.12821203064E+03  0.32548103792E+03  0.13058478130E+04  0.13518930215E+04  0.00000000000E+00 0.  1.
         15    1    5    5    0    0  0.87803078849E+02 -0.12258517561E+03 -0.12752587079E+03  0.19749053492E+03  0.17770000000E+01 0.  1.
        -15    1    5    5    0    0  0.20670655026E+02 -0.16107601603E+03 -0.76232958582E+02  0.17940841848E+03  0.17770000000E+01 0. -1.
          3    1    6    6  503    0  0.36335578605E+02 -0.79418774520E+02  0.28593877771E+03  0.29897926453E+03  0.00000000000E+00 0. -1.
         -3    1    6    6    0  503 -0.10371847212E+01  0.21926348979E+02  0.31205727390E+02  0.38152823665E+02  0.00000000000E+00 0.  1.
<mgrwt>
<rscale>  0 0.39719931E+03</rscale>
<asrwt>0</asrwt>
<pdfrwt beam="1">  1        2 0.30055326E+00 0.39719931E+03</pdfrwt>
<pdfrwt beam="2">  1       -2 0.49834330E-01 0.39719931E+03</pdfrwt>
<totfact> 0.29684961E+01</totfact>
</mgrwt>
</event>
<event>
12    1  0.8033771E-008  0.9467142E+03  0.7818608E-02  0.9368999E-01
          3   -1    0    0  501    0  0.00000000000E+00  0.00000000000E+00  0.12643554060E+04  0.12643554060E+04  0.00000000000E+00 0. -1.
         -3   -1    0    0    0  501 -0.00000000000E+00 -0.00000000000E+00 -0.10393590082E+04  0.10393590082E+04  0.00000000000E+00 0.  1.
         23    2    1    2    0    0  0.42272104607E+03 -0.81354818191E+03  0.65113658370E+03  0.11281267344E+04  0.90207267124E+02 0.  0.
    5000000    2    1    2    0    0 -0.42272104607E+03  0.81354818191E+03 -0.42614018585E+03  0.11755876798E+04  0.59988099475E+03 0.  0.
         23    2    4    4    0    0  0.40853376215E+02  0.21775020851E+03 -0.33193438454E+03  0.40932925327E+03  0.91026646050E+02 0.  0.
         23    2    4    4    0    0 -0.46357442228E+03  0.59579797340E+03 -0.94205801306E+02  0.76625842654E+03  0.91655731626E+02 0.  0.
          3    1    3    3  502    0  0.15523968586E+03 -0.28512470746E+03  0.28372252234E+03  0.43115418188E+03  0.00000000000E+00 0. -1.
         -3    1    3    3    0  502  0.26748136021E+03 -0.52842347446E+03  0.36741406136E+03  0.69697255247E+03  0.00000000000E+00 0.  1.
         15    1    5    5    0    0  0.35901293533E+02  0.18932516812E+03 -0.21433220827E+03  0.28822625729E+03  0.17770000000E+01 0. -1.
        -15    1    5    5    0    0  0.49520826822E+01  0.28425040394E+02 -0.11760217627E+03  0.12110299599E+03  0.17770000000E+01 0.  1.
          4    1    6    6  503    0 -0.22806213483E+03  0.29273569291E+03 -0.14930164245E+00  0.37108832579E+03  0.00000000000E+00 0. -1.
         -4    1    6    6    0  503 -0.23551228746E+03  0.30306228049E+03 -0.94056499664E+02  0.39517010076E+03  0.00000000000E+00 0.  1.
<mgrwt>
<rscale>  0 0.94671419E+03</rscale>
<asrwt>0</asrwt>
<pdfrwt beam="1">  1        3 0.19451622E+00 0.94671419E+03</pdfrwt>
<pdfrwt beam="2">  1       -3 0.15990139E+00 0.94671419E+03</pdfrwt>
<totfact> 0.11065473E-01</totfact>
</mgrwt>
</event>
<event>
12    1  0.8033771E-008  0.1004218E+04  0.7818608E-02  0.9303930E-01
         -1   -1    0    0    0  501 -0.00000000000E+00  0.00000000000E+00  0.53512409948E+03  0.53512409948E+03  0.00000000000E+00 0.  1.
          1   -1    0    0  501    0  0.00000000000E+00 -0.00000000000E+00 -0.19650963202E+04  0.19650963202E+04  0.00000000000E+00 0. -1.
         23    2    1    2    0    0 -0.69521076830E+03 -0.61573869764E+03 -0.78667741208E+03  0.12210687302E+04  0.98464902523E+02 0.  0.
    5000000    2    1    2    0    0  0.69521076830E+03  0.61573869764E+03 -0.64329480867E+03  0.12791516895E+04  0.59995722996E+03 0.  0.
         23    2    4    4    0    0 -0.59006870888E+02 -0.10047733053E+02 -0.12097606172E+03  0.16478351566E+03  0.94528470692E+02 0.  0.
         23    2    4    4    0    0  0.75421763919E+03  0.62578643069E+03 -0.52231874696E+03  0.11143681739E+04  0.92448090204E+02 0.  0.
          3    1    3    3  502    0 -0.42017766642E+03 -0.43424883537E+03 -0.51832106477E+03  0.79610178279E+03  0.00000000000E+00 0. -1.
         -3    1    3    3    0  502 -0.27503310189E+03 -0.18148986227E+03 -0.26835634731E+03  0.42496694740E+03  0.00000000000E+00 0.  1.
         15    1    5    5    0    0  0.56163601751E+01  0.21790935437E+02 -0.77277044235E+02  0.80506444858E+02  0.17770000000E+01 0. -1.
        -15    1    5    5    0    0 -0.64623231063E+02 -0.31838668490E+02 -0.43699017482E+02  0.84277070797E+02  0.17770000000E+01 0.  1.
          3    1    6    6  503    0  0.25636774988E+03  0.21439469432E+03 -0.22846248848E+03  0.40482665028E+03  0.00000000000E+00 0. -1.
         -3    1    6    6    0  503  0.49784988931E+03  0.41139173637E+03 -0.29385625847E+03  0.70954152358E+03  0.00000000000E+00 0.  1.
<mgrwt>
<rscale>  0 0.10042184E+04</rscale>
<asrwt>0</asrwt>
<pdfrwt beam="1">  1        1 0.30232251E+00 0.10042184E+04</pdfrwt>
<pdfrwt beam="2">  1       -1 0.82326784E-01 0.10042184E+04</pdfrwt>
<totfact> 0.46644846E+00</totfact>
</mgrwt>
</event>
<event>
12    1  0.8033771E-008  0.5417594E+03  0.7818608E-02  0.1003419E+00
         -4   -1    0    0    0  501 -0.00000000000E+00  0.00000000000E+00  0.15446710941E+03  0.15446710941E+03  0.00000000000E+00 0.  1.
          4   -1    0    0  501    0  0.00000000000E+00 -0.00000000000E+00 -0.25933776842E+04  0.25933776842E+04  0.00000000000E+00 0. -1.
         23    2    1    2    0    0  0.32666940368E+03  0.35885708575E+03 -0.92298709885E+03  0.10467953191E+04  0.91563901687E+02 0.  0.
    5000000    2    1    2    0    0 -0.32666940368E+03 -0.35885708575E+03 -0.15159234759E+04  0.17010494745E+04  0.60004501714E+03 0.  0.
         23    2    4    4    0    0  0.56787092332E+02 -0.13642787091E+03 -0.74162450704E+02  0.18990439241E+03  0.93414513582E+02 0.  0.
         23    2    4    4    0    0 -0.38345649601E+03 -0.22242921484E+03 -0.14417610252E+04  0.15111450821E+04  0.91492979859E+02 0.  0.
          1    1    3    3  502    0  0.20427195537E+03  0.20404721136E+03 -0.63637572967E+03  0.69881067932E+03  0.00000000000E+00 0. -1.
         -1    1    3    3    0  502  0.12239744831E+03  0.15480987439E+03 -0.28661136918E+03  0.34798463975E+03  0.00000000000E+00 0.  1.
         15    1    5    5    0    0  0.28186662018E+02 -0.80201955750E+02 -0.91047138578E+02  0.12457760952E+03  0.17770000000E+01 0. -1.
        -15    1    5    5    0    0  0.28600430314E+02 -0.56225915157E+02  0.16884687874E+02  0.65326782892E+02  0.17770000000E+01 0.  1.
          1    1    6    6  503    0 -0.29211534028E+03 -0.20353784227E+03 -0.12108155172E+04  0.12620749748E+04  0.00000000000E+00 0. -1.
         -1    1    6    6    0  503 -0.91341155734E+02 -0.18891372572E+02 -0.23094550803E+03  0.24907010733E+03  0.00000000000E+00 0.  1.
<mgrwt>
<rscale>  0 0.54175943E+03</rscale>
<asrwt>0</asrwt>
<pdfrwt beam="1">  1        4 0.39898122E+00 0.54175943E+03</pdfrwt>
<pdfrwt beam="2">  1       -4 0.23764169E-01 0.54175943E+03</pdfrwt>
<totfact> 0.24832686E-01</totfact>
</mgrwt>
</event>
<event>
12    1  0.8033771E-008  0.9859077E+03  0.7818608E-02  0.9324137E-01
         -2   -1    0    0    0  501 -0.00000000000E+00  0.00000000000E+00  0.89969645272E+03  0.89969645272E+03  0.00000000000E+00 0.  1.
          2   -1    0    0  501    0  0.00000000000E+00 -0.00000000000E+00 -0.13569408337E+04  0.13569408337E+04  0.00000000000E+00 0. -1.
         23    2    1    2    0    0 -0.69602222430E+03  0.68015357844E+03 -0.52250499640E+03  0.11112591770E+04  0.12177709212E+03 0.  0.
    5000000    2    1    2    0    0  0.69602222430E+03 -0.68015357844E+03  0.65260615401E+02  0.11453781095E+04  0.60048000693E+03 0.  0.
         23    2    4    4    0    0  0.23342830001E+03 -0.26625254536E+03  0.30289932638E+03  0.47465080365E+03  0.90366997991E+02 0.  0.
         23    2    4    4    0    0  0.46259392429E+03 -0.41390103308E+03 -0.23763871098E+03  0.67072730581E+03  0.89976429315E+02 0.  0.
          1    1    3    3  502    0 -0.36541802887E+03  0.44098083653E+03 -0.30626384467E+03  0.64945513822E+03  0.00000000000E+00 0. -1.
         -1    1    3    3    0  502 -0.33060419543E+03  0.23917274191E+03 -0.21624115173E+03  0.46180403876E+03  0.00000000000E+00 0.  1.
         15    1    5    5    0    0  0.55811773153E+01 -0.50977383856E+02  0.33068638725E+02  0.61045358555E+02  0.17770000000E+01 0. -1.
        -15    1    5    5    0    0  0.22784712270E+03 -0.21527516151E+03  0.26983068765E+03  0.41360544509E+03  0.17770000000E+01 0.  1.
          3    1    6    6  503    0  0.15414541709E+03 -0.19243628402E+03 -0.11154054666E+03  0.27061749124E+03  0.00000000000E+00 0. -1.
         -3    1    6    6    0  503  0.30844850720E+03 -0.22146474906E+03 -0.12609816431E+03  0.40010981457E+03  0.00000000000E+00 0.  1.
<mgrwt>
<rscale>  0 0.98590766E+03</rscale>
<asrwt>0</asrwt>
<pdfrwt beam="1">  1        2 0.20876013E+00 0.98590766E+03</pdfrwt>
<pdfrwt beam="2">  1       -2 0.13841484E+00 0.98590766E+03</pdfrwt>
<totfact> 0.56320178E+00</totfact>
</mgrwt>
</event>
<event>
12    1  0.8033771E-008  0.2068023E+04  0.7818608E-02  0.8575462E-01
          1   -1    0    0  501    0  0.00000000000E+00  0.00000000000E+00  0.18349975725E+04  0.18349975725E+04  0.00000000000E+00 0. -1.
         -1   -1    0    0    0  501 -0.00000000000E+00 -0.00000000000E+00 -0.26755726616E+04  0.26755726616E+04  0.00000000000E+00 0.  1.
         23    2    1    2    0    0 -0.20266740713E+04  0.40613281110E+03 -0.10993969288E+04  0.23428785252E+04  0.89747005468E+02 0.  0.
    5000000    2    1    2    0    0  0.20266740713E+04 -0.40613281110E+03  0.25882183975E+03  0.21676917088E+04  0.59962233795E+03 0.  0.
         23    2    4    4    0    0  0.13738951918E+04 -0.27960856644E+03  0.44079948166E+03  0.14725622936E+04  0.91468994667E+02 0.  0.
         23    2    4    4    0    0  0.65277887953E+03 -0.12652424465E+03 -0.18197764191E+03  0.69512941525E+03  0.89221027442E+02 0.  0.
          4    1    3    3  502    0 -0.11609856463E+03  0.43169300439E+02 -0.75480609761E+02  0.14505098297E+03  0.00000000000E+00 0. -1.
         -4    1    3    3    0  502 -0.19105755067E+04  0.36296351066E+03 -0.10239163191E+04  0.21978275422E+04  0.00000000000E+00 0.  1.
         15    1    5    5    0    0  0.51801073841E+03 -0.99013771483E+02  0.12008975674E+03  0.54089144887E+03  0.17770000000E+01 0. -1.
        -15    1    5    5    0    0  0.85588445339E+03 -0.18059479496E+03  0.32070972492E+03  0.93167084473E+03  0.17770000000E+01 0.  1.
          2    1    6    6  503    0  0.33684945883E+03 -0.53809902181E+02 -0.48557989922E+02  0.34455905426E+03  0.00000000000E+00 0. -1.
         -2    1    6    6    0  503  0.31592942070E+03 -0.72714342472E+02 -0.13341965199E+03  0.35057036099E+03  0.00000000000E+00 0.  1.
<mgrwt>
<rscale>  0 0.20680225E+04</rscale>
<asrwt>0</asrwt>
<pdfrwt beam="1">  1        1 0.28230732E+00 0.20680225E+04</pdfrwt>
<pdfrwt beam="2">  1       -1 0.41162656E+00 0.20680225E+04</pdfrwt>
<totfact> 0.20264436E-02</totfact>
</mgrwt>
</event>
<event>
12    1  0.8033771E-008  0.1515607E+04  0.7818608E-02  0.8874140E-01
          1   -1    0    0  501    0  0.00000000000E+00  0.00000000000E+00  0.23384157433E+04  0.23384157433E+04  0.00000000000E+00 0. -1.
         -1   -1    0    0    0  501 -0.00000000000E+00 -0.00000000000E+00 -0.11296461618E+04  0.11296461618E+04  0.00000000000E+00 0.  1.
         23    2    1    2    0    0  0.11928971369E+04  0.87934634777E+03  0.36344555257E+02  0.14852886699E+04  0.92238427250E+02 0.  0.
    5000000    2    1    2    0    0 -0.11928971369E+04 -0.87934634777E+03  0.11724250263E+04  0.19827732353E+04  0.60046288956E+03 0.  0.
         23    2    4    4    0    0 -0.12262994836E+04 -0.85146023554E+03  0.11323260737E+04  0.18758731008E+04  0.89121247558E+02 0.  0.
         23    2    4    4    0    0  0.33402346691E+02 -0.27886112236E+02  0.40098952514E+02  0.10690013449E+03  0.89030111434E+02 0.  0.
          1    1    3    3  502    0  0.37477160204E+03  0.24918569355E+03  0.47450975911E+02  0.45254707896E+03  0.00000000000E+00 0. -1.
         -1    1    3    3    0  502  0.81812553491E+03  0.63016065423E+03 -0.11106420654E+02  0.10327415909E+04  0.00000000000E+00 0.  1.
         15    1    5    5    0    0 -0.44514593481E+03 -0.36070482850E+03  0.44472808246E+03  0.72529242491E+03  0.17770000000E+01 0.  1.
        -15    1    5    5    0    0 -0.78115354882E+03 -0.49075540704E+03  0.68759799128E+03  0.11505806759E+04  0.17770000000E+01 0. -1.
          3    1    6    6  503    0  0.38425580856E+02 -0.28652236284E+02 -0.16030160102E+02  0.50541487326E+02  0.00000000000E+00 0. -1.
         -3    1    6    6    0  503 -0.50232341649E+01  0.76612404843E+00  0.56129112616E+02  0.56358647168E+02  0.00000000000E+00 0.  1.
<mgrwt>
<rscale>  0 0.15156068E+04</rscale>
<asrwt>0</asrwt>
<pdfrwt beam="1">  1        1 0.35975627E+00 0.15156068E+04</pdfrwt>
<pdfrwt beam="2">  1       -1 0.17379172E+00 0.15156068E+04</pdfrwt>
<totfact> 0.38229364E-01</totfact>
</mgrwt>
</event>
<event>
12    1  0.8033771E-008  0.9180180E+03  0.7818608E-02  0.9403334E-01
         -1   -1    0    0    0  501 -0.00000000000E+00  0.00000000000E+00  0.45100998363E+03  0.45100998363E+03  0.00000000000E+00 0.  1.
          1   -1    0    0  501    0  0.00000000000E+00 -0.00000000000E+00 -0.19049155421E+04  0.19049155421E+04  0.00000000000E+00 0. -1.
         23    2    1    2    0    0 -0.53902479491E+03  0.62621489824E+03 -0.70109871077E+03  0.10871765039E+04  0.87866489904E+02 0.  0.
    5000000    2    1    2    0    0  0.53902479491E+03 -0.62621489824E+03 -0.75280684773E+03  0.12687490219E+04  0.60026086180E+03 0.  0.
         23    2    4    4    0    0  0.34045684490E+03  0.17353714595E+01 -0.29397976839E+03  0.46080552910E+03  0.10001878163E+03 0.  0.
         23    2    4    4    0    0  0.19856795001E+03 -0.62795026970E+03 -0.45882707934E+03  0.80794349277E+03  0.92193420492E+02 0.  0.
          3    1    3    3  502    0 -0.47586524984E+03  0.50810235333E+03 -0.60536878062E+03  0.92254381903E+03  0.00000000000E+00 0. -1.
         -3    1    3    3    0  502 -0.63159545067E+02  0.11811254491E+03 -0.95729930151E+02  0.16463268486E+03  0.00000000000E+00 0.  1.
         15    1    5    5    0    0  0.30309451441E+03  0.17733747314E+02 -0.21522440989E+03  0.37216323677E+03  0.17770000000E+01 0.  1.
        -15    1    5    5    0    0  0.37362330485E+02 -0.15998375854E+02 -0.78755358493E+02  0.88642292330E+02  0.17770000000E+01 0. -1.
          4    1    6    6  503    0  0.16722501844E+03 -0.58532719824E+03 -0.39790646049E+03  0.72725627333E+03  0.00000000000E+00 0.  1.
         -4    1    6    6    0  503  0.31342931567E+02 -0.42623071456E+02 -0.60920618850E+02  0.80687219437E+02  0.00000000000E+00 0. -1.
<mgrwt>
<rscale>  0 0.91801797E+03</rscale>
<asrwt>0</asrwt>
<pdfrwt beam="1">  1        1 0.29306393E+00 0.91801797E+03</pdfrwt>
<pdfrwt beam="2">  1       -1 0.69386151E-01 0.91801797E+03</pdfrwt>
<totfact> 0.74138342E+00</totfact>
</mgrwt>
</event>
<event>
12    1  0.8033771E-008  0.1380724E+04  0.7818608E-02  0.8967891E-01
          1   -1    0    0  501    0  0.00000000000E+00  0.00000000000E+00  0.29138529176E+04  0.29138529176E+04  0.00000000000E+00 0. -1.
         -1   -1    0    0    0  501 -0.00000000000E+00 -0.00000000000E+00 -0.66798113562E+03  0.66798113562E+03  0.00000000000E+00 0.  1.
         23    2    1    2    0    0  0.10374966616E+04  0.82720029666E+03  0.97950112531E+03  0.16519190587E+04  0.93565316622E+02 0.  0.
    5000000    2    1    2    0    0 -0.10374966616E+04 -0.82720029666E+03  0.12663706567E+04  0.19299149945E+04  0.60018129957E+03 0.  0.
         23    2    4    4    0    0 -0.10118322448E+04 -0.86778461601E+03  0.10835781285E+04  0.17203432476E+04  0.92653642919E+02 0.  0.
         23    2    4    4    0    0 -0.25664416805E+02  0.40584319355E+02  0.18279252823E+03  0.20957174697E+03  0.90561909672E+02 0.  0.
          1    1    3    3  502    0  0.69528934874E+03  0.50595578441E+03  0.66300761192E+03  0.10858165719E+04  0.00000000000E+00 0. -1.
         -1    1    3    3    0  502  0.34220731286E+03  0.32124451224E+03  0.31649351339E+03  0.56610248687E+03  0.00000000000E+00 0.  1.
         15    1    5    5    0    0 -0.41887498507E+03 -0.38597147242E+03  0.51596468978E+03  0.76853949116E+03  0.17770000000E+01 0.  1.
        -15    1    5    5    0    0 -0.59295725972E+03 -0.48181314359E+03  0.56761343867E+03  0.95180375639E+03  0.17770000000E+01 0. -1.
          1    1    6    6  503    0 -0.54024198894E+02  0.44427392252E+02  0.15315853776E+03  0.16837441889E+03  0.00000000000E+00 0. -1.
         -1    1    6    6    0  503  0.28359782089E+02 -0.38430728979E+01  0.29633990467E+02  0.41197328074E+02  0.00000000000E+00 0.  1.
<mgrwt>
<rscale>  0 0.13807237E+04</rscale>
<asrwt>0</asrwt>
<pdfrwt beam="1">  1        1 0.44828506E+00 0.13807237E+04</pdfrwt>
<pdfrwt beam="2">  1       -1 0.10276633E+00 0.13807237E+04</pdfrwt>
<totfact> 0.60030377E-01</totfact>
</mgrwt>
</event>
<event>
12    1  0.8033771E-008  0.1012748E+04  0.7818608E-02  0.9294672E-01
         -1   -1    0    0    0  501 -0.00000000000E+00  0.00000000000E+00  0.18282019532E+04  0.18282019532E+04  0.00000000000E+00 0.  1.
          1   -1    0    0  501    0  0.00000000000E+00 -0.00000000000E+00 -0.64844265381E+03  0.64844265381E+03  0.00000000000E+00 0. -1.
         23    2    1    2    0    0 -0.29285879626E+02  0.95891672223E+03  0.88200773703E+03  0.13066843167E+04  0.95432239613E+02 0.  0.
    5000000    2    1    2    0    0  0.29285879626E+02 -0.95891672223E+03  0.29775156233E+03  0.11699602903E+04  0.59981009083E+03 0.  0.
         23    2    4    4    0    0  0.24265719204E+03 -0.45473536927E+03 -0.30438427191E+02  0.52505951215E+03  0.95363643661E+02 0.  0.
         23    2    4    4    0    0 -0.21337131241E+03 -0.50418135296E+03  0.32818998952E+03  0.64490077815E+03  0.91990166864E+02 0.  0.
          3    1    3    3  502    0  0.14497692972E+02  0.75106585364E+02  0.98942404482E+02  0.12506311075E+03  0.00000000000E+00 0. -1.
         -3    1    3    3    0  502 -0.43783572598E+02  0.88381013687E+03  0.78306533255E+03  0.11816212059E+04  0.00000000000E+00 0.  1.
         15    1    5    5    0    0  0.18246904144E+03 -0.35769610581E+03  0.15769463186E+02  0.40186227603E+03  0.17770000000E+01 0. -1.
        -15    1    5    5    0    0  0.60188150597E+02 -0.97039263463E+02 -0.46207890377E+02  0.12319723612E+03  0.17770000000E+01 0.  1.
          4    1    6    6  503    0 -0.89675351820E+02 -0.25173979447E+03  0.10976518251E+03  0.28889961601E+03  0.00000000000E+00 0. -1.
         -4    1    6    6    0  503 -0.12369596059E+03 -0.25244155850E+03  0.21842480701E+03  0.35600116213E+03  0.00000000000E+00 0.  1.
<mgrwt>
<rscale>  0 0.10127482E+04</rscale>
<asrwt>0</asrwt>
<pdfrwt beam="1">  1        1 0.99760409E-01 0.10127482E+04</pdfrwt>
<pdfrwt beam="2">  1       -1 0.28126184E+00 0.10127482E+04</pdfrwt>
<totfact> 0.13482624E+00</totfact>
</mgrwt>
</event>
<event>
12    1  0.8033771E-008  0.1265488E+04  0.7818608E-02  0.9057390E-01
         -1   -1    0    0    0  501 -0.00000000000E+00  0.00000000000E+00  0.15359891119E+04  0.15359891119E+04  0.00000000000E+00 0.  1.
          1   -1    0    0  501    0  0.00000000000E+00 -0.00000000000E+00 -0.18003749711E+04  0.18003749711E+04  0.00000000000E+00 0. -1.
         23    2    1    2    0    0  0.91912434861E+03 -0.81054788338E+03 -0.11702081894E+04  0.16986481549E+04  0.11933527655E+03 0.  0.
    5000000    2    1    2    0    0 -0.91912434861E+03  0.81054788338E+03  0.90582233018E+03  0.16377159282E+04  0.59985158832E+03 0.  0.
         23    2    4    4    0    0 -0.66702920688E+03  0.32429085983E+03  0.75524928492E+03  0.10624308627E+04  0.90913866441E+02 0.  0.
         23    2    4    4    0    0 -0.25209514173E+03  0.48625702355E+03  0.15057304526E+03  0.57528506542E+03  0.91009950571E+02 0.  0.
          2    1    3    3  502    0  0.50846109089E+03 -0.38091976608E+03 -0.56104120495E+03  0.84758467589E+03  0.00000000000E+00 0. -1.
         -2    1    3    3    0  502  0.41066325772E+03 -0.42962811730E+03 -0.60916698440E+03  0.85106347901E+03  0.00000000000E+00 0.  1.
         15    1    5    5    0    0 -0.54595725834E+03  0.22588662616E+03  0.58384637523E+03  0.83064664172E+03  0.17770000000E+01 0. -1.
        -15    1    5    5    0    0 -0.12107194854E+03  0.98404233673E+02  0.17140290970E+03  0.23178422101E+03  0.17770000000E+01 0.  1.
          2    1    6    6  503    0 -0.85750937933E+02  0.25897907254E+03  0.89286508503E+02  0.28704610077E+03  0.00000000000E+00 0. -1.
         -2    1    6    6    0  503 -0.16634420380E+03  0.22727795101E+03  0.61286536755E+02  0.28823896465E+03  0.00000000000E+00 0.  1.
<mgrwt>
<rscale>  0 0.12654879E+04</rscale>
<asrwt>0</asrwt>
<pdfrwt beam="1">  1        1 0.27698076E+00 0.12654879E+04</pdfrwt>
<pdfrwt beam="2">  1       -1 0.23630602E+00 0.12654879E+04</pdfrwt>
<totfact> 0.33942963E-01</totfact>
</mgrwt>
</event>
<event>
12    1  0.8033771E-008  0.7596444E+03  0.7818608E-02  0.9620340E-01
          2   -1    0    0  501    0  0.00000000000E+00  0.00000000000E+00  0.91723170272E+03  0.91723170272E+03  0.00000000000E+00 0. -1.
         -2   -1    0    0    0  501 -0.00000000000E+00 -0.00000000000E+00 -0.72373531610E+03  0.72373531610E+03  0.00000000000E+00 0.  1.
         23    2    1    2    0    0  0.66286926063E+03  0.20739617277E+03  0.17922781328E+03  0.72303023317E+03  0.90781495140E+02 0.  0.
    5000000    2    1    2    0    0 -0.66286926063E+03 -0.20739617277E+03  0.14268573340E+02  0.91793678565E+03  0.59999626756E+03 0.  0.
         23    2    4    4    0    0 -0.15404477439E+03 -0.25974831809E+03  0.19142238588E+03  0.36905287115E+03  0.91424890613E+02 0.  0.
         23    2    4    4    0    0 -0.50882448624E+03  0.52352145316E+02 -0.17715381254E+03  0.54888391450E+03  0.90812848079E+02 0.  0.
          4    1    3    3  502    0  0.30326677575E+03  0.66662334710E+02  0.11735669384E+03  0.33194457027E+03  0.00000000000E+00 0. -1.
         -4    1    3    3    0  502  0.35960248488E+03  0.14073383806E+03  0.61871119443E+02  0.39108566290E+03  0.00000000000E+00 0.  1.
         15    1    5    5    0    0 -0.11000860423E+03 -0.22095531421E+03  0.11400235838E+03  0.27188754905E+03  0.17770000000E+01 0.  1.
        -15    1    5    5    0    0 -0.44036170161E+02 -0.38793003877E+02  0.77420027503E+02  0.97165322105E+02  0.17770000000E+01 0. -1.
          1    1    6    6  503    0 -0.71108855553E+02  0.34398214875E+02 -0.84628073339E+01  0.79443852076E+02  0.00000000000E+00 0. -1.
         -1    1    6    6    0  503 -0.43771563069E+03  0.17953930441E+02 -0.16869100520E+03  0.46944006242E+03  0.00000000000E+00 0.  1.
<mgrwt>
<rscale>  0 0.75964439E+03</rscale>
<asrwt>0</asrwt>
<pdfrwt beam="1">  1        2 0.14111257E+00 0.75964439E+03</pdfrwt>
<pdfrwt beam="2">  1       -2 0.11134389E+00 0.75964439E+03</pdfrwt>
<totfact> 0.18479682E+01</totfact>
</mgrwt>
</event>
<event>
12    1  0.8033771E-008  0.9054081E+03  0.7818608E-02  0.9418846E-01
          2   -1    0    0  501    0  0.00000000000E+00  0.00000000000E+00  0.11009689388E+04  0.11009689388E+04  0.00000000000E+00 0. -1.
         -2   -1    0    0    0  501 -0.00000000000E+00 -0.00000000000E+00 -0.10002266478E+04  0.10002266478E+04  0.00000000000E+00 0.  1.
         23    2    1    2    0    0 -0.11119201067E+03  0.86366549804E+03  0.45420236529E+03  0.98622786439E+03  0.89798976178E+02 0.  0.
    5000000    2    1    2    0    0  0.11119201067E+03 -0.86366549804E+03 -0.35346007425E+03  0.11149677221E+04  0.59994769905E+03 0.  0.
         23    2    4    4    0    0  0.21660086534E+03 -0.46064171980E+03  0.60901215786E+02  0.52056604003E+03  0.90406388410E+02 0.  0.
         23    2    4    4    0    0 -0.10540885467E+03 -0.40302377824E+03 -0.41436129004E+03  0.59440168211E+03  0.89882637611E+02 0.  0.
          1    1    3    3  502    0 -0.12374328288E+03  0.71036702196E+03  0.38730959623E+03  0.81850010951E+03  0.00000000000E+00 0. -1.
         -1    1    3    3    0  502  0.12551272208E+02  0.15329847608E+03  0.66892769058E+02  0.16772775488E+03  0.00000000000E+00 0.  1.
         15    1    5    5    0    0  0.87476393334E+02 -0.14669518360E+03  0.60177775755E+02  0.18109698702E+03  0.17770000000E+01 0.  1.
        -15    1    5    5    0    0  0.12912447201E+03 -0.31394653620E+03  0.72344003081E+00  0.33946905301E+03  0.17770000000E+01 0. -1.
          4    1    6    6  503    0 -0.93894411106E+02 -0.18617848873E+03 -0.21738752417E+03  0.30122404580E+03  0.00000000000E+00 0. -1.
         -4    1    6    6    0  503 -0.11514443567E+02 -0.21684528951E+03 -0.19697376588E+03  0.29317763632E+03  0.00000000000E+00 0.  1.
<mgrwt>
<rscale>  0 0.90540809E+03</rscale>
<asrwt>0</asrwt>
<pdfrwt beam="1">  1        2 0.16937984E+00 0.90540809E+03</pdfrwt>
<pdfrwt beam="2">  1       -2 0.15388102E+00 0.90540809E+03</pdfrwt>
<totfact> 0.60959712E+00</totfact>
</mgrwt>
</event>
<event>
12    1  0.8033771E-008  0.5215315E+03  0.7818608E-02  0.1008307E+00
          2   -1    0    0  501    0  0.00000000000E+00  0.00000000000E+00  0.27861768089E+04  0.27861768089E+04  0.00000000000E+00 0.  1.
         -2   -1    0    0    0  501 -0.00000000000E+00 -0.00000000000E+00 -0.12398857260E+03  0.12398857260E+03  0.00000000000E+00 0. -1.
         23    2    1    2    0    0  0.42022654152E+03  0.72606136624E+02  0.10978742046E+04  0.11813310921E+04  0.91396842097E+02 0.  0.
    5000000    2    1    2    0    0 -0.42022654152E+03 -0.72606136624E+02  0.15643140317E+04  0.17288342894E+04  0.59993967460E+03 0.  0.
         23    2    4    4    0    0 -0.50634910177E+03 -0.96996371645E+02  0.81503425400E+03  0.96882813833E+03  0.92463059890E+02 0.  0.
         23    2    4    4    0    0  0.86122560249E+02  0.24390235021E+02  0.74927977769E+03  0.76000615107E+03  0.90427791377E+02 0.  0.
          1    1    3    3  502    0  0.25240097001E+03  0.23312468185E+02  0.53704132277E+03  0.59385444613E+03  0.00000000000E+00 0. -1.
         -1    1    3    3    0  502  0.16782557151E+03  0.49293668440E+02  0.56083288183E+03  0.58747664596E+03  0.00000000000E+00 0.  1.
         15    1    5    5    0    0 -0.99326681843E+02  0.11174627665E+02  0.12039520104E+03  0.15648905454E+03  0.17770000000E+01 0. -1.
        -15    1    5    5    0    0 -0.40702241993E+03 -0.10817099931E+03  0.69463905296E+03  0.81233908379E+03  0.17770000000E+01 0.  1.
          1    1    6    6  503    0  0.39150508655E+02  0.25217944621E+02  0.63132216190E+03  0.63303742320E+03  0.00000000000E+00 0.  1.
         -1    1    6    6    0  503  0.46972051595E+02 -0.82770959962E+00  0.11795761579E+03  0.12696872787E+03  0.00000000000E+00 0. -1.
<mgrwt>
<rscale>  0 0.52153150E+03</rscale>
<asrwt>0</asrwt>
<pdfrwt beam="1">  1        2 0.42864254E+00 0.52153150E+03</pdfrwt>
<pdfrwt beam="2">  1       -2 0.19075167E-01 0.52153150E+03</pdfrwt>
<totfact> 0.59479149E+01</totfact>
</mgrwt>
</event>
<event>
12    1  0.8033771E-008  0.1139464E+04  0.7818608E-02  0.9167559E-01
          2   -1    0    0  501    0  0.00000000000E+00  0.00000000000E+00  0.18472785270E+04  0.18472785270E+04  0.00000000000E+00 0. -1.
         -2   -1    0    0    0  501 -0.00000000000E+00 -0.00000000000E+00 -0.74108093401E+03  0.74108093401E+03  0.00000000000E+00 0.  1.
         23    2    1    2    0    0  0.10468824740E+04  0.27366670021E+03  0.36288161307E+03  0.11449455361E+04  0.91437619250E+02 0.  0.
    5000000    2    1    2    0    0 -0.10468824740E+04 -0.27366670021E+03  0.74331597994E+03  0.14434139249E+04  0.60005727680E+03 0.  0.
         23    2    4    4    0    0 -0.96818536784E+03 -0.71149647114E+02  0.46948907146E+03  0.10821155067E+04  0.90048891426E+02 0.  0.
         23    2    4    4    0    0 -0.78697106201E+02 -0.20251705310E+03  0.27382690847E+03  0.36129841824E+03  0.91372752485E+02 0.  0.
          1    1    3    3  502    0  0.10740124531E+03  0.12740070423E+02  0.61351782882E+02  0.12434379016E+03  0.00000000000E+00 0. -1.
         -1    1    3    3    0  502  0.93948122873E+03  0.26092662979E+03  0.30152983018E+03  0.10206017459E+04  0.00000000000E+00 0.  1.
         15    1    5    5    0    0 -0.30459678935E+03 -0.16683680322E+02  0.19419819439E+03  0.36162638966E+03  0.17770000000E+01 0.  1.
        -15    1    5    5    0    0 -0.66358857850E+03 -0.54465966792E+02  0.27529087707E+03  0.72048911704E+03  0.17770000000E+01 0. -1.
          4    1    6    6  503    0  0.84952613428E+01 -0.79276064132E+01  0.53260633781E+02  0.54513406787E+02  0.00000000000E+00 0.  1.
         -4    1    6    6    0  503 -0.87192367544E+02 -0.19458944669E+03  0.22056627469E+03  0.30678501145E+03  0.00000000000E+00 0. -1.
<mgrwt>
<rscale>  0 0.11394642E+04</rscale>
<asrwt>0</asrwt>
<pdfrwt beam="1">  1        2 0.28419670E+00 0.11394642E+04</pdfrwt>
<pdfrwt beam="2">  1       -2 0.11401245E+00 0.11394642E+04</pdfrwt>
<totfact> 0.48049239E+00</totfact>
</mgrwt>
</event>
<event>
12    1  0.8033771E-008  0.5754202E+03  0.7818608E-02  0.9957756E-01
         -2   -1    0    0    0  501 -0.00000000000E+00  0.00000000000E+00  0.33095351000E+03  0.33095351000E+03  0.00000000000E+00 0.  1.
          2   -1    0    0  501    0  0.00000000000E+00 -0.00000000000E+00 -0.14148939603E+04  0.14148939603E+04  0.00000000000E+00 0. -1.
         23    2    1    2    0    0 -0.40357508154E+03  0.16669955408E+03 -0.16092910226E+02  0.44547453944E+03  0.86758260457E+02 0.  0.
    5000000    2    1    2    0    0  0.40357508154E+03 -0.16669955408E+03 -0.10678475401E+04  0.13003729309E+04  0.60000816885E+03 0.  0.
         23    2    4    4    0    0 -0.40547089909E+02  0.14547050962E+03 -0.39404692786E+03  0.43031289403E+03  0.84204927044E+02 0.  0.
         23    2    4    4    0    0  0.44412217145E+03 -0.31217006371E+03 -0.67380061226E+03  0.87006003687E+03  0.91118334185E+02 0.  0.
          4    1    3    3  502    0 -0.24537112215E+03  0.88374574994E+02  0.31352525512E+02  0.26267857534E+03  0.00000000000E+00 0. -1.
         -4    1    3    3    0  502 -0.15820395940E+03  0.78324979090E+02 -0.47445435738E+02  0.18279596410E+03  0.00000000000E+00 0.  1.
         15    1    5    5    0    0 -0.50450190094E+02  0.66567033630E+02 -0.12986935594E+03  0.15442020266E+03  0.17770000000E+01 0. -1.
        -15    1    5    5    0    0  0.99031001852E+01  0.78903475993E+02 -0.26417757192E+03  0.27589269137E+03  0.17770000000E+01 0.  1.
          2    1    6    6  503    0  0.40649400027E+03 -0.31259855983E+03 -0.62998120852E+03  0.81230016309E+03  0.00000000000E+00 0. -1.
         -2    1    6    6    0  503  0.37628171178E+02  0.42849611887E+00 -0.43819403738E+02  0.57759873780E+02  0.00000000000E+00 0.  1.
<mgrwt>
<rscale>  0 0.57542018E+03</rscale>
<asrwt>0</asrwt>
<pdfrwt beam="1">  1        2 0.21767599E+00 0.57542018E+03</pdfrwt>
<pdfrwt beam="2">  1       -2 0.50915926E-01 0.57542018E+03</pdfrwt>
<totfact> 0.53856263E+01</totfact>
</mgrwt>
</event>
<event>
12    1  0.8033771E-008  0.5396769E+03  0.7818608E-02  0.1003912E+00
          1   -1    0    0  501    0  0.00000000000E+00  0.00000000000E+00  0.14310288990E+04  0.14310288990E+04  0.00000000000E+00 0. -1.
         -1   -1    0    0    0  501 -0.00000000000E+00 -0.00000000000E+00 -0.33460638787E+03  0.33460638787E+03  0.00000000000E+00 0.  1.
         23    2    1    2    0    0 -0.37897586847E+03 -0.35722136523E+02 -0.72256032984E+02  0.39795765185E+03  0.90832694833E+02 0.  0.
    5000000    2    1    2    0    0  0.37897586847E+03  0.35722136523E+02  0.11686785441E+04  0.13676776350E+04  0.59986147892E+03 0.  0.
         23    2    4    4    0    0 -0.13928134426E+03 -0.38243258247E+02  0.37974129428E+03  0.41653308006E+03  0.91839624035E+02 0.  0.
         23    2    4    4    0    0  0.51825721273E+03  0.73965394769E+02  0.78893724979E+03  0.95114455490E+03  0.90512772830E+02 0.  0.
          1    1    3    3  502    0 -0.18170383940E+03  0.28160236046E+02 -0.38718923763E+02  0.18790539962E+03  0.00000000000E+00 0. -1.
         -1    1    3    3    0  502 -0.19727202906E+03 -0.63882372568E+02 -0.33537109221E+02  0.21005225224E+03  0.00000000000E+00 0.  1.
         15    1    5    5    0    0 -0.10208756130E+02  0.16525755572E+02  0.11795877047E+03  0.11956064803E+03  0.17770000000E+01 0.  1.
        -15    1    5    5    0    0 -0.12907258813E+03 -0.54769013819E+02  0.26178252381E+03  0.29697243202E+03  0.17770000000E+01 0. -1.
          1    1    6    6  503    0  0.38905422441E+03  0.23758238568E+02  0.53635583371E+03  0.66302731753E+03  0.00000000000E+00 0. -1.
         -1    1    6    6    0  503  0.12920298832E+03  0.50207156202E+02  0.25258141608E+03  0.28811723738E+03  0.00000000000E+00 0.  1.
<mgrwt>
<rscale>  0 0.53967692E+03</rscale>
<asrwt>0</asrwt>
<pdfrwt beam="1">  1        1 0.22015829E+00 0.53967692E+03</pdfrwt>
<pdfrwt beam="2">  1       -1 0.51477907E-01 0.53967692E+03</pdfrwt>
<totfact> 0.29492654E+01</totfact>
</mgrwt>
</event>
<event>
12    1  0.8033771E-008  0.4562498E+03  0.7818608E-02  0.1025875E+00
          1   -1    0    0  501    0  0.00000000000E+00  0.00000000000E+00  0.25241163466E+04  0.25241163466E+04  0.00000000000E+00 0. -1.
         -1   -1    0    0    0  501 -0.00000000000E+00 -0.00000000000E+00 -0.92055171001E+02  0.92055171001E+02  0.00000000000E+00 0.  1.
         23    2    1    2    0    0  0.49033968867E+02  0.26975300583E+03  0.90926475545E+03  0.95662490346E+03  0.11488166148E+03 0.  0.
    5000000    2    1    2    0    0 -0.49033968867E+02 -0.26975300583E+03  0.15227964201E+04  0.16595466141E+04  0.60001251073E+03 0.  0.
         23    2    4    4    0    0  0.20098490202E+03  0.56399129916E+02  0.39037677768E+03  0.45147213761E+03  0.88641242038E+02 0.  0.
         23    2    4    4    0    0 -0.25001887089E+03 -0.32615213575E+03  0.11324196424E+04  0.12080744765E+04  0.90471226060E+02 0.  0.
          2    1    3    3  502    0  0.26458898388E+02  0.16418413816E+03  0.71789075580E+03  0.73690137861E+03  0.00000000000E+00 0. -1.
         -2    1    3    3    0  502  0.22575070479E+02  0.10556886768E+03  0.19137399965E+03  0.21972352485E+03  0.00000000000E+00 0.  1.
         15    1    5    5    0    0  0.94176186491E+01  0.27209346168E+02  0.26313851011E+02  0.39046338419E+02  0.17770000000E+01 0.  1.
        -15    1    5    5    0    0  0.19156728338E+03  0.29189783748E+02  0.36406292667E+03  0.41242579919E+03  0.17770000000E+01 0. -1.
          3    1    6    6  503    0 -0.28858277352E+02 -0.78194303575E+02  0.15916608471E+03  0.17966911756E+03  0.00000000000E+00 0. -1.
         -3    1    6    6    0  503 -0.22116059354E+03 -0.24795783218E+03  0.97325355772E+03  0.10284053589E+04  0.00000000000E+00 0.  1.
<mgrwt>
<rscale>  0 0.45624980E+03</rscale>
<asrwt>0</asrwt>
<pdfrwt beam="1">  1        1 0.38832554E+00 0.45624980E+03</pdfrwt>
<pdfrwt beam="2">  1       -1 0.14162336E-01 0.45624980E+03</pdfrwt>
<totfact> 0.51480936E+01</totfact>
</mgrwt>
</event>
<event>
12    1  0.8033771E-008  0.1445312E+04  0.7818608E-02  0.8921657E-01
          1   -1    0    0  501    0  0.00000000000E+00  0.00000000000E+00  0.19039966700E+04  0.19039966700E+04  0.00000000000E+00 0. -1.
         -1   -1    0    0    0  501 -0.00000000000E+00 -0.00000000000E+00 -0.12231160061E+04  0.12231160061E+04  0.00000000000E+00 0.  1.
         23    2    1    2    0    0  0.28136697397E+03 -0.13961275903E+04 -0.26300739044E+02  0.14273596199E+04  0.91236687137E+02 0.  0.
    5000000    2    1    2    0    0 -0.28136697397E+03  0.13961275903E+04  0.70718140295E+03  0.16997530563E+04  0.60059578181E+03 0.  0.
         23    2    4    4    0    0 -0.15298661381E+03  0.22561323218E+03 -0.57540865790E+02  0.29277230089E+03  0.89991301759E+02 0.  0.
         23    2    4    4    0    0 -0.12838036017E+03  0.11705143581E+04  0.76472226874E+03  0.14069807554E+04  0.90605288049E+02 0.  0.
          3    1    3    3  502    0  0.24938190615E+03 -0.11090270742E+04  0.55392604712E+01  0.11367335087E+04  0.00000000000E+00 0. -1.
         -3    1    3    3    0  502  0.31985067823E+02 -0.28710051615E+03 -0.31839999516E+02  0.29062611119E+03  0.00000000000E+00 0.  1.
         15    1    5    5    0    0 -0.22758428734E+02  0.11177124388E+03 -0.22297224288E+02  0.11623717554E+03  0.17770000000E+01 0.  1.
        -15    1    5    5    0    0 -0.13022818507E+03  0.11384198830E+03 -0.35243641502E+02  0.17653512535E+03  0.17770000000E+01 0. -1.
          2    1    6    6  503    0 -0.10566458925E+03  0.10522439973E+04  0.65424109774E+03  0.12435488930E+04  0.00000000000E+00 0. -1.
         -2    1    6    6    0  503 -0.22715770913E+02  0.11827036086E+03  0.11048117101E+03  0.16343186242E+03  0.00000000000E+00 0.  1.
<mgrwt>
<rscale>  0 0.14453123E+04</rscale>
<asrwt>0</asrwt>
<pdfrwt beam="1">  1        1 0.29292256E+00 0.14453123E+04</pdfrwt>
<pdfrwt beam="2">  1       -1 0.18817169E+00 0.14453123E+04</pdfrwt>
<totfact> 0.60008347E-01</totfact>
</mgrwt>
</event>
<event>
12    1  0.8033771E-008  0.1372458E+04  0.7818608E-02  0.8974000E-01
          1   -1    0    0  501    0  0.00000000000E+00  0.00000000000E+00  0.30944241262E+04  0.30944241262E+04  0.00000000000E+00 0. -1.
         -1   -1    0    0    0  501 -0.00000000000E+00 -0.00000000000E+00 -0.66823761749E+03  0.66823761749E+03  0.00000000000E+00 0.  1.
         23    2    1    2    0    0 -0.13603884216E+04  0.95092902302E+02  0.94369714466E+03  0.16608856422E+04  0.90980756360E+02 0.  0.
    5000000    2    1    2    0    0  0.13603884216E+04 -0.95092902302E+02  0.14824893640E+04  0.21017761015E+04  0.59999062373E+03 0.  0.
         23    2    4    4    0    0  0.10093940251E+04 -0.11290328940E+03  0.13947608936E+04  0.17278616714E+04  0.92328514020E+02 0.  0.
         23    2    4    4    0    0  0.35099439644E+03  0.17810387103E+02  0.87728470414E+02  0.37391443003E+03  0.92743949876E+02 0.  0.
          2    1    3    3  502    0 -0.44932966366E+03 -0.21395283116E+00  0.34594898908E+03  0.56707838564E+03  0.00000000000E+00 0.  1.
         -2    1    3    3    0  502 -0.91105875792E+03  0.95306855133E+02  0.59774815559E+03  0.10938072566E+04  0.00000000000E+00 0. -1.
         15    1    5    5    0    0  0.93479518120E+03 -0.12179986466E+03  0.13180613909E+04  0.16204833309E+04  0.17770000000E+01 0.  1.
        -15    1    5    5    0    0  0.74598843936E+02  0.88965752566E+01  0.76699502686E+02  0.10737834050E+03  0.17770000000E+01 0. -1.
          2    1    6    6  503    0  0.16434017815E+03 -0.34375190319E+02  0.59124289029E+02  0.17800289160E+03  0.00000000000E+00 0. -1.
         -2    1    6    6    0  503  0.18665421829E+03  0.52185577421E+02  0.28604181384E+02  0.19591153843E+03  0.00000000000E+00 0.  1.
<mgrwt>
<rscale>  0 0.13724579E+04</rscale>
<asrwt>0</asrwt>
<pdfrwt beam="1">  1        1 0.47606524E+00 0.13724579E+04</pdfrwt>
<pdfrwt beam="2">  1       -1 0.10280579E+00 0.13724579E+04</pdfrwt>
<totfact> 0.44379971E-01</totfact>
</mgrwt>
</event>
<event>
12    1  0.8033771E-008  0.5014909E+03  0.7818608E-02  0.1013390E+00
          1   -1    0    0  501    0  0.00000000000E+00  0.00000000000E+00  0.12571268846E+04  0.12571268846E+04  0.00000000000E+00 0. -1.
         -1   -1    0    0    0  501 -0.00000000000E+00 -0.00000000000E+00 -0.28724591695E+03  0.28724591695E+03  0.00000000000E+00 0.  1.
         23    2    1    2    0    0  0.61968518427E+02  0.42464718606E+03  0.21322112215E+03  0.48774019441E+03  0.90895106616E+02 0.  0.
    5000000    2    1    2    0    0 -0.61968518427E+02 -0.42464718606E+03  0.75665984546E+03  0.10566326071E+04  0.59981081581E+03 0.  0.
         23    2    4    4    0    0 -0.19269574075E+03 -0.17744288342E+03  0.70527157974E+03  0.75777751156E+03  0.90560093058E+02 0.  0.
         23    2    4    4    0    0  0.13072722232E+03 -0.24720430264E+03  0.51388265715E+02  0.29885509554E+03  0.92054551108E+02 0.  0.
          2    1    3    3  502    0 -0.15529716651E+02  0.10858076364E+03  0.81564036836E+02  0.13668813568E+03  0.00000000000E+00 0. -1.
         -2    1    3    3    0  502  0.77498235078E+02  0.31606642242E+03  0.13165708531E+03  0.35105205872E+03  0.00000000000E+00 0.  1.
         15    1    5    5    0    0 -0.10704256353E+03 -0.14897462249E+03  0.41373274489E+03  0.45258092147E+03  0.17770000000E+01 0. -1.
        -15    1    5    5    0    0 -0.85653177218E+02 -0.28468260930E+02  0.29153883485E+03  0.30519659009E+03  0.17770000000E+01 0.  1.
          4    1    6    6  503    0  0.57047556866E+02 -0.19671133630E+03  0.29918571881E+02  0.20699008313E+03  0.00000000000E+00 0. -1.
         -4    1    6    6    0  503  0.73679665455E+02 -0.50492966340E+02  0.21469693834E+02  0.91865012408E+02  0.00000000000E+00 0.  1.
<mgrwt>
<rscale>  0 0.50149095E+03</rscale>
<asrwt>0</asrwt>
<pdfrwt beam="1">  1        1 0.19340413E+00 0.50149095E+03</pdfrwt>
<pdfrwt beam="2">  1       -1 0.44191680E-01 0.50149095E+03</pdfrwt>
<totfact> 0.52081214E+01</totfact>
</mgrwt>
</event>
<event>
12    1  0.8174306E-008  0.9726594E+03  0.7818608E-02  0.9339050E-01
         -2   -1    0    0    0  501 -0.00000000000E+00  0.00000000000E+00  0.12106743836E+04  0.12106743836E+04  0.00000000000E+00 0.  1.
          2   -1    0    0  501    0  0.00000000000E+00 -0.00000000000E+00 -0.10253295041E+04  0.10253295041E+04  0.00000000000E+00 0. -1.
         23    2    1    2    0    0  0.31541127433E+03 -0.88361999160E+03 -0.34242032877E+03  0.10036343327E+04  0.98800964736E+02 0.  0.
    5000000    2    1    2    0    0 -0.31541127433E+03  0.88361999160E+03  0.52776520825E+03  0.12323695551E+04  0.59994170030E+03 0.  0.
         23    2    4    4    0    0 -0.26920173480E+03  0.29543939387E+03 -0.37309681569E+02  0.41061415065E+03  0.86359474892E+02 0.  0.
         23    2    4    4    0    0 -0.46209539525E+02  0.58818059774E+03  0.56507488982E+03  0.82175540445E+03  0.88772611444E+02 0.  0.
          3    1    3    3  502    0  0.96764903473E+02 -0.35004015739E+03 -0.89924749562E+02  0.37413636406E+03  0.00000000000E+00 0. -1.
         -3    1    3    3    0  502  0.21864637085E+03 -0.53357983422E+03 -0.25249557921E+03  0.62949796861E+03  0.00000000000E+00 0.  1.
         15    1    5    5    0    0 -0.11772606744E+03  0.19277224367E+03 -0.23182809892E+02  0.22707083760E+03  0.17770000000E+01 0. -1.
        -15    1    5    5    0    0 -0.15147566736E+03  0.10266715020E+03 -0.14126871677E+02  0.18354331305E+03  0.17770000000E+01 0.  1.
          2    1    6    6  503    0 -0.58758073218E+02  0.20536107393E+03  0.20035474466E+03  0.29286123943E+03  0.00000000000E+00 0. -1.
         -2    1    6    6    0  503  0.12548533693E+02  0.38281952381E+03  0.36472014516E+03  0.52889416502E+03  0.00000000000E+00 0.  1.
<mgrwt>
<rscale>  0 0.97265937E+03</rscale>
<asrwt>0</asrwt>
<pdfrwt beam="1">  1        2 0.15774300E+00 0.97265937E+03</pdfrwt>
<pdfrwt beam="2">  1       -2 0.18625760E+00 0.97265937E+03</pdfrwt>
<totfact> 0.39643936E+00</totfact>
</mgrwt>
</event>
<event>
12    1  0.8033771E-008  0.1293942E+04  0.7818608E-02  0.9034383E-01
          2   -1    0    0  501    0  0.00000000000E+00  0.00000000000E+00  0.41018011346E+04  0.41018011346E+04  0.00000000000E+00 0. -1.
         -2   -1    0    0    0  501 -0.00000000000E+00 -0.00000000000E+00 -0.45058880277E+03  0.45058880277E+03  0.00000000000E+00 0.  1.
         23    2    1    2    0    0 -0.62232395374E+03  0.11318893296E+04  0.17289633211E+04  0.21600660424E+04  0.90058780998E+02 0.  0.
    5000000    2    1    2    0    0  0.62232395374E+03 -0.11318893296E+04  0.19222490108E+04  0.23923238950E+04  0.59975978615E+03 0.  0.
         23    2    4    4    0    0  0.21089113918E+03 -0.38973173033E+03  0.25638144071E+03  0.52054029146E+03  0.94153373207E+02 0.  0.
         23    2    4    4    0    0  0.41143281456E+03 -0.74215759931E+03  0.16658675701E+04  0.18717836035E+04  0.91565464382E+02 0.  0.
          1    1    3    3  502    0 -0.32742142671E+03  0.68719417740E+03  0.10226405096E+04  0.12748467516E+04  0.00000000000E+00 0. -1.
         -1    1    3    3    0  502 -0.29490252703E+03  0.44469515223E+03  0.70632281147E+03  0.88521929084E+03  0.00000000000E+00 0.  1.
         15    1    5    5    0    0  0.18991256894E+03 -0.33263348703E+03  0.25407560373E+03  0.45964050156E+03  0.17770000000E+01 0. -1.
        -15    1    5    5    0    0  0.20978570239E+02 -0.57098243302E+02  0.23058369840E+01  0.60899789906E+02  0.17770000000E+01 0.  1.
          1    1    6    6  503    0  0.16909184404E+03 -0.27260059114E+03  0.54025644804E+03  0.62831533776E+03  0.00000000000E+00 0. -1.
         -1    1    6    6    0  503  0.24234097053E+03 -0.46955700817E+03  0.11256111220E+04  0.12434682658E+04  0.00000000000E+00 0.  1.
<mgrwt>
<rscale>  0 0.12939420E+04</rscale>
<asrwt>0</asrwt>
<pdfrwt beam="1">  1        2 0.63104630E+00 0.12939420E+04</pdfrwt>
<pdfrwt beam="2">  1       -2 0.69321357E-01 0.12939420E+04</pdfrwt>
<totfact> 0.53911039E-01</totfact>
</mgrwt>
</event>
<event>
12    1  0.8033771E-008  0.9306893E+03  0.7818608E-02  0.9388011E-01
          1   -1    0    0  501    0  0.00000000000E+00  0.00000000000E+00  0.20219891974E+04  0.20219891974E+04  0.00000000000E+00 0. -1.
         -1   -1    0    0    0  501 -0.00000000000E+00 -0.00000000000E+00 -0.49832276170E+03  0.49832276170E+03  0.00000000000E+00 0.  1.
         23    2    1    2    0    0  0.83640893974E+03  0.28725077232E+03  0.41974152406E+03  0.98381489197E+03  0.98060562697E+02 0.  0.
    5000000    2    1    2    0    0 -0.83640893974E+03 -0.28725077232E+03  0.11039249116E+04  0.15364970671E+04  0.60006675133E+03 0.  0.
         23    2    4    4    0    0 -0.59491722415E+03 -0.16921173945E+01  0.94397248767E+03  0.11194366940E+04  0.90139267302E+02 0.  0.
         23    2    4    4    0    0 -0.24149171559E+03 -0.28555865493E+03  0.15995242392E+03  0.41706037310E+03  0.92155210328E+02 0.  0.
          1    1    3    3  502    0  0.60928297458E+03  0.22796442610E+03  0.26371171451E+03  0.70195255612E+03  0.00000000000E+00 0. -1.
         -1    1    3    3    0  502  0.22712596516E+03  0.59286346229E+02  0.15602980955E+03  0.28186233584E+03  0.00000000000E+00 0.  1.
         15    1    5    5    0    0 -0.43247791651E+03  0.38760928216E+02  0.68964708251E+03  0.81495755348E+03  0.17770000000E+01 0. -1.
        -15    1    5    5    0    0 -0.16243930764E+03 -0.40453045610E+02  0.25432540515E+03  0.30447914050E+03  0.17770000000E+01 0.  1.
          1    1    6    6  503    0 -0.75287011844E+02 -0.75473472317E+02  0.31243316240E+01  0.10664961615E+03  0.00000000000E+00 0. -1.
         -1    1    6    6    0  503 -0.16620470375E+03 -0.21008518261E+03  0.15682809230E+03  0.31041075696E+03  0.00000000000E+00 0.  1.
<mgrwt>
<rscale>  0 0.93068930E+03</rscale>
<asrwt>0</asrwt>
<pdfrwt beam="1">  1        1 0.31107526E+00 0.93068930E+03</pdfrwt>
<pdfrwt beam="2">  1       -1 0.76665041E-01 0.93068930E+03</pdfrwt>
<totfact> 0.50194216E+00</totfact>
</mgrwt>
</event>
<event>
12    1  0.8033771E-008  0.3955684E+03  0.7818608E-02  0.1045325E+00
          2   -1    0    0  501    0  0.00000000000E+00  0.00000000000E+00  0.11062136481E+04  0.11062136481E+04  0.00000000000E+00 0.  1.
         -2   -1    0    0    0  501 -0.00000000000E+00 -0.00000000000E+00 -0.30878527753E+03  0.30878527753E+03  0.00000000000E+00 0. -1.
         23    2    1    2    0    0  0.17823974659E+03 -0.48219593829E+02 -0.16645466850E+03  0.26460159913E+03  0.90621813630E+02 0.  0.
    5000000    2    1    2    0    0 -0.17823974659E+03  0.48219593829E+02  0.96388303909E+03  0.11503973265E+04  0.60020743026E+03 0.  0.
         23    2    4    4    0    0  0.19200676845E+03  0.61806488128E+02  0.52530244622E+03  0.57007783199E+03  0.91429937157E+02 0.  0.
         23    2    4    4    0    0 -0.37024651504E+03 -0.13586894299E+02  0.43858059287E+03  0.58031949454E+03  0.84561774506E+02 0.  0.
          4    1    3    3  502    0  0.87175685539E+02  0.31770465669E+01 -0.29071014642E+02  0.91950082471E+02  0.00000000000E+00 0.  1.
         -4    1    3    3    0  502  0.91064061051E+02 -0.51396640396E+02 -0.13738365385E+03  0.17265151666E+03  0.00000000000E+00 0. -1.
         15    1    5    5    0    0  0.35177613259E+02 -0.23609776626E+02  0.86844634881E+02  0.96643853212E+02  0.17770000000E+01 0. -1.
        -15    1    5    5    0    0  0.15682915519E+03  0.85416264754E+02  0.43845781134E+03  0.47343397877E+03  0.17770000000E+01 0.  1.
          2    1    6    6  503    0 -0.14245437181E+03  0.32070643182E+02  0.19625792517E+03  0.24462000612E+03  0.00000000000E+00 0. -1.
         -2    1    6    6    0  503 -0.22779214323E+03 -0.45657537481E+02  0.24232266770E+03  0.33569948842E+03  0.00000000000E+00 0.  1.
<mgrwt>
<rscale>  0 0.39556840E+03</rscale>
<asrwt>0</asrwt>
<pdfrwt beam="1">  1        2 0.17018671E+00 0.39556840E+03</pdfrwt>
<pdfrwt beam="2">  1       -2 0.47505428E-01 0.39556840E+03</pdfrwt>
<totfact> 0.95541218E+01</totfact>
</mgrwt>
</event>
<event>
12    1  0.8033771E-008  0.1118569E+04  0.7818608E-02  0.9187280E-01
          1   -1    0    0  501    0  0.00000000000E+00  0.00000000000E+00  0.94830819212E+03  0.94830819212E+03  0.00000000000E+00 0. -1.
         -1   -1    0    0    0  501 -0.00000000000E+00 -0.00000000000E+00 -0.22852624438E+04  0.22852624438E+04  0.00000000000E+00 0.  1.
         23    2    1    2    0    0 -0.10843206614E+04 -0.13867016518E+03 -0.16183933946E+04  0.19551346669E+04  0.91507784979E+02 0.  0.
    5000000    2    1    2    0    0  0.10843206614E+04  0.13867016518E+03  0.28143914294E+03  0.12784359690E+04  0.60017482801E+03 0.  0.
         23    2    4    4    0    0  0.35375261018E+03  0.19298113441E+03  0.34453243646E+03  0.53766963768E+03  0.89461791028E+02 0.  0.
         23    2    4    4    0    0  0.73056805119E+03 -0.54310969231E+02 -0.63093293524E+02  0.74076633129E+03  0.89858973329E+02 0.  0.
          1    1    3    3  502    0 -0.54572164881E+03 -0.23665590077E+02 -0.80646066421E+03  0.97403849054E+03  0.00000000000E+00 0. -1.
         -1    1    3    3    0  502 -0.53859901257E+03 -0.11500457511E+03 -0.81193273040E+03  0.98109617640E+03  0.00000000000E+00 0.  1.
         15    1    5    5    0    0  0.32966186142E+03  0.19392848888E+03  0.29666464670E+03  0.48404366746E+03  0.17770000000E+01 0. -1.
        -15    1    5    5    0    0  0.24090748760E+02 -0.94735446161E+00  0.47867789763E+02  0.53625970220E+02  0.17770000000E+01 0.  1.
          4    1    6    6  503    0  0.55272201037E+03 -0.25170546930E+02 -0.11916225489E+02  0.55342314156E+03  0.00000000000E+00 0. -1.
         -4    1    6    6    0  503  0.17784604082E+03 -0.29140422301E+02 -0.51177068034E+02  0.18734318974E+03  0.00000000000E+00 0.  1.
<mgrwt>
<rscale>  0 0.11185694E+04</rscale>
<asrwt>0</asrwt>
<pdfrwt beam="1">  1        1 0.14589357E+00 0.11185694E+04</pdfrwt>
<pdfrwt beam="2">  1       -1 0.35157884E+00 0.11185694E+04</pdfrwt>
<totfact> 0.25254722E-01</totfact>
</mgrwt>
</event>
<event>
12    1  0.8033771E-008  0.3908572E+03  0.7818608E-02  0.1046992E+00
         -1   -1    0    0    0  501 -0.00000000000E+00  0.00000000000E+00  0.31070950195E+03  0.31070950195E+03  0.00000000000E+00 0.  1.
          1   -1    0    0  501    0  0.00000000000E+00 -0.00000000000E+00 -0.63694196721E+03  0.63694196721E+03  0.00000000000E+00 0. -1.
         23    2    1    2    0    0 -0.20277593598E+02  0.21940879907E+03 -0.15135233407E+03  0.28463017765E+03  0.97751762581E+02 0.  0.
    5000000    2    1    2    0    0  0.20277593598E+02 -0.21940879907E+03 -0.17488013118E+03  0.66302129151E+03  0.60038551848E+03 0.  0.
         23    2    4    4    0    0  0.11221619775E+03 -0.35390414568E+03 -0.25574441036E+03  0.45956945943E+03  0.89209109629E+02 0.  0.
         23    2    4    4    0    0 -0.91938604149E+02  0.13449534661E+03  0.80864279180E+02  0.20345183208E+03  0.91169683216E+02 0.  0.
          2    1    3    3  502    0  0.29076867367E+02  0.11678361727E+03 -0.44029488646E+02  0.12815019839E+03  0.00000000000E+00 0. -1.
         -2    1    3    3    0  502 -0.49354460965E+02  0.10262518180E+03 -0.10732284543E+03  0.15647997925E+03  0.00000000000E+00 0.  1.
         15    1    5    5    0    0  0.88306219644E+02 -0.34510423852E+03 -0.23641474511E+03  0.42753948742E+03  0.17770000000E+01 0.  1.
        -15    1    5    5    0    0  0.23909978103E+02 -0.87999071635E+01 -0.19329665252E+02  0.32029972006E+02  0.17770000000E+01 0. -1.
          2    1    6    6  503    0 -0.11783898774E+02  0.40557150115E+02 -0.17360428324E+02  0.45663192698E+02  0.00000000000E+00 0. -1.
         -2    1    6    6    0  503 -0.80154705375E+02  0.93938196497E+02  0.98224707504E+02  0.15778863939E+03  0.00000000000E+00 0.  1.
<mgrwt>
<rscale>  0 0.39085723E+03</rscale>
<asrwt>0</asrwt>
<pdfrwt beam="1">  1        1 0.97991071E-01 0.39085723E+03</pdfrwt>
<pdfrwt beam="2">  1       -1 0.47801462E-01 0.39085723E+03</pdfrwt>
<totfact> 0.14364727E+02</totfact>
</mgrwt>
</event>
<event>
12    1  0.8033771E-008  0.5476029E+03  0.7818608E-02  0.1002050E+00
         -1   -1    0    0    0  501 -0.00000000000E+00  0.00000000000E+00  0.69778882858E+03  0.69778882858E+03  0.00000000000E+00 0.  1.
          1   -1    0    0  501    0  0.00000000000E+00 -0.00000000000E+00 -0.45940749906E+03  0.45940749906E+03  0.00000000000E+00 0. -1.
         23    2    1    2    0    0  0.22301731431E+03  0.33274729143E+03  0.84085383644E+02  0.41938217871E+03  0.91397908279E+02 0.  0.
    5000000    2    1    2    0    0 -0.22301731431E+03 -0.33274729143E+03  0.15429594587E+03  0.73781414893E+03  0.60008749113E+03 0.  0.
         23    2    4    4    0    0  0.10943172034E+03  0.92979354278E+02  0.71656358061E+02  0.18412315562E+03  0.90256529102E+02 0.  0.
         23    2    4    4    0    0 -0.33244903466E+03 -0.42572664571E+03  0.82639587811E+02  0.55369099331E+03  0.89324560380E+02 0.  0.
          1    1    3    3  502    0  0.62109198020E+02  0.15133380694E+03  0.27269140652E+01  0.16360595851E+03  0.00000000000E+00 0. -1.
         -1    1    3    3    0  502  0.16090811629E+03  0.18141348450E+03  0.81358469579E+02  0.25577622020E+03  0.00000000000E+00 0.  1.
         15    1    5    5    0    0  0.69742461000E+02  0.65497410931E+02 -0.23779697463E+01  0.95722171800E+02  0.17770000000E+01 0.  1.
        -15    1    5    5    0    0  0.39689259341E+02  0.27481943347E+02  0.74034327807E+02  0.88400983818E+02  0.17770000000E+01 0. -1.
          1    1    6    6  503    0 -0.17803971194E+03 -0.28598176444E+03  0.75938539923E+02  0.34532646940E+03  0.00000000000E+00 0. -1.
         -1    1    6    6    0  503 -0.15440932271E+03 -0.13974488127E+03  0.67010478878E+01  0.20836452391E+03  0.00000000000E+00 0.  1.
<mgrwt>
<rscale>  0 0.54760286E+03</rscale>
<asrwt>0</asrwt>
<pdfrwt beam="1">  1        1 0.70678076E-01 0.54760286E+03</pdfrwt>
<pdfrwt beam="2">  1       -1 0.10735213E+00 0.54760286E+03</pdfrwt>
<totfact> 0.41991697E+01</totfact>
</mgrwt>
</event>
<event>
12    1  0.8033771E-008  0.6021889E+03  0.7818608E-02  0.9900875E-01
         -3   -1    0    0    0  501 -0.00000000000E+00  0.00000000000E+00  0.33101848138E+03  0.33101848138E+03  0.00000000000E+00 0.  1.
          3   -1    0    0  501    0  0.00000000000E+00 -0.00000000000E+00 -0.11226991252E+04  0.11226991252E+04  0.00000000000E+00 0. -1.
         23    2    1    2    0    0 -0.45587453448E+03 -0.24538498133E+02 -0.29264941015E+03  0.54955732812E+03  0.89139500512E+02 0.  0.
    5000000    2    1    2    0    0  0.45587453448E+03  0.24538498133E+02 -0.49903123367E+03  0.90416027846E+03  0.60004158846E+03 0.  0.
         23    2    4    4    0    0  0.16405293478E+03 -0.26589620097E+03 -0.15660532251E+03  0.36105801468E+03  0.90683558761E+02 0.  0.
         23    2    4    4    0    0  0.29182159970E+03  0.29043469910E+03 -0.34242591116E+03  0.54310226378E+03  0.90511898602E+02 0.  0.
          2    1    3    3  502    0 -0.21336062122E+03  0.33001867891E+02 -0.13395417118E+03  0.25407793676E+03  0.00000000000E+00 0.  1.
         -2    1    3    3    0  502 -0.24251391326E+03 -0.57540366024E+02 -0.15869523896E+03  0.29547939135E+03  0.00000000000E+00 0. -1.
         15    1    5    5    0    0  0.20285789400E+02 -0.84600663785E+02 -0.11097548177E+02  0.87721712643E+02  0.17770000000E+01 0.  1.
        -15    1    5    5    0    0  0.14376714538E+03 -0.18129553718E+03 -0.14550777433E+03  0.27333630204E+03  0.17770000000E+01 0. -1.
          4    1    6    6  503    0  0.41844152729E+02  0.94042700732E+02 -0.70395086432E+02  0.12470136676E+03  0.00000000000E+00 0. -1.
         -4    1    6    6    0  503  0.24997744697E+03  0.19639199837E+03 -0.27203082473E+03  0.41840089701E+03  0.00000000000E+00 0.  1.
<mgrwt>
<rscale>  0 0.60218895E+03</rscale>
<asrwt>0</asrwt>
<pdfrwt beam="1">  1        3 0.17272294E+00 0.60218895E+03</pdfrwt>
<pdfrwt beam="2">  1       -3 0.50925920E-01 0.60218895E+03</pdfrwt>
<totfact> 0.22334385E+00</totfact>
</mgrwt>
</event>
<event>
12    1  0.8033771E-008  0.1155140E+04  0.7818608E-02  0.9153055E-01
         -2   -1    0    0    0  501 -0.00000000000E+00  0.00000000000E+00  0.10720390999E+04  0.10720390999E+04  0.00000000000E+00 0.  1.
          2   -1    0    0  501    0  0.00000000000E+00 -0.00000000000E+00 -0.13311146039E+04  0.13311146039E+04  0.00000000000E+00 0. -1.
         23    2    1    2    0    0 -0.79729797083E+03 -0.77506005126E+03 -0.11115747093E+02  0.11155842093E+04  0.89456307319E+02 0.  0.
    5000000    2    1    2    0    0  0.79729797083E+03  0.77506005126E+03 -0.24795975696E+03  0.12875694944E+04  0.59995751896E+03 0.  0.
         23    2    4    4    0    0  0.35068449278E+03  0.62822437344E+03  0.43815692352E+02  0.72682835120E+03  0.93349667087E+02 0.  0.
         23    2    4    4    0    0  0.44661347805E+03  0.14683567781E+03 -0.29177544931E+03  0.56074114323E+03  0.90958242238E+02 0.  0.
          2    1    3    3  502    0 -0.40505786963E+03 -0.33476912180E+03 -0.19548730387E+02  0.52585586953E+03  0.00000000000E+00 0. -1.
         -2    1    3    3    0  502 -0.39224010121E+03 -0.44029092945E+03  0.84329832942E+01  0.58972833980E+03  0.00000000000E+00 0.  1.
         15    1    5    5    0    0  0.14456367547E+03  0.17806953268E+03 -0.41366450125E+01  0.22940724551E+03  0.17770000000E+01 0.  1.
        -15    1    5    5    0    0  0.20612081731E+03  0.45015484076E+03  0.47952337364E+02  0.49742110568E+03  0.17770000000E+01 0. -1.
          3    1    6    6  503    0  0.36025912396E+03  0.12747752794E+03 -0.27464005346E+03  0.47059995271E+03  0.00000000000E+00 0. -1.
         -3    1    6    6    0  503  0.86354354089E+02  0.19358149873E+02 -0.17135395852E+02  0.90141190516E+02  0.00000000000E+00 0.  1.
<mgrwt>
<rscale>  0 0.11551402E+04</rscale>
<asrwt>0</asrwt>
<pdfrwt beam="1">  1        2 0.20478686E+00 0.11551402E+04</pdfrwt>
<pdfrwt beam="2">  1       -2 0.16492909E+00 0.11551402E+04</pdfrwt>
<totfact> 0.35857637E+00</totfact>
</mgrwt>
</event>
<event>
12    1  0.8033771E-008  0.4837608E+03  0.7818608E-02  0.1018107E+00
         -1   -1    0    0    0  501 -0.00000000000E+00  0.00000000000E+00  0.88004879370E+02  0.88004879370E+02  0.00000000000E+00 0.  1.
          1   -1    0    0  501    0  0.00000000000E+00 -0.00000000000E+00 -0.27478621843E+04  0.27478621843E+04  0.00000000000E+00 0. -1.
         23    2    1    2    0    0  0.78155325994E+02 -0.28897703812E+03 -0.99621927367E+03  0.10422015319E+04  0.64149889943E+02 0.  0.
    5000000    2    1    2    0    0 -0.78155325994E+02  0.28897703812E+03 -0.16636380313E+04  0.17936655318E+04  0.59994046135E+03 0.  0.
         23    2    4    4    0    0 -0.21788156403E+03  0.40103144514E+03 -0.11164467909E+04  0.12096624186E+04  0.92364139563E+02 0.  0.
         23    2    4    4    0    0  0.13972623803E+03 -0.11205440702E+03 -0.54719124040E+03  0.58400311312E+03  0.97784307714E+02 0.  0.
          4    1    3    3  502    0  0.76193644530E+02 -0.18096722720E+03 -0.69462430445E+03  0.72184314995E+03  0.00000000000E+00 0.  1.
         -4    1    3    3    0  502  0.19616814642E+01 -0.10800981092E+03 -0.30159496921E+03  0.32035838198E+03  0.00000000000E+00 0. -1.
         15    1    5    5    0    0 -0.10244300728E+03  0.13827922554E+03 -0.52038836536E+03  0.54810849518E+03  0.17770000000E+01 0. -1.
        -15    1    5    5    0    0 -0.11543855675E+03  0.26275221960E+03 -0.59605842552E+03  0.66155392346E+03  0.17770000000E+01 0.  1.
          4    1    6    6  503    0  0.88176885170E+02 -0.12300131098E+03 -0.40950984008E+03  0.43658079974E+03  0.00000000000E+00 0. -1.
         -4    1    6    6    0  503  0.51549352863E+02  0.10946903966E+02 -0.13768140032E+03  0.14742231338E+03  0.00000000000E+00 0.  1.
<mgrwt>
<rscale>  0 0.48376078E+03</rscale>
<asrwt>0</asrwt>
<pdfrwt beam="1">  1        1 0.42274807E+00 0.48376078E+03</pdfrwt>
<pdfrwt beam="2">  1       -1 0.13539211E-01 0.48376078E+03</pdfrwt>
<totfact> 0.38699876E+01</totfact>
</mgrwt>
</event>
<event>
12    1  0.8033771E-008  0.1065168E+04  0.7818608E-02  0.9239823E-01
         -2   -1    0    0    0  501 -0.00000000000E+00  0.00000000000E+00  0.41264943968E+03  0.41264943968E+03  0.00000000000E+00 0. -1.
          2   -1    0    0  501    0  0.00000000000E+00 -0.00000000000E+00 -0.29418153297E+04  0.29418153297E+04  0.00000000000E+00 0.  1.
         23    2    1    2    0    0  0.81855368961E+03  0.60543607197E+03 -0.11827834174E+04  0.15633658055E+04  0.92482697036E+02 0.  0.
    5000000    2    1    2    0    0 -0.81855368961E+03 -0.60543607197E+03 -0.13463824726E+04  0.17910989639E+04  0.59892132692E+03 0.  0.
         23    2    4    4    0    0  0.17384087037E+02 -0.25793908675E+02 -0.35351777053E+03  0.36653170340E+03  0.91668660480E+02 0.  0.
         23    2    4    4    0    0 -0.83593777665E+03 -0.57964216330E+03 -0.99286470208E+03  0.14245672605E+04  0.93992335208E+02 0.  0.
          1    1    3    3  502    0  0.45863669949E+03  0.35449994062E+03 -0.60512201625E+03  0.83796806894E+03  0.00000000000E+00 0. -1.
         -1    1    3    3    0  502  0.35991699012E+03  0.25093613135E+03 -0.57766140115E+03  0.72539773654E+03  0.00000000000E+00 0.  1.
         15    1    5    5    0    0 -0.33549813866E+02 -0.20015595473E+02 -0.22100987482E+03  0.22444317002E+03  0.17770000000E+01 0.  1.
        -15    1    5    5    0    0  0.50933900903E+02 -0.57783132014E+01 -0.13250789571E+03  0.14208853338E+03  0.17770000000E+01 0. -1.
          3    1    6    6  503    0 -0.17832348799E+03 -0.17223999781E+03 -0.23409442810E+03  0.34097812904E+03  0.00000000000E+00 0. -1.
         -3    1    6    6    0  503 -0.65761428866E+03 -0.40740216549E+03 -0.75877027398E+03  0.10835891314E+04  0.00000000000E+00 0.  1.
<mgrwt>
<rscale>  0 0.10651677E+04</rscale>
<asrwt>0</asrwt>
<pdfrwt beam="1">  1        2 0.45258696E+00 0.10651677E+04</pdfrwt>
<pdfrwt beam="2">  1       -2 0.63484531E-01 0.10651677E+04</pdfrwt>
<totfact> 0.43991596E+00</totfact>
</mgrwt>
</event>
<event>
12    1  0.8033771E-008  0.7438375E+03  0.7818608E-02  0.9645068E-01
         -2   -1    0    0    0  501 -0.00000000000E+00  0.00000000000E+00  0.21794528271E+03  0.21794528271E+03  0.00000000000E+00 0.  1.
          2   -1    0    0  501    0  0.00000000000E+00 -0.00000000000E+00 -0.33825695844E+04  0.33825695844E+04  0.00000000000E+00 0. -1.
         23    2    1    2    0    0  0.56132320650E+03  0.42261164543E+03 -0.19484467898E+04  0.20732583601E+04  0.90944983136E+02 0.  0.
    5000000    2    1    2    0    0 -0.56132320650E+03 -0.42261164543E+03 -0.12161775119E+04  0.15272565071E+04  0.59978358833E+03 0.  0.
         23    2    4    4    0    0 -0.85600004491E+02  0.29890404203E+02  0.13757992128E+02  0.13017291469E+03  0.92384567646E+02 0.  0.
         23    2    4    4    0    0 -0.47572320201E+03 -0.45250204963E+03 -0.12299355041E+04  0.13970835924E+04  0.89613336521E+02 0.  0.
          1    1    3    3  502    0  0.32770298573E+03  0.22264095383E+03 -0.12147280647E+04  0.12777020436E+04  0.00000000000E+00 0. -1.
         -1    1    3    3    0  502  0.23362022076E+03  0.19997069160E+03 -0.73371872511E+03  0.79555631644E+03  0.00000000000E+00 0.  1.
         15    1    5    5    0    0 -0.63312881637E+02  0.60749549861E+02 -0.45828964338E+01  0.87881678741E+02  0.17770000000E+01 0.  1.
        -15    1    5    5    0    0 -0.22287122854E+02 -0.30859145659E+02  0.18340888561E+02  0.42291235949E+02  0.17770000000E+01 0. -1.
          1    1    6    6  503    0 -0.32841839828E+03 -0.34037967598E+03 -0.80678273397E+03  0.93520871894E+03  0.00000000000E+00 0. -1.
         -1    1    6    6    0  503 -0.14730480372E+03 -0.11212237365E+03 -0.42315277009E+03  0.46187487343E+03  0.00000000000E+00 0.  1.
<mgrwt>
<rscale>  0 0.74383753E+03</rscale>
<asrwt>0</asrwt>
<pdfrwt beam="1">  1        2 0.52039530E+00 0.74383753E+03</pdfrwt>
<pdfrwt beam="2">  1       -2 0.33530045E-01 0.74383753E+03</pdfrwt>
<totfact> 0.87787913E+00</totfact>
</mgrwt>
</event>
<event>
12    1  0.8033771E-008  0.6878404E+03  0.7818608E-02  0.9738256E-01
         -1   -1    0    0    0  501 -0.00000000000E+00  0.00000000000E+00  0.46792469224E+03  0.46792469224E+03  0.00000000000E+00 0.  1.
          1   -1    0    0  501    0  0.00000000000E+00 -0.00000000000E+00 -0.13079901032E+04  0.13079901032E+04  0.00000000000E+00 0. -1.
         23    2    1    2    0    0 -0.60359523674E+03  0.15408523540E+03 -0.62196636419E+03  0.88381020059E+03  0.78796211202E+02 0.  0.
    5000000    2    1    2    0    0  0.60359523674E+03 -0.15408523540E+03 -0.21809904678E+03  0.89210459486E+03  0.60017826050E+03 0.  0.
         23    2    4    4    0    0  0.28845366660E+03 -0.27467069043E+03  0.99049700185E+02  0.42006611677E+03  0.89415845323E+02 0.  0.
         23    2    4    4    0    0  0.31514157014E+03  0.12058545502E+03 -0.31714874697E+03  0.47203847809E+03  0.91552913112E+02 0.  0.
          2    1    3    3  502    0 -0.36088955204E+03  0.13101741917E+03 -0.37004213710E+03  0.53323354745E+03  0.00000000000E+00 0. -1.
         -2    1    3    3    0  502 -0.24270568470E+03  0.23067816231E+02 -0.25192422709E+03  0.35057665313E+03  0.00000000000E+00 0.  1.
         15    1    5    5    0    0  0.19655489866E+03 -0.22940228404E+03  0.49029459389E+02  0.30604947594E+03  0.17770000000E+01 0. -1.
        -15    1    5    5    0    0  0.91898767944E+02 -0.45268406386E+02  0.50020240796E+02  0.11401664082E+03  0.17770000000E+01 0.  1.
          1    1    6    6  503    0  0.29133602112E+03  0.90588545004E+02 -0.30610138453E+03  0.43218169709E+03  0.00000000000E+00 0. -1.
         -1    1    6    6    0  503  0.23805549023E+02  0.29996910020E+02 -0.11047362440E+02  0.39856781003E+02  0.00000000000E+00 0.  1.
<mgrwt>
<rscale>  0 0.68784044E+03</rscale>
<asrwt>0</asrwt>
<pdfrwt beam="1">  1        1 0.20122924E+00 0.68784044E+03</pdfrwt>
<pdfrwt beam="2">  1       -1 0.71988416E-01 0.68784044E+03</pdfrwt>
<totfact> 0.18109657E+01</totfact>
</mgrwt>
</event>
<event>
12    1  0.8033771E-008  0.5821863E+03  0.7818608E-02  0.9943069E-01
          2   -1    0    0  501    0  0.00000000000E+00  0.00000000000E+00  0.99574415932E+03  0.99574415932E+03  0.00000000000E+00 0. -1.
         -2   -1    0    0    0  501 -0.00000000000E+00 -0.00000000000E+00 -0.65762761951E+03  0.65762761951E+03  0.00000000000E+00 0.  1.
         23    2    1    2    0    0  0.46083140425E+03  0.13862402342E+03 -0.36536645124E+03  0.61092604270E+03  0.90309373505E+02 0.  0.
    5000000    2    1    2    0    0 -0.46083140425E+03 -0.13862402342E+03  0.70348299105E+03  0.10424457361E+04  0.60018546388E+03 0.  0.
         23    2    4    4    0    0 -0.51648672710E+03 -0.94965993959E+01  0.70323801088E+03  0.87701345901E+03  0.88091899028E+02 0.  0.
         23    2    4    4    0    0  0.55655322842E+02 -0.12912742402E+03  0.24498017076E+00  0.16543227711E+03  0.87157166658E+02 0.  0.
          1    1    3    3  502    0  0.41485113102E+03  0.12194097905E+03 -0.35818796522E+03  0.56148880817E+03  0.00000000000E+00 0. -1.
         -1    1    3    3    0  502  0.45980273235E+02  0.16683044372E+02 -0.71784860276E+01  0.49437234529E+02  0.00000000000E+00 0.  1.
         15    1    5    5    0    0 -0.43850694899E+03  0.14768900778E+02  0.55209373410E+03  0.70520714241E+03  0.17770000000E+01 0. -1.
        -15    1    5    5    0    0 -0.77979778107E+02 -0.24265500173E+02  0.15114427679E+03  0.17180631661E+03  0.17770000000E+01 0.  1.
          1    1    6    6  503    0  0.52140382815E+02 -0.23954604582E+02  0.14647108457E+02  0.59219763482E+02  0.00000000000E+00 0. -1.
         -1    1    6    6    0  503  0.35149400269E+01 -0.10517281944E+03 -0.14402128286E+02  0.10621251363E+03  0.00000000000E+00 0.  1.
<mgrwt>
<rscale>  0 0.58218632E+03</rscale>
<asrwt>0</asrwt>
<pdfrwt beam="1">  1        2 0.15319141E+00 0.58218632E+03</pdfrwt>
<pdfrwt beam="2">  1       -2 0.10117348E+00 0.58218632E+03</pdfrwt>
<totfact> 0.21112027E+01</totfact>
</mgrwt>
</event>
<event>
12    1  0.8033771E-008  0.1076273E+04  0.7818608E-02  0.9228631E-01
         -1   -1    0    0    0  501 -0.00000000000E+00  0.00000000000E+00  0.53636779454E+03  0.53636779454E+03  0.00000000000E+00 0.  1.
          1   -1    0    0  501    0  0.00000000000E+00 -0.00000000000E+00 -0.25604318584E+04  0.25604318584E+04  0.00000000000E+00 0. -1.
         23    2    1    2    0    0 -0.10085197534E+04  0.36482359406E+03 -0.66707924505E+03  0.12660895258E+04  0.88202156600E+02 0.  0.
    5000000    2    1    2    0    0  0.10085197534E+04 -0.36482359406E+03 -0.13569848188E+04  0.18307101271E+04  0.59990284497E+03 0.  0.
         23    2    4    4    0    0  0.26164684476E+03 -0.40617789883E+02 -0.77815480674E+03  0.82764977293E+03  0.96800656738E+02 0.  0.
         23    2    4    4    0    0  0.74687290861E+03 -0.32420580418E+03 -0.57883001205E+03  0.10030603542E+04  0.90318028263E+02 0.  0.
          2    1    3    3  502    0 -0.47385498938E+03  0.15493575615E+03 -0.26165930519E+03  0.56303572843E+03  0.00000000000E+00 0.  1.
         -2    1    3    3    0  502 -0.53466476399E+03  0.20988783791E+03 -0.40541993986E+03  0.70305379737E+03  0.00000000000E+00 0. -1.
         15    1    5    5    0    0  0.64677284895E+01  0.12346799395E+01  0.82445219593E+00  0.68697450310E+01  0.17770000000E+01 0. -1.
        -15    1    5    5    0    0  0.25517911627E+03 -0.41852469822E+02 -0.77897925894E+03  0.82078002790E+03  0.17770000000E+01 0.  1.
          3    1    6    6  503    0  0.96108694265E+02 -0.41892058529E+02 -0.39829749694E+02  0.11215272909E+03  0.00000000000E+00 0. -1.
         -3    1    6    6    0  503  0.65076421435E+03 -0.28231374565E+03 -0.53900026235E+03  0.89090762511E+03  0.00000000000E+00 0.  1.
<mgrwt>
<rscale>  0 0.10762733E+04</rscale>
<asrwt>0</asrwt>
<pdfrwt beam="1">  1        1 0.39391259E+00 0.10762733E+04</pdfrwt>
<pdfrwt beam="2">  1       -1 0.82518122E-01 0.10762733E+04</pdfrwt>
<totfact> 0.18104046E+00</totfact>
</mgrwt>
</event>
<event>
12    1  0.8033771E-008  0.4834270E+03  0.7818608E-02  0.1018198E+00
         -2   -1    0    0    0  501 -0.00000000000E+00  0.00000000000E+00  0.38457678090E+03  0.38457678090E+03  0.00000000000E+00 0.  1.
          2   -1    0    0  501    0  0.00000000000E+00 -0.00000000000E+00 -0.10972044759E+04  0.10972044759E+04  0.00000000000E+00 0. -1.
         23    2    1    2    0    0 -0.14938233276E+03 -0.26688229788E+03  0.17814892303E+03  0.36503974274E+03  0.89306957974E+02 0.  0.
    5000000    2    1    2    0    0  0.14938233276E+03  0.26688229788E+03 -0.89077661799E+03  0.11167415140E+04  0.60007281533E+03 0.  0.
         23    2    4    4    0    0  0.33865434064E+03  0.29315254444E+02 -0.53624691312E+03  0.64238452409E+03  0.97729107124E+02 0.  0.
         23    2    4    4    0    0 -0.18927200788E+03  0.23756704343E+03 -0.35452970487E+03  0.47435698993E+03  0.84031239220E+02 0.  0.
          4    1    3    3  502    0 -0.78270781613E+02 -0.21325732939E+03  0.10730469975E+03  0.25123555159E+03  0.00000000000E+00 0. -1.
         -4    1    3    3    0  502 -0.71111551148E+02 -0.53624968486E+02  0.70844223282E+02  0.11380419115E+03  0.00000000000E+00 0.  1.
         15    1    5    5    0    0  0.13849234181E+03 -0.21348962914E+02 -0.15607437645E+03  0.20975765939E+03  0.17770000000E+01 0. -1.
        -15    1    5    5    0    0  0.20016199883E+03  0.50664217359E+02 -0.38017253667E+03  0.43262686470E+03  0.17770000000E+01 0.  1.
          3    1    6    6  503    0 -0.13342290803E+03  0.17634297504E+03 -0.19607380746E+03  0.29553926171E+03  0.00000000000E+00 0. -1.
         -3    1    6    6    0  503 -0.55849099844E+02  0.61224068389E+02 -0.15845589741E+03  0.17881772822E+03  0.00000000000E+00 0.  1.
<mgrwt>
<rscale>  0 0.48342696E+03</rscale>
<asrwt>0</asrwt>
<pdfrwt beam="1">  1        2 0.16880069E+00 0.48342696E+03</pdfrwt>
<pdfrwt beam="2">  1       -2 0.59165660E-01 0.48342696E+03</pdfrwt>
<totfact> 0.61018298E+01</totfact>
</mgrwt>
</event>
<event>
12    1  0.8033771E-008  0.1485484E+04  0.7818608E-02  0.8894164E-01
          2   -1    0    0  501    0  0.00000000000E+00  0.00000000000E+00  0.21287282496E+04  0.21287282496E+04  0.00000000000E+00 0. -1.
         -2   -1    0    0    0  501 -0.00000000000E+00 -0.00000000000E+00 -0.11318247915E+04  0.11318247915E+04  0.00000000000E+00 0.  1.
         23    2    1    2    0    0  0.14533004439E+04 -0.16967520076E+03  0.79056778169E+03  0.16657624638E+04  0.94314973882E+02 0.  0.
    5000000    2    1    2    0    0 -0.14533004439E+04  0.16967520076E+03  0.20633567642E+03  0.15947905773E+04  0.59992559554E+03 0.  0.
         23    2    4    4    0    0 -0.82895041454E+03  0.26997151174E+03 -0.10704057987E+03  0.88326495186E+03  0.93036995553E+02 0.  0.
         23    2    4    4    0    0 -0.62435002936E+03 -0.10029631098E+03  0.31337625628E+03  0.71152562546E+03  0.90508168317E+02 0.  0.
          3    1    3    3  502    0  0.80334479509E+03 -0.10493228461E+03  0.48928972631E+03  0.94645553536E+03  0.00000000000E+00 0. -1.
         -3    1    3    3    0  502  0.64995564880E+03 -0.64742916150E+02  0.30127805538E+03  0.71930692841E+03  0.00000000000E+00 0.  1.
         15    1    5    5    0    0 -0.48807070557E+03  0.19744594571E+03 -0.37117478735E+02  0.52780562716E+03  0.17770000000E+01 0.  1.
        -15    1    5    5    0    0 -0.34087970897E+03  0.72525566031E+02 -0.69923101131E+02  0.35545932470E+03  0.17770000000E+01 0. -1.
          2    1    6    6  503    0 -0.96284400322E+02 -0.22120500935E+02  0.14849849743E+02  0.99902554243E+02  0.00000000000E+00 0. -1.
         -2    1    6    6    0  503 -0.52806562904E+03 -0.78175810046E+02  0.29852640654E+03  0.61162307122E+03  0.00000000000E+00 0.  1.
<mgrwt>
<rscale>  0 0.14854839E+04</rscale>
<asrwt>0</asrwt>
<pdfrwt beam="1">  1        2 0.32749665E+00 0.14854839E+04</pdfrwt>
<pdfrwt beam="2">  1       -2 0.17412689E+00 0.14854839E+04</pdfrwt>
<totfact> 0.10637976E+00</totfact>
</mgrwt>
</event>
<event>
12    1  0.8033771E-008  0.1015928E+04  0.7818608E-02  0.9291246E-01
         -2   -1    0    0    0  501 -0.00000000000E+00  0.00000000000E+00  0.78939942096E+03  0.78939942096E+03  0.00000000000E+00 0.  1.
          2   -1    0    0  501    0  0.00000000000E+00 -0.00000000000E+00 -0.14720136682E+04  0.14720136682E+04  0.00000000000E+00 0. -1.
         23    2    1    2    0    0 -0.89975821868E+03 -0.36139155879E+03 -0.53605012765E+03  0.11115241784E+04  0.89261127976E+02 0.  0.
    5000000    2    1    2    0    0  0.89975821868E+03  0.36139155879E+03 -0.14656411956E+03  0.11498889107E+04  0.60049542467E+03 0.  0.
         23    2    4    4    0    0  0.12290175031E+03  0.21747041722E+03 -0.22793891008E+03  0.35061948683E+03  0.92626428310E+02 0.  0.
         23    2    4    4    0    0  0.77685646837E+03  0.14392114158E+03  0.81374790522E+02  0.79926942391E+03  0.89389529718E+02 0.  0.
          4    1    3    3  502    0 -0.47405852638E+03 -0.21569980806E+03 -0.33065123934E+03  0.61691825691E+03  0.00000000000E+00 0. -1.
         -4    1    3    3    0  502 -0.42569969229E+03 -0.14569175073E+03 -0.20539888831E+03  0.49460592149E+03  0.00000000000E+00 0.  1.
         15    1    5    5    0    0  0.11871517030E+03  0.12104449124E+03 -0.15356432262E+03  0.22875799315E+03  0.17770000000E+01 0. -1.
        -15    1    5    5    0    0  0.41865800095E+01  0.96425925981E+02 -0.74374587465E+02  0.12186149368E+03  0.17770000000E+01 0.  1.
          3    1    6    6  503    0  0.54773865998E+03  0.14213901568E+03  0.51879358949E+02  0.56825399893E+03  0.00000000000E+00 0. -1.
         -3    1    6    6    0  503  0.22911780839E+03  0.17821258910E+01  0.29495431573E+02  0.23101542498E+03  0.00000000000E+00 0.  1.
<mgrwt>
<rscale>  0 0.10159282E+04</rscale>
<asrwt>0</asrwt>
<pdfrwt beam="1">  1        2 0.22646364E+00 0.10159282E+04</pdfrwt>
<pdfrwt beam="2">  1       -2 0.12144607E+00 0.10159282E+04</pdfrwt>
<totfact> 0.67316375E+00</totfact>
</mgrwt>
</event>
<event>
12    1  0.8033771E-008  0.5429857E+03  0.7818608E-02  0.1003131E+00
          2   -1    0    0  501    0  0.00000000000E+00  0.00000000000E+00  0.10987616389E+04  0.10987616389E+04  0.00000000000E+00 0. -1.
         -2   -1    0    0    0  501 -0.00000000000E+00 -0.00000000000E+00 -0.36974221187E+03  0.36974221187E+03  0.00000000000E+00 0.  1.
         23    2    1    2    0    0  0.33800771277E+03 -0.23877388152E+03 -0.15583732638E+02  0.42661853987E+03  0.10246143396E+03 0.  0.
    5000000    2    1    2    0    0 -0.33800771277E+03  0.23877388152E+03  0.74460315970E+03  0.10418853109E+04  0.59985744582E+03 0.  0.
         23    2    4    4    0    0  0.91036159362E+02  0.18199464884E+03  0.47364996228E+03  0.52340331773E+03  0.90537902144E+02 0.  0.
         23    2    4    4    0    0 -0.42904387213E+03  0.56779232679E+02  0.27095319742E+03  0.51848199321E+03  0.90030087222E+02 0.  0.
          2    1    3    3  502    0  0.23619972185E+03 -0.21501643752E+03 -0.31141943174E+02  0.32092397484E+03  0.00000000000E+00 0. -1.
         -2    1    3    3    0  502  0.10180799092E+03 -0.23757444003E+02  0.15558210537E+02  0.10569456503E+03  0.00000000000E+00 0.  1.
         15    1    5    5    0    0  0.93640104325E+02  0.87771429982E+02  0.26557336587E+03  0.29496552925E+03  0.17770000000E+01 0. -1.
        -15    1    5    5    0    0 -0.26039449627E+01  0.94223218861E+02  0.20807659640E+03  0.22843778847E+03  0.17770000000E+01 0.  1.
          3    1    6    6  503    0 -0.40591243402E+03  0.34674118023E+02  0.23482697489E+03  0.47022431529E+03  0.00000000000E+00 0. -1.
         -3    1    6    6    0  503 -0.23131438111E+02  0.22105114656E+02  0.36126222539E+02  0.48257677917E+02  0.00000000000E+00 0.  1.
<mgrwt>
<rscale>  0 0.54298566E+03</rscale>
<asrwt>0</asrwt>
<pdfrwt beam="1">  1        2 0.16904025E+00 0.54298566E+03</pdfrwt>
<pdfrwt beam="2">  1       -2 0.56883418E-01 0.54298566E+03</pdfrwt>
<totfact> 0.65596604E+01</totfact>
</mgrwt>
</event>
<event>
12    1  0.8033771E-008  0.7910791E+03  0.7818608E-02  0.9573020E-01
          1   -1    0    0  501    0  0.00000000000E+00  0.00000000000E+00  0.16530038503E+04  0.16530038503E+04  0.00000000000E+00 0. -1.
         -1   -1    0    0    0  501 -0.00000000000E+00 -0.00000000000E+00 -0.46361148618E+03  0.46361148618E+03  0.00000000000E+00 0.  1.
         23    2    1    2    0    0 -0.47498247221E+03 -0.60249182514E+03  0.44985517212E+03  0.89371289184E+03  0.88024478898E+02 0.  0.
    5000000    2    1    2    0    0  0.47498247221E+03  0.60249182514E+03  0.73953719202E+03  0.12229024447E+04  0.59997531827E+03 0.  0.
         23    2    4    4    0    0  0.15477726890E+03  0.52892399404E+02 -0.61180937058E+02  0.19617910101E+03  0.89384135787E+02 0.  0.
         23    2    4    4    0    0  0.32020520330E+03  0.54959942574E+03  0.80071812908E+03  0.10267233437E+04  0.91762744009E+02 0.  0.
          3    1    3    3  502    0 -0.25145527456E+03 -0.32615065924E+03  0.19071244711E+03  0.45384495713E+03  0.00000000000E+00 0. -1.
         -3    1    3    3    0  502 -0.22352719765E+03 -0.27634116590E+03  0.25914272501E+03  0.43986793471E+03  0.00000000000E+00 0.  1.
         15    1    5    5    0    0  0.21135562657E+02 -0.14701501581E+02 -0.36013481137E+02  0.44305470431E+02  0.17770000000E+01 0. -1.
        -15    1    5    5    0    0  0.13364170625E+03  0.67593900985E+02 -0.25167455922E+02  0.15187363058E+03  0.17770000000E+01 0.  1.
          2    1    6    6  503    0  0.14664691175E+02  0.63490338985E+02  0.11682771902E+03  0.13377141788E+03  0.00000000000E+00 0. -1.
         -2    1    6    6    0  503  0.30554051213E+03  0.48610908676E+03  0.68389041006E+03  0.89295192578E+03  0.00000000000E+00 0.  1.
<mgrwt>
<rscale>  0 0.79107913E+03</rscale>
<asrwt>0</asrwt>
<pdfrwt beam="1">  1        1 0.25430828E+00 0.79107913E+03</pdfrwt>
<pdfrwt beam="2">  1       -1 0.71324844E-01 0.79107913E+03</pdfrwt>
<totfact> 0.10534248E+01</totfact>
</mgrwt>
</event>
<event>
12    1  0.8033771E-008  0.4425478E+03  0.7818608E-02  0.1029968E+00
         -1   -1    0    0    0  501 -0.00000000000E+00  0.00000000000E+00  0.12932202845E+03  0.12932202845E+03  0.00000000000E+00 0.  1.
          1   -1    0    0  501    0  0.00000000000E+00 -0.00000000000E+00 -0.17629567117E+04  0.17629567117E+04  0.00000000000E+00 0. -1.
         23    2    1    2    0    0 -0.17209475539E+03  0.18807931453E+03 -0.72646610288E+03  0.77514045497E+03  0.89996071625E+02 0.  0.
    5000000    2    1    2    0    0  0.17209475539E+03 -0.18807931453E+03 -0.90716858032E+03  0.11171382851E+04  0.60004389974E+03 0.  0.
         23    2    4    4    0    0 -0.33463690293E+02  0.17836329635E+03 -0.17556147299E+03  0.26854583389E+03  0.91442605192E+02 0.  0.
         23    2    4    4    0    0  0.20555844568E+03 -0.36644261088E+03 -0.73160710733E+03  0.84859245125E+03  0.91245422718E+02 0.  0.
          2    1    3    3  502    0 -0.71597651981E+02  0.76217942427E+02 -0.17811016576E+03  0.20653965640E+03  0.00000000000E+00 0.  1.
         -2    1    3    3    0  502 -0.10049710341E+03  0.11186137210E+03 -0.54835593712E+03  0.56860079857E+03  0.00000000000E+00 0. -1.
         15    1    5    5    0    0 -0.57853745535E+02  0.78345289243E+02 -0.63051610090E+02  0.11603319992E+03  0.17770000000E+01 0. -1.
        -15    1    5    5    0    0  0.24390055242E+02  0.10001800711E+03 -0.11250986290E+03  0.15251263397E+03  0.17770000000E+01 0.  1.
          2    1    6    6  503    0 -0.69476086301E+00 -0.62244736485E+02 -0.97602057473E+02  0.11576291088E+03  0.00000000000E+00 0. -1.
         -2    1    6    6    0  503  0.20625320654E+03 -0.30419787440E+03 -0.63400504986E+03  0.73282954037E+03  0.00000000000E+00 0.  1.
<mgrwt>
<rscale>  0 0.44254777E+03</rscale>
<asrwt>0</asrwt>
<pdfrwt beam="1">  1        1 0.27122414E+00 0.44254777E+03</pdfrwt>
<pdfrwt beam="2">  1       -1 0.19895695E-01 0.44254777E+03</pdfrwt>
<totfact> 0.95054897E+01</totfact>
</mgrwt>
</event>
<event>
12    1  0.8033771E-008  0.3937550E+03  0.7818608E-02  0.1045964E+00
          2   -1    0    0  501    0  0.00000000000E+00  0.00000000000E+00  0.58894663631E+03  0.58894663631E+03  0.00000000000E+00 0. -1.
         -2   -1    0    0    0  501 -0.00000000000E+00 -0.00000000000E+00 -0.33848015186E+03  0.33848015186E+03  0.00000000000E+00 0.  1.
         23    2    1    2    0    0 -0.19394837118E+03 -0.12819300209E+03  0.70002952020E+02  0.25922408105E+03  0.90814615751E+02 0.  0.
    5000000    2    1    2    0    0  0.19394837118E+03  0.12819300209E+03  0.18046353242E+03  0.66820270713E+03  0.59989862044E+03 0.  0.
         23    2    4    4    0    0 -0.14854943117E+03  0.67012388436E+02 -0.10046505201E+03  0.21206621675E+03  0.91220940064E+02 0.  0.
         23    2    4    4    0    0  0.34249780236E+03  0.61180613655E+02  0.28092858443E+03  0.45613649037E+03  0.89954522917E+02 0.  0.
          1    1    3    3  502    0 -0.36823484312E+02 -0.73764314061E+02  0.33429687021E+02  0.88964526639E+02  0.00000000000E+00 0. -1.
         -1    1    3    3    0  502 -0.15712488687E+03 -0.54428688030E+02  0.36573264999E+02  0.17025955441E+03  0.00000000000E+00 0.  1.
         15    1    5    5    0    0 -0.94896778297E+02  0.86867835692E+02 -0.59976884786E+02  0.14195704930E+03  0.17770000000E+01 0.  1.
        -15    1    5    5    0    0 -0.53652652876E+02 -0.19855447256E+02 -0.40488167222E+02  0.70109167449E+02  0.17770000000E+01 0. -1.
          3    1    6    6  503    0  0.18618632624E+03  0.33608209429E+01  0.19102418022E+03  0.26677121401E+03  0.00000000000E+00 0. -1.
         -3    1    6    6    0  503  0.15631147612E+03  0.57819792712E+02  0.89904404210E+02  0.18936527636E+03  0.00000000000E+00 0.  1.
<mgrwt>
<rscale>  0 0.39375500E+03</rscale>
<asrwt>0</asrwt>
<pdfrwt beam="1">  1        2 0.90607175E-01 0.39375500E+03</pdfrwt>
<pdfrwt beam="2">  1       -2 0.52073869E-01 0.39375500E+03</pdfrwt>
<totfact> 0.18219625E+02</totfact>
</mgrwt>
</event>
<event>
12    1  0.8033771E-008  0.7747506E+03  0.7818608E-02  0.9597301E-01
         -1   -1    0    0    0  501 -0.00000000000E+00  0.00000000000E+00  0.45841595088E+03  0.45841595088E+03  0.00000000000E+00 0.  1.
          1   -1    0    0  501    0  0.00000000000E+00 -0.00000000000E+00 -0.15160610448E+04  0.15160610448E+04  0.00000000000E+00 0. -1.
         23    2    1    2    0    0 -0.25155432954E+03  0.67720119223E+03 -0.46721895198E+03  0.86510946379E+03  0.90773342825E+02 0.  0.
    5000000    2    1    2    0    0  0.25155432954E+03 -0.67720119223E+03 -0.59042614190E+03  0.11093675319E+04  0.60017685413E+03 0.  0.
         23    2    4    4    0    0  0.30644459326E+03 -0.63800557731E+03 -0.65987847873E+03  0.97195324970E+03  0.91071990741E+02 0.  0.
         23    2    4    4    0    0 -0.54890263723E+02 -0.39195614925E+02  0.69452336826E+02  0.13741428216E+03  0.97518308896E+02 0.  0.
          1    1    3    3  502    0 -0.10531836942E+03  0.39967229904E+03 -0.28884243300E+03  0.50424186325E+03  0.00000000000E+00 0. -1.
         -1    1    3    3    0  502 -0.14623596012E+03  0.27752889320E+03 -0.17837651898E+03  0.36086760053E+03  0.00000000000E+00 0.  1.
         15    1    5    5    0    0  0.17297209068E+03 -0.29282191500E+03 -0.36366451939E+03  0.49791471001E+03  0.17770000000E+01 0. -1.
        -15    1    5    5    0    0  0.13347250259E+03 -0.34518366231E+03 -0.29621395934E+03  0.47403853969E+03  0.17770000000E+01 0.  1.
          3    1    6    6  503    0  0.17153428032E+02  0.14483440541E+02 -0.21167156407E+01  0.22549736766E+02  0.00000000000E+00 0. -1.
         -3    1    6    6    0  503 -0.72043691755E+02 -0.53679055466E+02  0.71569052467E+02  0.11486454539E+03  0.00000000000E+00 0.  1.
<mgrwt>
<rscale>  0 0.77475058E+03</rscale>
<asrwt>0</asrwt>
<pdfrwt beam="1">  1        1 0.23324016E+00 0.77475058E+03</pdfrwt>
<pdfrwt beam="2">  1       -1 0.70525530E-01 0.77475058E+03</pdfrwt>
<totfact> 0.13388698E+01</totfact>
</mgrwt>
</event>
<event>
12    1  0.8033771E-008  0.2069025E+04  0.7818608E-02  0.8575012E-01
         -2   -1    0    0    0  501 -0.00000000000E+00  0.00000000000E+00  0.13592210487E+04  0.13592210487E+04  0.00000000000E+00 0.  1.
          2   -1    0    0  501    0  0.00000000000E+00 -0.00000000000E+00 -0.33114410812E+04  0.33114410812E+04  0.00000000000E+00 0. -1.
         23    2    1    2    0    0 -0.19827985690E+04 -0.54584963219E+03 -0.12853623525E+04  0.24269500348E+04  0.92130927986E+02 0.  0.
    5000000    2    1    2    0    0  0.19827985690E+04  0.54584963219E+03 -0.66685767997E+03  0.22437120952E+04  0.60008567271E+03 0.  0.
         23    2    4    4    0    0  0.13910759501E+04  0.25693897928E+03 -0.69301933070E+03  0.15779103855E+04  0.91735784129E+02 0.  0.
         23    2    4    4    0    0  0.59172261891E+03  0.28891065291E+03  0.26161650734E+02  0.66580170964E+03  0.94881302202E+02 0.  0.
          2    1    3    3  502    0 -0.10368506755E+04 -0.31695053980E+03 -0.71801857079E+03  0.13004105644E+04  0.00000000000E+00 0. -1.
         -2    1    3    3    0  502 -0.94594789342E+03 -0.22889909239E+03 -0.56734378172E+03  0.11265394703E+04  0.00000000000E+00 0.  1.
         15    1    5    5    0    0  0.96905880694E+03  0.15714483553E+03 -0.52077712275E+03  0.11112971880E+04  0.17770000000E+01 0. -1.
        -15    1    5    5    0    0  0.42201714311E+03  0.99794143747E+02 -0.17224220796E+03  0.46661319756E+03  0.17770000000E+01 0.  1.
          3    1    6    6  503    0  0.84043163890E+02  0.65637786909E+01  0.66860035709E+01  0.84563817506E+02  0.00000000000E+00 0. -1.
         -3    1    6    6    0  503  0.50767945502E+03  0.28234687422E+03  0.19475647163E+02  0.58123789214E+03  0.00000000000E+00 0.  1.
<mgrwt>
<rscale>  0 0.20690251E+04</rscale>
<asrwt>0</asrwt>
<pdfrwt beam="1">  1        2 0.50945247E+00 0.20690251E+04</pdfrwt>
<pdfrwt beam="2">  1       -2 0.20911093E+00 0.20690251E+04</pdfrwt>
<totfact> 0.11258067E-01</totfact>
</mgrwt>
</event>
<event>
12    1  0.8033771E-008  0.6106954E+03  0.7818608E-02  0.9883462E-01
          2   -1    0    0  501    0  0.00000000000E+00  0.00000000000E+00  0.74396251499E+03  0.74396251499E+03  0.00000000000E+00 0. -1.
         -2   -1    0    0    0  501 -0.00000000000E+00 -0.00000000000E+00 -0.59326917894E+03  0.59326917894E+03  0.00000000000E+00 0.  1.
         23    2    1    2    0    0 -0.33917605162E+03 -0.33172986896E+03  0.28407677602E+03  0.56084768874E+03  0.93623796884E+02 0.  0.
    5000000    2    1    2    0    0  0.33917605162E+03  0.33172986896E+03 -0.13338343998E+03  0.77638400519E+03  0.59991322831E+03 0.  0.
         23    2    4    4    0    0 -0.11048496683E+03  0.26426496496E+03 -0.24458362648E+02  0.30024355184E+03  0.86631860857E+02 0.  0.
         23    2    4    4    0    0  0.44966101845E+03  0.67464903999E+02 -0.10892507733E+03  0.47614045335E+03  0.89991744390E+02 0.  0.
          2    1    3    3  502    0 -0.14744438245E+03 -0.13367243071E+03  0.17282993428E+03  0.26358746334E+03  0.00000000000E+00 0. -1.
         -2    1    3    3    0  502 -0.19173166917E+03 -0.19805743824E+03  0.11124684174E+03  0.29726022540E+03  0.00000000000E+00 0.  1.
         15    1    5    5    0    0 -0.17300488220E+02  0.11002719312E+03 -0.42295204101E+02  0.11915255825E+03  0.17770000000E+01 0. -1.
        -15    1    5    5    0    0 -0.93184478615E+02  0.15423777183E+03  0.17836841453E+02  0.18109099358E+03  0.17770000000E+01 0.  1.
          4    1    6    6  503    0  0.17629759864E+03  0.16854464257E+02  0.12240585062E+01  0.17710565935E+03  0.00000000000E+00 0.  1.
         -4    1    6    6    0  503  0.27336341981E+03  0.50610439742E+02 -0.11014913584E+03  0.29903479401E+03  0.00000000000E+00 0. -1.
<mgrwt>
<rscale>  0 0.61069541E+03</rscale>
<asrwt>0</asrwt>
<pdfrwt beam="1">  1        2 0.11445577E+00 0.61069541E+03</pdfrwt>
<pdfrwt beam="2">  1       -2 0.91272181E-01 0.61069541E+03</pdfrwt>
<totfact> 0.39787270E+01</totfact>
</mgrwt>
</event>
<event>
12    1  0.8033771E-008  0.5000753E+03  0.7818608E-02  0.1013759E+00
          2   -1    0    0  501    0  0.00000000000E+00  0.00000000000E+00  0.14418855629E+04  0.14418855629E+04  0.00000000000E+00 0. -1.
         -2   -1    0    0    0  501 -0.00000000000E+00 -0.00000000000E+00 -0.28171175110E+03  0.28171175110E+03  0.00000000000E+00 0.  1.
         23    2    1    2    0    0 -0.69598654893E+02  0.44925676416E+03  0.20300992730E+03  0.50587675311E+03  0.89569223764E+02 0.  0.
    5000000    2    1    2    0    0  0.69598654893E+02 -0.44925676416E+03  0.95716388452E+03  0.12177205609E+04  0.60000420809E+03 0.  0.
         23    2    4    4    0    0  0.14399072438E+03 -0.78960640723E+02  0.63005119046E+01  0.19047596420E+03  0.96297897162E+02 0.  0.
         23    2    4    4    0    0 -0.74392069484E+02 -0.37029612344E+03  0.95086337262E+03  0.10272445967E+04  0.91852648607E+02 0.  0.
          2    1    3    3  502    0  0.24733782468E+01  0.13247875354E+03  0.96757692349E+02  0.16406946324E+03  0.00000000000E+00 0. -1.
         -2    1    3    3    0  502 -0.72072033140E+02  0.31677801063E+03  0.10625223495E+03  0.34180728987E+03  0.00000000000E+00 0.  1.
         15    1    5    5    0    0  0.39286313507E+02 -0.27256472970E+02  0.46735804753E+02  0.66885894796E+02  0.17770000000E+01 0. -1.
        -15    1    5    5    0    0  0.10470441087E+03 -0.51704167753E+02 -0.40435292848E+02  0.12359006940E+03  0.17770000000E+01 0.  1.
          3    1    6    6  503    0 -0.30622849158E+02 -0.19882134405E+03  0.38551410241E+03  0.43484343032E+03  0.00000000000E+00 0. -1.
         -3    1    6    6    0  503 -0.43769220326E+02 -0.17147477939E+03  0.56534927021E+03  0.59240116639E+03  0.00000000000E+00 0.  1.
<mgrwt>
<rscale>  0 0.50007527E+03</rscale>
<asrwt>0</asrwt>
<pdfrwt beam="1">  1        2 0.22182854E+00 0.50007527E+03</pdfrwt>
<pdfrwt beam="2">  1       -2 0.43340270E-01 0.50007527E+03</pdfrwt>
<totfact> 0.72557465E+01</totfact>
</mgrwt>
</event>
<event>
12    1  0.8033771E-008  0.3146271E+03  0.7818608E-02  0.1078149E+00
         -2   -1    0    0    0  501 -0.00000000000E+00  0.00000000000E+00  0.15930817820E+03  0.15930817820E+03  0.00000000000E+00 0.  1.
          2   -1    0    0  501    0  0.00000000000E+00 -0.00000000000E+00 -0.94586820756E+03  0.94586820756E+03  0.00000000000E+00 0. -1.
         23    2    1    2    0    0  0.10155991317E+03 -0.70978808460E+02 -0.23403097752E+03  0.28013423778E+03  0.91390839383E+02 0.  0.
    5000000    2    1    2    0    0 -0.10155991317E+03  0.70978808460E+02 -0.55252905183E+03  0.82504214798E+03  0.60004481967E+03 0.  0.
         23    2    4    4    0    0  0.44551133124E+02 -0.18258798269E+03 -0.45953036702E+03  0.50487729879E+03  0.91704709440E+02 0.  0.
         23    2    4    4    0    0 -0.14611104630E+03  0.25356679115E+03 -0.92998684814E+02  0.32016484919E+03  0.90621299127E+02 0.  0.
          1    1    3    3  502    0  0.96466878283E+02 -0.64950357465E+02 -0.24226329965E+03  0.26873018792E+03  0.00000000000E+00 0. -1.
         -1    1    3    3    0  502  0.50930348909E+01 -0.60284509948E+01  0.82323221251E+01  0.11404049867E+02  0.00000000000E+00 0.  1.
         15    1    5    5    0    0  0.55892998931E+02 -0.47251864913E+02 -0.16809085458E+03  0.18334246423E+03  0.17770000000E+01 0.  1.
        -15    1    5    5    0    0 -0.11341865807E+02 -0.13533611778E+03 -0.29143951244E+03  0.32153483456E+03  0.17770000000E+01 0. -1.
          2    1    6    6  503    0 -0.12867774394E+03  0.18543876906E+03 -0.10480662253E+03  0.24885724218E+03  0.00000000000E+00 0. -1.
         -2    1    6    6    0  503 -0.17433302355E+02  0.68128022087E+02  0.11807937720E+02  0.71307607011E+02  0.00000000000E+00 0.  1.
<mgrwt>
<rscale>  0 0.31462713E+03</rscale>
<asrwt>0</asrwt>
<pdfrwt beam="1">  1        2 0.14551819E+00 0.31462713E+03</pdfrwt>
<pdfrwt beam="2">  1       -2 0.24508950E-01 0.31462713E+03</pdfrwt>
<totfact> 0.41894944E+02</totfact>
</mgrwt>
</event>
<event>
12    1  0.8033771E-008  0.1023928E+04  0.7818608E-02  0.9282684E-01
         -1   -1    0    0    0  501 -0.00000000000E+00  0.00000000000E+00  0.12661124191E+04  0.12661124191E+04  0.00000000000E+00 0.  1.
          1   -1    0    0  501    0  0.00000000000E+00 -0.00000000000E+00 -0.90231582762E+03  0.90231582762E+03  0.00000000000E+00 0. -1.
         23    2    1    2    0    0  0.71273715779E+03 -0.62698224775E+03  0.42826847194E+03  0.10434991357E+04  0.66148068839E+02 0.  0.
    5000000    2    1    2    0    0 -0.71273715779E+03  0.62698224775E+03 -0.64471880474E+02  0.11249291110E+04  0.60017321363E+03 0.  0.
         23    2    4    4    0    0 -0.75077157068E+03  0.38491560051E+03  0.23415787711E+02  0.84918610479E+03  0.93545553599E+02 0.  0.
         23    2    4    4    0    0  0.38034412889E+02  0.24206664724E+03 -0.87887668185E+02  0.27574300623E+03  0.90923511788E+02 0.  0.
          2    1    3    3  502    0  0.44383553174E+03 -0.39883308843E+03  0.30329503012E+03  0.66936214933E+03  0.00000000000E+00 0. -1.
         -2    1    3    3    0  502  0.26890162606E+03 -0.22814915932E+03  0.12497344182E+03  0.37413698635E+03  0.00000000000E+00 0.  1.
         15    1    5    5    0    0 -0.24642616603E+03  0.16287379629E+03  0.38665118354E+02  0.29791253402E+03  0.17770000000E+01 0. -1.
        -15    1    5    5    0    0 -0.50434540465E+03  0.22204180423E+03 -0.15249330643E+02  0.55127357077E+03  0.17770000000E+01 0.  1.
          3    1    6    6  503    0  0.23052123517E+02  0.23380270286E+03 -0.59102531526E+02  0.24225650351E+03  0.00000000000E+00 0. -1.
         -3    1    6    6    0  503  0.14982289372E+02  0.82639443807E+01 -0.28785136659E+02  0.33486502714E+02  0.00000000000E+00 0.  1.
<mgrwt>
<rscale>  0 0.10239276E+04</rscale>
<asrwt>0</asrwt>
<pdfrwt beam="1">  1        1 0.13881782E+00 0.10239276E+04</pdfrwt>
<pdfrwt beam="2">  1       -1 0.19478653E+00 0.10239276E+04</pdfrwt>
<totfact> 0.29661975E+00</totfact>
</mgrwt>
</event>
<event>
12    1  0.8033771E-008  0.5560350E+03  0.7818608E-02  0.1000107E+00
         -1   -1    0    0    0  501 -0.00000000000E+00  0.00000000000E+00  0.12536544811E+03  0.12536544811E+03  0.00000000000E+00 0.  1.
          1   -1    0    0  501    0  0.00000000000E+00 -0.00000000000E+00 -0.34846529091E+04  0.34846529091E+04  0.00000000000E+00 0. -1.
         23    2    1    2    0    0 -0.49148932333E+03  0.16550996126E+03 -0.14507528176E+04  0.15433931932E+04  0.91779675165E+02 0.  0.
    5000000    2    1    2    0    0  0.49148932333E+03 -0.16550996126E+03 -0.19085346434E+04  0.20666251640E+04  0.59956632768E+03 0.  0.
         23    2    4    4    0    0  0.16172930495E+03  0.44703324668E+02 -0.14275690398E+04  0.14402712729E+04  0.90957248593E+02 0.  0.
         23    2    4    4    0    0  0.32976001838E+03 -0.21021328593E+03 -0.48096560362E+03  0.62635389106E+03  0.89777445243E+02 0.  0.
          2    1    3    3  502    0 -0.23285251944E+03  0.34418667533E+02 -0.70476643667E+03  0.74303477088E+03  0.00000000000E+00 0.  1.
         -2    1    3    3    0  502 -0.25863680390E+03  0.13109129373E+03 -0.74598638090E+03  0.80035842228E+03  0.00000000000E+00 0. -1.
         15    1    5    5    0    0 -0.43726983474E+01 -0.13869127879E+02 -0.12087324180E+03  0.12175783963E+03  0.17770000000E+01 0.  1.
        -15    1    5    5    0    0  0.16610200330E+03  0.58572452547E+02 -0.13066957980E+04  0.13185134333E+04  0.17770000000E+01 0. -1.
          1    1    6    6  503    0  0.18035307465E+03 -0.78241924994E+02 -0.28957626835E+03  0.35000492218E+03  0.00000000000E+00 0. -1.
         -1    1    6    6    0  503  0.14940694373E+03 -0.13197136094E+03 -0.19138933527E+03  0.27634896887E+03  0.00000000000E+00 0.  1.
<mgrwt>
<rscale>  0 0.55603505E+03</rscale>
<asrwt>0</asrwt>
<pdfrwt beam="1">  1        1 0.53610048E+00 0.55603505E+03</pdfrwt>
<pdfrwt beam="2">  1       -1 0.19286991E-01 0.55603505E+03</pdfrwt>
<totfact> 0.62680600E+00</totfact>
</mgrwt>
</event>
<event>
12    1  0.8033771E-008  0.1216992E+04  0.7818608E-02  0.9098112E-01
         -1   -1    0    0    0  501 -0.00000000000E+00  0.00000000000E+00  0.12082458803E+04  0.12082458803E+04  0.00000000000E+00 0.  1.
          1   -1    0    0  501    0  0.00000000000E+00 -0.00000000000E+00 -0.14772549866E+04  0.14772549866E+04  0.00000000000E+00 0. -1.
         23    2    1    2    0    0 -0.93562487657E+03 -0.66918704323E+03 -0.66083664745E+03  0.13299403958E+04  0.93974322277E+02 0.  0.
    5000000    2    1    2    0    0  0.93562487657E+03  0.66918704323E+03  0.39182754115E+03  0.13555604712E+04  0.60067475444E+03 0.  0.
         23    2    4    4    0    0  0.34080146696E+03 -0.52129334900E+02  0.14518845685E+03  0.38518952352E+03  0.91805084740E+02 0.  0.
         23    2    4    4    0    0  0.59482340960E+03  0.72131637813E+03  0.24663908429E+03  0.97037094769E+03  0.81711273643E+02 0.  0.
          1    1    3    3  502    0 -0.84175692170E+03 -0.62279752950E+03 -0.62404071912E+03  0.12189578734E+04  0.00000000000E+00 0. -1.
         -1    1    3    3    0  502 -0.93867954869E+02 -0.46389513733E+02 -0.36795928327E+02  0.11098252240E+03  0.00000000000E+00 0.  1.
         15    1    5    5    0    0  0.48540532315E+02 -0.19318946335E+02 -0.91210631543E+01  0.53063702160E+02  0.17770000000E+01 0. -1.
        -15    1    5    5    0    0  0.29226093465E+03 -0.32810388565E+02  0.15430952001E+03  0.33212582136E+03  0.17770000000E+01 0.  1.
          3    1    6    6  503    0  0.13598190562E+03  0.19218206941E+03  0.30408230172E+02  0.23738088997E+03  0.00000000000E+00 0. -1.
         -3    1    6    6    0  503  0.45884150398E+03  0.52913430872E+03  0.21623085412E+03  0.73299005772E+03  0.00000000000E+00 0.  1.
<mgrwt>
<rscale>  0 0.12169916E+04</rscale>
<asrwt>0</asrwt>
<pdfrwt beam="1">  1        1 0.22727000E+00 0.12169916E+04</pdfrwt>
<pdfrwt beam="2">  1       -1 0.18588398E+00 0.12169916E+04</pdfrwt>
<totfact> 0.12534046E+00</totfact>
</mgrwt>
</event>
<event>
12    1  0.8033771E-008  0.1422274E+04  0.7818608E-02  0.8937851E-01
         -2   -1    0    0    0  501 -0.00000000000E+00  0.00000000000E+00  0.22174826415E+04  0.22174826415E+04  0.00000000000E+00 0.  1.
          2   -1    0    0  501    0  0.00000000000E+00 -0.00000000000E+00 -0.10022742232E+04  0.10022742232E+04  0.00000000000E+00 0. -1.
         23    2    1    2    0    0 -0.68347866099E+03  0.11886803376E+04  0.14923536443E+03  0.13823095071E+04  0.91675266003E+02 0.  0.
    5000000    2    1    2    0    0  0.68347866099E+03 -0.11886803376E+04  0.10659730538E+04  0.18374473577E+04  0.59984182573E+03 0.  0.
         23    2    4    4    0    0  0.59007196236E+03 -0.49770009290E+03  0.69620558489E+03  0.10433235764E+04  0.89059336335E+02 0.  0.
         23    2    4    4    0    0  0.93406698631E+02 -0.69098024465E+03  0.36976746894E+03  0.79412378130E+03  0.87898174599E+02 0.  0.
          3    1    3    3  502    0 -0.55371495245E+03  0.93701842586E+03  0.15326737805E+03  0.10991335989E+04  0.00000000000E+00 0. -1.
         -3    1    3    3    0  502 -0.12976370854E+03  0.25166191169E+03 -0.40320136184E+01  0.28317590820E+03  0.00000000000E+00 0.  1.
         15    1    5    5    0    0  0.35322763964E+03 -0.32529706594E+03  0.48227654140E+03  0.68057458565E+03  0.17770000000E+01 0. -1.
        -15    1    5    5    0    0  0.23684432272E+03 -0.17240302697E+03  0.21392904349E+03  0.36274899075E+03  0.17770000000E+01 0.  1.
          4    1    6    6  503    0 -0.31274475332E+01 -0.16861788891E+03  0.12092461067E+03  0.20751996255E+03  0.00000000000E+00 0. -1.
         -4    1    6    6    0  503  0.96534146164E+02 -0.52236235573E+03  0.24884285827E+03  0.58660381875E+03  0.00000000000E+00 0.  1.
<mgrwt>
<rscale>  0 0.14222740E+04</rscale>
<asrwt>0</asrwt>
<pdfrwt beam="1">  1        2 0.15419603E+00 0.14222740E+04</pdfrwt>
<pdfrwt beam="2">  1       -2 0.34115117E+00 0.14222740E+04</pdfrwt>
<totfact> 0.42475646E-01</totfact>
</mgrwt>
</event>
<event>
12    1  0.8033771E-008  0.7788716E+03  0.7818608E-02  0.9591113E-01
         -2   -1    0    0    0  501 -0.00000000000E+00  0.00000000000E+00  0.36146738543E+03  0.36146738543E+03  0.00000000000E+00 0.  1.
          2   -1    0    0  501    0  0.00000000000E+00 -0.00000000000E+00 -0.17392306262E+04  0.17392306262E+04  0.00000000000E+00 0. -1.
         23    2    1    2    0    0 -0.67080878740E+03  0.22218883812E+02 -0.68889389710E+03  0.96716515240E+03  0.10176208771E+03 0.  0.
    5000000    2    1    2    0    0  0.67080878740E+03 -0.22218883812E+02 -0.68886934367E+03  0.11335328592E+04  0.59989804323E+03 0.  0.
         23    2    4    4    0    0  0.72236380345E+03  0.90216895543E+02 -0.63539558673E+03  0.97048961196E+03  0.90410079621E+02 0.  0.
         23    2    4    4    0    0 -0.51555016057E+02 -0.11243577935E+03 -0.53473756941E+02  0.16304324728E+03  0.91781989748E+02 0.  0.
          4    1    3    3  502    0 -0.43124652716E+03 -0.34496366215E+02 -0.44402270132E+03  0.61993525933E+03  0.00000000000E+00 0. -1.
         -4    1    3    3    0  502 -0.23956226024E+03  0.56715250027E+02 -0.24487119579E+03  0.34722989307E+03  0.00000000000E+00 0.  1.
         15    1    5    5    0    0  0.35377256846E+03  0.37411991133E+02 -0.25147979315E+03  0.43566033944E+03  0.17770000000E+01 0. -1.
        -15    1    5    5    0    0  0.36859123500E+03  0.52804904410E+02 -0.38391579358E+03  0.53482927251E+03  0.17770000000E+01 0.  1.
          1    1    6    6  503    0 -0.49784481906E+02 -0.13105795374E+02 -0.34309392968E+02  0.61865911105E+02  0.00000000000E+00 0. -1.
         -1    1    6    6    0  503 -0.17705341508E+01 -0.99329983981E+02 -0.19164363973E+02  0.10117733617E+03  0.00000000000E+00 0.  1.
<mgrwt>
<rscale>  0 0.77887157E+03</rscale>
<asrwt>0</asrwt>
<pdfrwt beam="1">  1        2 0.26757395E+00 0.77887157E+03</pdfrwt>
<pdfrwt beam="2">  1       -2 0.55610366E-01 0.77887157E+03</pdfrwt>
<totfact> 0.29016648E+01</totfact>
</mgrwt>
</event>
<event>
12    1  0.8033771E-008  0.4089814E+03  0.7818608E-02  0.1040713E+00
          2   -1    0    0  501    0  0.00000000000E+00  0.00000000000E+00  0.37033528295E+03  0.37033528295E+03  0.00000000000E+00 0. -1.
         -2   -1    0    0    0  501 -0.00000000000E+00 -0.00000000000E+00 -0.11924363678E+04  0.11924363678E+04  0.00000000000E+00 0.  1.
         23    2    1    2    0    0 -0.13625733939E+03 -0.34336628514E+03  0.10691530802E+03  0.39681514431E+03  0.97800344348E+02 0.  0.
    5000000    2    1    2    0    0  0.13625733939E+03  0.34336628514E+03 -0.92901639290E+03  0.11659565065E+04  0.59993053631E+03 0.  0.
         23    2    4    4    0    0  0.71864602818E+01  0.27021579938E+03 -0.94891168243E+03  0.99087479013E+03  0.91275655053E+02 0.  0.
         23    2    4    4    0    0  0.12907087911E+03  0.73150485759E+02  0.19895289533E+02  0.17508171635E+03  0.90815744514E+02 0.  0.
          1    1    3    3  502    0 -0.55842641445E+02 -0.10985516419E+03  0.83241541516E+02  0.14871352305E+03  0.00000000000E+00 0. -1.
         -1    1    3    3    0  502 -0.80414697948E+02 -0.23351112095E+03  0.23673766509E+02  0.24810162126E+03  0.00000000000E+00 0.  1.
         15    1    5    5    0    0  0.32685732259E+02  0.16272388011E+03 -0.68387268870E+03  0.70372752563E+03  0.17770000000E+01 0.  1.
        -15    1    5    5    0    0 -0.25499271977E+02  0.10749191927E+03 -0.26503899374E+03  0.28714726450E+03  0.17770000000E+01 0. -1.
          3    1    6    6  503    0  0.37340209953E+02  0.70194415412E+02  0.24472838663E+02  0.83189344670E+02  0.00000000000E+00 0. -1.
         -3    1    6    6    0  503  0.91730669159E+02  0.29560703464E+01 -0.45775491296E+01  0.91892371676E+02  0.00000000000E+00 0.  1.
<mgrwt>
<rscale>  0 0.40898136E+03</rscale>
<asrwt>0</asrwt>
<pdfrwt beam="1">  1        2 0.56974659E-01 0.40898136E+03</pdfrwt>
<pdfrwt beam="2">  1       -2 0.18345175E+00 0.40898136E+03</pdfrwt>
<totfact> 0.15762248E+01</totfact>
</mgrwt>
</event>
<event>
12    1  0.8033771E-008  0.7599933E+03  0.7818608E-02  0.9619802E-01
          2   -1    0    0  501    0  0.00000000000E+00  0.00000000000E+00  0.12540608894E+04  0.12540608894E+04  0.00000000000E+00 0. -1.
         -2   -1    0    0    0  501 -0.00000000000E+00 -0.00000000000E+00 -0.61078394865E+03  0.61078394865E+03  0.00000000000E+00 0.  1.
         23    2    1    2    0    0  0.65208504796E+03 -0.26017615468E+03  0.61996160262E+03  0.94100286857E+03  0.90705395105E+02 0.  0.
    5000000    2    1    2    0    0 -0.65208504796E+03  0.26017615468E+03  0.23315338174E+02  0.92384196952E+03  0.60002819803E+03 0.  0.
         23    2    4    4    0    0 -0.36727523135E+03  0.35032344443E+03  0.21255697985E+03  0.55831211903E+03  0.94415789446E+02 0.  0.
         23    2    4    4    0    0 -0.28480981660E+03 -0.90147289749E+02 -0.18924164168E+03  0.36552985049E+03  0.92501390104E+02 0.  0.
          1    1    3    3  502    0  0.30723069181E+03 -0.95620061905E+02  0.23371341417E+03  0.39768813685E+03  0.00000000000E+00 0. -1.
         -1    1    3    3    0  502  0.34485435615E+03 -0.16455609277E+03  0.38624818845E+03  0.54331473172E+03  0.00000000000E+00 0.  1.
         15    1    5    5    0    0 -0.22971515487E+03  0.16762838553E+03  0.14846814403E+03  0.32080254914E+03  0.17770000000E+01 0.  1.
        -15    1    5    5    0    0 -0.13756007648E+03  0.18269505889E+03  0.64088835825E+02  0.23750956989E+03  0.17770000000E+01 0. -1.
          3    1    6    6  503    0 -0.22213704900E+03 -0.91762621870E+02 -0.18386148819E+03  0.30260583958E+03  0.00000000000E+00 0. -1.
         -3    1    6    6    0  503 -0.62672767606E+02  0.16153321212E+01 -0.53801534900E+01  0.62924010909E+02  0.00000000000E+00 0.  1.
<mgrwt>
<rscale>  0 0.75999333E+03</rscale>
<asrwt>0</asrwt>
<pdfrwt beam="1">  1        2 0.19293244E+00 0.75999333E+03</pdfrwt>
<pdfrwt beam="2">  1       -2 0.93966762E-01 0.75999333E+03</pdfrwt>
<totfact> 0.17135931E+01</totfact>
</mgrwt>
</event>
<event>
12    1  0.8033771E-008  0.5330460E+03  0.7818608E-02  0.1005496E+00
         -2   -1    0    0    0  501 -0.00000000000E+00  0.00000000000E+00  0.85516712539E+03  0.85516712539E+03  0.00000000000E+00 0.  1.
          2   -1    0    0  501    0  0.00000000000E+00 -0.00000000000E+00 -0.45720488524E+03  0.45720488524E+03  0.00000000000E+00 0. -1.
         23    2    1    2    0    0 -0.79782881691E+02  0.34838665581E+03 -0.17540520929E+03  0.40879147782E+03  0.92762679637E+02 0.  0.
    5000000    2    1    2    0    0  0.79782881691E+02 -0.34838665581E+03  0.57336744945E+03  0.90358053281E+03  0.59997414697E+03 0.  0.
         23    2    4    4    0    0  0.31627064297E+03 -0.10028478772E+03  0.29706228697E+03  0.45424417687E+03  0.89485259303E+02 0.  0.
         23    2    4    4    0    0 -0.23648776128E+03 -0.24810186809E+03  0.27630516248E+03  0.44933635594E+03  0.89875579418E+02 0.  0.
          4    1    3    3  502    0 -0.10060829126E+03  0.30219383715E+03 -0.15414997805E+03  0.35384369320E+03  0.00000000000E+00 0. -1.
         -4    1    3    3    0  502  0.20825409574E+02  0.46192818656E+02 -0.21255231238E+02  0.54947784617E+02  0.00000000000E+00 0.  1.
         15    1    5    5    0    0  0.24296407338E+03 -0.11408546115E+03  0.22100139679E+03  0.34769499351E+03  0.17770000000E+01 0. -1.
        -15    1    5    5    0    0  0.73306569591E+02  0.13800673429E+02  0.76060890176E+02  0.10654918336E+03  0.17770000000E+01 0.  1.
          3    1    6    6  503    0 -0.10432283305E+03 -0.17258486630E+03  0.14608315964E+03  0.24901622257E+03  0.00000000000E+00 0. -1.
         -3    1    6    6    0  503 -0.13216492822E+03 -0.75517001791E+02  0.13022200284E+03  0.20032013338E+03  0.00000000000E+00 0.  1.
<mgrwt>
<rscale>  0 0.53304603E+03</rscale>
<asrwt>0</asrwt>
<pdfrwt beam="1">  1        2 0.70339213E-01 0.53304603E+03</pdfrwt>
<pdfrwt beam="2">  1       -2 0.13156417E+00 0.53304603E+03</pdfrwt>
<totfact> 0.29700146E+01</totfact>
</mgrwt>
</event>
<event>
12    1  0.8033771E-008  0.5947689E+03  0.7818608E-02  0.9916319E-01
          2   -1    0    0  501    0  0.00000000000E+00  0.00000000000E+00  0.22585316940E+03  0.22585316940E+03  0.00000000000E+00 0. -1.
         -2   -1    0    0    0  501 -0.00000000000E+00 -0.00000000000E+00 -0.16715153253E+04  0.16715153253E+04  0.00000000000E+00 0.  1.
         23    2    1    2    0    0 -0.12796518638E+03  0.43660339123E+03 -0.42624877663E+03  0.63002090263E+03  0.90778345525E+02 0.  0.
    5000000    2    1    2    0    0  0.12796518638E+03 -0.43660339123E+03 -0.10194133792E+04  0.12673475920E+04  0.59997389202E+03 0.  0.
         23    2    4    4    0    0  0.19618695381E+03  0.75113433979E+02 -0.30916903002E+03  0.38454440277E+03  0.90319210390E+02 0.  0.
         23    2    4    4    0    0 -0.68221767431E+02 -0.51171682521E+03 -0.71024434920E+03  0.88280318926E+03  0.91575742605E+02 0.  0.
          2    1    3    3  502    0 -0.73010796067E+02  0.12832158291E+03 -0.17189176404E+03  0.22659166694E+03  0.00000000000E+00 0.  1.
         -2    1    3    3    0  502 -0.54954390311E+02  0.30828180832E+03 -0.25435701260E+03  0.40342923570E+03  0.00000000000E+00 0. -1.
         15    1    5    5    0    0  0.13562281814E+03  0.48216338003E+02 -0.27397460380E+03  0.30948926525E+03  0.17770000000E+01 0. -1.
        -15    1    5    5    0    0  0.60564135670E+02  0.26897095977E+02 -0.35194426227E+02  0.75055137518E+02  0.17770000000E+01 0.  1.
          1    1    6    6  503    0 -0.67335976440E+02 -0.33011874281E+03 -0.52162682176E+03  0.62097267191E+03  0.00000000000E+00 0. -1.
         -1    1    6    6    0  503 -0.88579099059E+00 -0.18159808239E+03 -0.18861752744E+03  0.26183051735E+03  0.00000000000E+00 0.  1.
<mgrwt>
<rscale>  0 0.59476890E+03</rscale>
<asrwt>0</asrwt>
<pdfrwt beam="1">  1        2 0.34746640E-01 0.59476890E+03</pdfrwt>
<pdfrwt beam="2">  1       -2 0.25715622E+00 0.59476890E+03</pdfrwt>
<totfact> 0.91726185E+00</totfact>
</mgrwt>
</event>
<event>
12    1  0.8033771E-008  0.3781946E+03  0.7818608E-02  0.1051603E+00
         -1   -1    0    0    0  501 -0.00000000000E+00  0.00000000000E+00  0.31127454918E+03  0.31127454918E+03  0.00000000000E+00 0.  1.
          1   -1    0    0  501    0  0.00000000000E+00 -0.00000000000E+00 -0.74392228065E+03  0.74392228065E+03  0.00000000000E+00 0. -1.
         23    2    1    2    0    0  0.13242513408E+03  0.14927741835E+03 -0.35732534546E+03  0.41854219932E+03  0.87612820643E+02 0.  0.
    5000000    2    1    2    0    0 -0.13242513408E+03 -0.14927741835E+03 -0.75322386018E+02  0.63665463051E+03  0.59986289512E+03 0.  0.
         23    2    4    4    0    0  0.11500277790E+03 -0.24270215460E+03 -0.18086747248E+03  0.33720616686E+03  0.94154031206E+02 0.  0.
         23    2    4    4    0    0 -0.24742791198E+03  0.93424736251E+02  0.10554508646E+03  0.29944846365E+03  0.92632953834E+02 0.  0.
          3    1    3    3  502    0  0.63900836509E+02  0.27832450907E+02 -0.68042164131E+02  0.97404816768E+02  0.00000000000E+00 0. -1.
         -3    1    3    3    0  502  0.68524297576E+02  0.12144496744E+03 -0.28928318133E+03  0.32113738256E+03  0.00000000000E+00 0.  1.
         15    1    5    5    0    0  0.10845414926E+03 -0.13046066681E+03 -0.13024276487E+03  0.21388927884E+03  0.17770000000E+01 0.  1.
        -15    1    5    5    0    0  0.65486286383E+01 -0.11224148779E+03 -0.50624707616E+02  0.12331688801E+03  0.17770000000E+01 0. -1.
          1    1    6    6  503    0 -0.86189019858E+02  0.42139434334E+02 -0.70699594878E+01  0.96199082102E+02  0.00000000000E+00 0. -1.
         -1    1    6    6    0  503 -0.16123889212E+03  0.51285301917E+02  0.11261504595E+03  0.20324938155E+03  0.00000000000E+00 0.  1.
<mgrwt>
<rscale>  0 0.37819457E+03</rscale>
<asrwt>0</asrwt>
<pdfrwt beam="1">  1        1 0.11444958E+00 0.37819457E+03</pdfrwt>
<pdfrwt beam="2">  1       -1 0.47888393E-01 0.37819457E+03</pdfrwt>
<totfact> 0.11406007E+02</totfact>
</mgrwt>
</event>
<event>
12    1  0.8033771E-008  0.5353083E+03  0.7818608E-02  0.1004953E+00
          1   -1    0    0  501    0  0.00000000000E+00  0.00000000000E+00  0.58275548506E+03  0.58275548506E+03  0.00000000000E+00 0. -1.
         -1   -1    0    0    0  501 -0.00000000000E+00 -0.00000000000E+00 -0.53462586838E+03  0.53462586838E+03  0.00000000000E+00 0.  1.
         23    2    1    2    0    0 -0.15283568682E+03 -0.34242205990E+03 -0.91967552826E+02  0.39622933181E+03  0.89039532466E+02 0.  0.
    5000000    2    1    2    0    0  0.15283568682E+03  0.34242205990E+03  0.14009716951E+03  0.72115202162E+03  0.59985115413E+03 0.  0.
         23    2    4    4    0    0  0.31293179228E+03  0.38787509373E+03  0.44229609262E+02  0.50852286345E+03  0.90916716573E+02 0.  0.
         23    2    4    4    0    0 -0.16009610546E+03 -0.45453033832E+02  0.95867560243E+02  0.21262915817E+03  0.91235018118E+02 0.  0.
          4    1    3    3  502    0 -0.89616637500E+02 -0.27007423435E+03 -0.95315190473E+02  0.30009368423E+03  0.00000000000E+00 0. -1.
         -4    1    3    3    0  502 -0.63219049322E+02 -0.72347825552E+02  0.33476376472E+01  0.96135647588E+02  0.00000000000E+00 0.  1.
         15    1    5    5    0    0  0.14263115384E+03  0.13419407188E+03 -0.18112920494E+02  0.19667976660E+03  0.17770000000E+01 0. -1.
        -15    1    5    5    0    0  0.17030063844E+03  0.25368102186E+03  0.62342529756E+02  0.31184309684E+03  0.17770000000E+01 0.  1.
          4    1    6    6  503    0 -0.29264073878E+02 -0.49718306041E+02  0.18557308356E+02  0.60602554970E+02  0.00000000000E+00 0. -1.
         -4    1    6    6    0  503 -0.13083203158E+03  0.42652722093E+01  0.77310251887E+02  0.15202660320E+03  0.00000000000E+00 0.  1.
<mgrwt>
<rscale>  0 0.53530829E+03</rscale>
<asrwt>0</asrwt>
<pdfrwt beam="1">  1        1 0.89654690E-01 0.53530829E+03</pdfrwt>
<pdfrwt beam="2">  1       -1 0.82250134E-01 0.53530829E+03</pdfrwt>
<totfact> 0.54790989E+01</totfact>
</mgrwt>
</event>
<event>
12    1  0.8033771E-008  0.1294050E+04  0.7818608E-02  0.9034297E-01
          2   -1    0    0  501    0  0.00000000000E+00  0.00000000000E+00  0.12697017726E+04  0.12697017726E+04  0.00000000000E+00 0. -1.
         -2   -1    0    0    0  501 -0.00000000000E+00 -0.00000000000E+00 -0.21569759339E+04  0.21569759339E+04  0.00000000000E+00 0.  1.
         23    2    1    2    0    0 -0.11850209337E+04  0.44639325940E+03  0.58177057907E+03  0.13964611204E+04  0.90028321984E+02 0.  0.
    5000000    2    1    2    0    0  0.11850209337E+04 -0.44639325940E+03 -0.14690447404E+04  0.20302165860E+04  0.60012113904E+03 0.  0.
         23    2    4    4    0    0  0.21633224065E+03 -0.21631086230E+03 -0.69763530993E+03  0.76741310239E+03  0.92939854554E+02 0.  0.
         23    2    4    4    0    0  0.96868869306E+03 -0.23008239710E+03 -0.77140943046E+03  0.12628034836E+04  0.91128674700E+02 0.  0.
          3    1    3    3  502    0 -0.10019646018E+04  0.41139855419E+03  0.49632233302E+03  0.11914351396E+04  0.00000000000E+00 0. -1.
         -3    1    3    3    0  502 -0.18305633196E+03  0.34994705209E+02  0.85448246050E+02  0.20502598083E+03  0.00000000000E+00 0.  1.
         15    1    5    5    0    0  0.21922933231E+03 -0.18336882595E+03 -0.60717533318E+03  0.67108171591E+03  0.17770000000E+01 0. -1.
        -15    1    5    5    0    0 -0.28970916582E+01 -0.32942036346E+02 -0.90459976748E+02  0.96331386479E+02  0.17770000000E+01 0.  1.
          1    1    6    6  503    0  0.59419986540E+03 -0.96057593826E+02 -0.47467588649E+03  0.76656228617E+03  0.00000000000E+00 0. -1.
         -1    1    6    6    0  503  0.37448882766E+03 -0.13402480328E+03 -0.29673354398E+03  0.49624119747E+03  0.00000000000E+00 0.  1.
<mgrwt>
<rscale>  0 0.12940496E+04</rscale>
<asrwt>0</asrwt>
<pdfrwt beam="1">  1        2 0.19533874E+00 0.12940496E+04</pdfrwt>
<pdfrwt beam="2">  1       -2 0.33184244E+00 0.12940496E+04</pdfrwt>
<totfact> 0.33675861E-01</totfact>
</mgrwt>
</event>
<event>
12    1  0.8033771E-008  0.7347437E+03  0.7818608E-02  0.9659594E-01
          1   -1    0    0  501    0  0.00000000000E+00  0.00000000000E+00  0.67309832819E+03  0.67309832819E+03  0.00000000000E+00 0. -1.
         -1   -1    0    0    0  501 -0.00000000000E+00 -0.00000000000E+00 -0.10574550254E+04  0.10574550254E+04  0.00000000000E+00 0.  1.
         23    2    1    2    0    0 -0.34177081208E+03  0.60420799374E+03 -0.41249124424E+03  0.81262973885E+03  0.91342641769E+02 0.  0.
    5000000    2    1    2    0    0  0.34177081208E+03 -0.60420799374E+03  0.28134547047E+02  0.91792361472E+03  0.59993134777E+03 0.  0.
         23    2    4    4    0    0  0.27398611842E+03 -0.18550710230E+03  0.25484498835E+03  0.42800271205E+03  0.93589931874E+02 0.  0.
         23    2    4    4    0    0  0.67784693659E+02 -0.41870089144E+03 -0.22671044130E+03  0.48992090266E+03  0.93379149079E+02 0.  0.
          3    1    3    3  502    0 -0.69058311576E+02  0.61717453302E+02 -0.63549386671E+02  0.11232372406E+03  0.00000000000E+00 0. -1.
         -3    1    3    3    0  502 -0.27271250050E+03  0.54249054044E+03 -0.34894185756E+03  0.70030601479E+03  0.00000000000E+00 0.  1.
         15    1    5    5    0    0  0.18141122081E+03 -0.74868192787E+02  0.17586338419E+03  0.26352678223E+03  0.17770000000E+01 0. -1.
        -15    1    5    5    0    0  0.92574897609E+02 -0.11063890951E+03  0.78981604165E+02  0.16447592982E+03  0.17770000000E+01 0.  1.
          2    1    6    6  503    0 -0.13144666608E+02 -0.64861556361E+02 -0.64277854693E+02  0.92257500279E+02  0.00000000000E+00 0. -1.
         -2    1    6    6    0  503  0.80929360267E+02 -0.35383933508E+03 -0.16243258661E+03  0.39766340238E+03  0.00000000000E+00 0.  1.
<mgrwt>
<rscale>  0 0.73474372E+03</rscale>
<asrwt>0</asrwt>
<pdfrwt beam="1">  1        1 0.10355359E+00 0.73474372E+03</pdfrwt>
<pdfrwt beam="2">  1       -1 0.16268539E+00 0.73474372E+03</pdfrwt>
<totfact> 0.83372297E+00</totfact>
</mgrwt>
</event>
<event>
12    1  0.8033771E-008  0.5927675E+03  0.7818608E-02  0.9920526E-01
          2   -1    0    0  501    0  0.00000000000E+00  0.00000000000E+00  0.79258762392E+03  0.79258762392E+03  0.00000000000E+00 0. -1.
         -2   -1    0    0    0  501 -0.00000000000E+00 -0.00000000000E+00 -0.54769749040E+03  0.54769749040E+03  0.00000000000E+00 0.  1.
         23    2    1    2    0    0  0.41034638207E+03 -0.28298960600E+03  0.23893151688E+03  0.56019222914E+03  0.90883405797E+02 0.  0.
    5000000    2    1    2    0    0 -0.41034638207E+03  0.28298960600E+03  0.59586166438E+01  0.78009288518E+03  0.60003511065E+03 0.  0.
         23    2    4    4    0    0  0.50073232265E+02 -0.80000858907E+02  0.12399490293E+03  0.17504199709E+03  0.79733924867E+02 0.  0.
         23    2    4    4    0    0 -0.46041961434E+03  0.36299046491E+03 -0.11803628629E+03  0.60505088810E+03  0.91682677881E+02 0.  0.
          3    1    3    3  502    0  0.27060518932E+03 -0.17518905504E+03  0.10635664686E+03  0.33945560803E+03  0.00000000000E+00 0. -1.
         -3    1    3    3    0  502  0.13974119276E+03 -0.10780055096E+03  0.13257487002E+03  0.22073662111E+03  0.00000000000E+00 0.  1.
         15    1    5    5    0    0 -0.25754586480E+01 -0.10538072325E+02  0.73454874148E+02  0.74272876749E+02  0.17770000000E+01 0. -1.
        -15    1    5    5    0    0  0.52648690913E+02 -0.69462786582E+02  0.50540028787E+02  0.10076912034E+03  0.17770000000E+01 0.  1.
          4    1    6    6  503    0 -0.30367938110E+03  0.20802343580E+03 -0.35949139203E+02  0.36984761316E+03  0.00000000000E+00 0. -1.
         -4    1    6    6    0  503 -0.15674023324E+03  0.15496702910E+03 -0.82087147088E+02  0.23520327494E+03  0.00000000000E+00 0.  1.
<mgrwt>
<rscale>  0 0.59276749E+03</rscale>
<asrwt>0</asrwt>
<pdfrwt beam="1">  1        2 0.12193656E+00 0.59276749E+03</pdfrwt>
<pdfrwt beam="2">  1       -2 0.84261153E-01 0.59276749E+03</pdfrwt>
<totfact> 0.44083646E+01</totfact>
</mgrwt>
</event>
<event>
12    1  0.8033771E-008  0.6389095E+03  0.7818608E-02  0.9827815E-01
          2   -1    0    0  501    0  0.00000000000E+00  0.00000000000E+00  0.12130960311E+04  0.12130960311E+04  0.00000000000E+00 0. -1.
         -2   -1    0    0    0  501 -0.00000000000E+00 -0.00000000000E+00 -0.48830336789E+03  0.48830336789E+03  0.00000000000E+00 0.  1.
         23    2    1    2    0    0 -0.48796028694E+03 -0.24756557575E+03 -0.77252835524E+02  0.56002861012E+03  0.90940022138E+02 0.  0.
    5000000    2    1    2    0    0  0.48796028694E+03  0.24756557575E+03  0.80204549874E+03  0.11413707889E+04  0.60004694794E+03 0.  0.
         23    2    4    4    0    0  0.49889573618E+03  0.44431399442E+02  0.75940642078E+03  0.91422152115E+03  0.90729118663E+02 0.  0.
         23    2    4    4    0    0 -0.10935449244E+02  0.20313417631E+03  0.42639077960E+02  0.22714926773E+03  0.91627622616E+02 0.  0.
          4    1    3    3  502    0 -0.14801896569E+03 -0.10570348435E+03  0.75313455125E+01  0.18204274765E+03  0.00000000000E+00 0. -1.
         -4    1    3    3    0  502 -0.33994132125E+03 -0.14186209140E+03 -0.84784181037E+02  0.37798586247E+03  0.00000000000E+00 0.  1.
         15    1    5    5    0    0  0.45502941059E+03  0.14449786510E+02  0.69285862018E+03  0.82904570810E+03  0.17770000000E+01 0. -1.
        -15    1    5    5    0    0  0.43866325594E+02  0.29981612932E+02  0.66547800602E+02  0.85175813052E+02  0.17770000000E+01 0.  1.
          3    1    6    6  503    0 -0.34425186369E+02  0.18818812152E+03  0.22166229113E+02  0.19259076887E+03  0.00000000000E+00 0. -1.
         -3    1    6    6    0  503  0.23489737125E+02  0.14946054785E+02  0.20472848847E+02  0.34558498864E+02  0.00000000000E+00 0.  1.
<mgrwt>
<rscale>  0 0.63890952E+03</rscale>
<asrwt>0</asrwt>
<pdfrwt beam="1">  1        2 0.18663016E+00 0.63890952E+03</pdfrwt>
<pdfrwt beam="2">  1       -2 0.75123595E-01 0.63890952E+03</pdfrwt>
<totfact> 0.30535923E+01</totfact>
</mgrwt>
</event>
<event>
12    1  0.8033771E-008  0.9010313E+03  0.7818608E-02  0.9424293E-01
         -2   -1    0    0    0  501 -0.00000000000E+00  0.00000000000E+00  0.22904337269E+03  0.22904337269E+03  0.00000000000E+00 0.  1.
          2   -1    0    0  501    0  0.00000000000E+00 -0.00000000000E+00 -0.39843808079E+04  0.39843808079E+04  0.00000000000E+00 0. -1.
         23    2    1    2    0    0  0.69658211034E+03 -0.49646969913E+03 -0.18571736515E+04  0.20467031073E+04  0.90503254471E+02 0.  0.
    5000000    2    1    2    0    0 -0.69658211034E+03  0.49646969913E+03 -0.18981637838E+04  0.21667210733E+04  0.59995471580E+03 0.  0.
         23    2    4    4    0    0 -0.53250607401E+03  0.54966619613E+03 -0.17843660168E+04  0.19437306203E+04  0.91820456881E+02 0.  0.
         23    2    4    4    0    0 -0.16407603634E+03 -0.53196497006E+02 -0.11379776697E+03  0.22299045305E+03  0.83809291791E+02 0.  0.
          1    1    3    3  502    0  0.61061356865E+03 -0.40081288541E+03 -0.15395443518E+04  0.17040236825E+04  0.00000000000E+00 0. -1.
         -1    1    3    3    0  502  0.85968541695E+02 -0.95656813714E+02 -0.31762929968E+03  0.34267942480E+03  0.00000000000E+00 0.  1.
         15    1    5    5    0    0 -0.13692997783E+03  0.17156422198E+03 -0.60509687125E+03  0.64368430338E+03  0.17770000000E+01 0. -1.
        -15    1    5    5    0    0 -0.39557609618E+03  0.37810197415E+03 -0.11792691455E+04  0.13000463169E+04  0.17770000000E+01 0.  1.
          3    1    6    6  503    0 -0.13403413208E+03 -0.27610119654E+02 -0.12124500730E+03  0.18283276256E+03  0.00000000000E+00 0. -1.
         -3    1    6    6    0  503 -0.30041904254E+02 -0.25586377352E+02  0.74472403250E+01  0.40157690492E+02  0.00000000000E+00 0.  1.
<mgrwt>
<rscale>  0 0.90103135E+03</rscale>
<asrwt>0</asrwt>
<pdfrwt beam="1">  1        2 0.61298164E+00 0.90103135E+03</pdfrwt>
<pdfrwt beam="2">  1       -2 0.35237443E-01 0.90103135E+03</pdfrwt>
<totfact> 0.28566249E+00</totfact>
</mgrwt>
</event>
<event>
12    1  0.8033771E-008  0.5155268E+03  0.7818608E-02  0.1009804E+00
         -1   -1    0    0    0  501 -0.00000000000E+00  0.00000000000E+00  0.14480424510E+03  0.14480424510E+03  0.00000000000E+00 0.  1.
          1   -1    0    0  501    0  0.00000000000E+00 -0.00000000000E+00 -0.21047105652E+04  0.21047105652E+04  0.00000000000E+00 0. -1.
         23    2    1    2    0    0 -0.23391036145E+03  0.27494767276E+03 -0.44134955342E+03  0.57726214460E+03  0.90176911284E+02 0.  0.
    5000000    2    1    2    0    0  0.23391036145E+03 -0.27494767276E+03 -0.15185567667E+04  0.16722526657E+04  0.60008669740E+03 0.  0.
         23    2    4    4    0    0  0.39746951508E+03 -0.29842965731E+03 -0.10001891122E+04  0.11206072679E+04  0.91324218531E+02 0.  0.
         23    2    4    4    0    0 -0.16355915363E+03  0.23481984552E+02 -0.51836765452E+03  0.55164539786E+03  0.91129684479E+02 0.  0.
          2    1    3    3  502    0 -0.12668181172E+03  0.16317913161E+03 -0.31822950159E+03  0.37940180033E+03  0.00000000000E+00 0. -1.
         -2    1    3    3    0  502 -0.10722854973E+03  0.11176854116E+03 -0.12312005183E+03  0.19786034426E+03  0.00000000000E+00 0.  1.
         15    1    5    5    0    0  0.15249203293E+03 -0.92948391391E+02 -0.27305527794E+03  0.32627529190E+03  0.17770000000E+01 0. -1.
        -15    1    5    5    0    0  0.24497748215E+03 -0.20548126592E+03 -0.72713383425E+03  0.79433197597E+03  0.17770000000E+01 0.  1.
          2    1    6    6  503    0 -0.16855836682E+02 -0.11523165470E+02 -0.12889602817E+02  0.24146313041E+02  0.00000000000E+00 0. -1.
         -2    1    6    6    0  503 -0.14670331695E+03  0.35005150022E+02 -0.50547805170E+03  0.52749908482E+03  0.00000000000E+00 0.  1.
<mgrwt>
<rscale>  0 0.51552680E+03</rscale>
<asrwt>0</asrwt>
<pdfrwt beam="1">  1        1 0.32380159E+00 0.51552680E+03</pdfrwt>
<pdfrwt beam="2">  1       -1 0.22277579E-01 0.51552680E+03</pdfrwt>
<totfact> 0.46240751E+01</totfact>
</mgrwt>
</event>
<event>
12    1  0.8033771E-008  0.3997705E+03  0.7818608E-02  0.1043859E+00
          2   -1    0    0  501    0  0.00000000000E+00  0.00000000000E+00  0.27719751030E+04  0.27719751030E+04  0.00000000000E+00 0. -1.
         -2   -1    0    0    0  501 -0.00000000000E+00 -0.00000000000E+00 -0.11387534565E+03  0.11387534565E+03  0.00000000000E+00 0.  1.
         23    2    1    2    0    0  0.27215667714E+03  0.24239779837E+03  0.56872555663E+03  0.68166511727E+03  0.91611264417E+02 0.  0.
    5000000    2    1    2    0    0 -0.27215667714E+03 -0.24239779837E+03  0.20893742007E+04  0.22041853314E+04  0.60010205375E+03 0.  0.
         23    2    4    4    0    0 -0.21691848396E+03 -0.21224826704E+03  0.39379339000E+03  0.50476791274E+03  0.87260851373E+02 0.  0.
         23    2    4    4    0    0 -0.55238193184E+02 -0.30149531332E+02  0.16955808107E+04  0.16994174187E+04  0.95210424308E+02 0.  0.
          4    1    3    3  502    0  0.16419474023E+03  0.19608371120E+03  0.42523036411E+03  0.49621527292E+03  0.00000000000E+00 0. -1.
         -4    1    3    3    0  502  0.10796193691E+03  0.46314087166E+02  0.14349519252E+03  0.18544984435E+03  0.00000000000E+00 0.  1.
         15    1    5    5    0    0 -0.59943197754E+02 -0.10872872278E+03  0.12047985731E+03  0.17301351352E+03  0.17770000000E+01 0. -1.
        -15    1    5    5    0    0 -0.15697528620E+03 -0.10351954426E+03  0.27331353269E+03  0.33175439922E+03  0.17770000000E+01 0.  1.
          1    1    6    6  503    0 -0.88719009547E+01 -0.58885025085E+02  0.90439556647E+03  0.90635395815E+03  0.00000000000E+00 0. -1.
         -1    1    6    6    0  503 -0.46366292229E+02  0.28735493753E+02  0.79118524426E+03  0.79306346051E+03  0.00000000000E+00 0.  1.
<mgrwt>
<rscale>  0 0.39977055E+03</rscale>
<asrwt>0</asrwt>
<pdfrwt beam="1">  1        2 0.42645766E+00 0.39977055E+03</pdfrwt>
<pdfrwt beam="2">  1       -2 0.17519286E-01 0.39977055E+03</pdfrwt>
<totfact> 0.72079049E+01</totfact>
</mgrwt>
</event>
<event>
12    1  0.8033771E-008  0.1082788E+04  0.7818608E-02  0.9222132E-01
          2   -1    0    0  501    0  0.00000000000E+00  0.00000000000E+00  0.19671616140E+04  0.19671616140E+04  0.00000000000E+00 0. -1.
         -2   -1    0    0    0  501 -0.00000000000E+00 -0.00000000000E+00 -0.11703233322E+04  0.11703233322E+04  0.00000000000E+00 0.  1.
         23    2    1    2    0    0 -0.66081399608E+03  0.75532002741E+03  0.14744754227E+04  0.17860476127E+04  0.93299633145E+02 0.  0.
    5000000    2    1    2    0    0  0.66081399608E+03 -0.75532002741E+03 -0.67763714088E+03  0.13514373335E+04  0.60000607543E+03 0.  0.
         23    2    4    4    0    0  0.73345964570E+03 -0.52266255710E+03 -0.47529862339E+03  0.10223954986E+04  0.90799634797E+02 0.  0.
         23    2    4    4    0    0 -0.72645649620E+02 -0.23265747031E+03 -0.20233851749E+03  0.32904183494E+03  0.88998677426E+02 0.  0.
          4    1    3    3  502    0 -0.46437661500E+03  0.56547024755E+03  0.11330889168E+04  0.13488116009E+04  0.00000000000E+00 0. -1.
         -4    1    3    3    0  502 -0.19643738108E+03  0.18984977986E+03  0.34138650586E+03  0.43723601176E+03  0.00000000000E+00 0.  1.
         15    1    5    5    0    0 -0.50512912713E+00  0.21737243625E+00 -0.61345354547E+01  0.64103557199E+01  0.17770000000E+01 0.  1.
        -15    1    5    5    0    0  0.73396477482E+03 -0.52287992954E+03 -0.46916408793E+03  0.10159851429E+04  0.17770000000E+01 0. -1.
          2    1    6    6  503    0 -0.91250583197E+02 -0.20400524427E+03 -0.16112759035E+03  0.27551208503E+03  0.00000000000E+00 0. -1.
         -2    1    6    6    0  503  0.18604933577E+02 -0.28652226033E+02 -0.41210927139E+02  0.53529749912E+02  0.00000000000E+00 0.  1.
<mgrwt>
<rscale>  0 0.10827880E+04</rscale>
<asrwt>0</asrwt>
<pdfrwt beam="1">  1        2 0.30264025E+00 0.10827880E+04</pdfrwt>
<pdfrwt beam="2">  1       -2 0.18004974E+00 0.10827880E+04</pdfrwt>
<totfact> 0.12448047E+00</totfact>
</mgrwt>
</event>
<event>
12    1  0.8033771E-008  0.4316521E+03  0.7818608E-02  0.1033339E+00
          1   -1    0    0  501    0  0.00000000000E+00  0.00000000000E+00  0.20101861719E+04  0.20101861719E+04  0.00000000000E+00 0. -1.
         -1   -1    0    0    0  501 -0.00000000000E+00 -0.00000000000E+00 -0.13121162929E+03  0.13121162929E+03  0.00000000000E+00 0.  1.
         23    2    1    2    0    0 -0.27184671823E+03 -0.17229165120E+03  0.78158391496E+03  0.85014629271E+03  0.91050818697E+02 0.  0.
    5000000    2    1    2    0    0  0.27184671823E+03  0.17229165120E+03  0.10973906276E+04  0.12912515085E+04  0.59956585728E+03 0.  0.
         23    2    4    4    0    0 -0.10838483964E+03  0.88688509673E+02  0.61952950306E+02  0.18145973287E+03  0.97347528939E+02 0.  0.
         23    2    4    4    0    0  0.38023155787E+03  0.83603141531E+02  0.10354376773E+04  0.11097917756E+04  0.89112730172E+02 0.  0.
          3    1    3    3  502    0 -0.21277038197E+03 -0.17025075302E+03  0.68072720412E+03  0.73324353443E+03  0.00000000000E+00 0. -1.
         -3    1    3    3    0  502 -0.59076336268E+02 -0.20408981893E+01  0.10085671084E+03  0.11690275828E+03  0.00000000000E+00 0.  1.
         15    1    5    5    0    0 -0.86463296802E+02  0.56282878347E+02  0.87004321776E+02  0.13496878834E+03  0.17770000000E+01 0.  1.
        -15    1    5    5    0    0 -0.21921542838E+02  0.32405631327E+02 -0.25051371470E+02  0.46490944533E+02  0.17770000000E+01 0. -1.
          1    1    6    6  503    0  0.27032365541E+03  0.61685519088E+02  0.61392890036E+03  0.67363838715E+03  0.00000000000E+00 0. -1.
         -1    1    6    6    0  503  0.10990790246E+03  0.21917622444E+02  0.42150877695E+03  0.43615338844E+03  0.00000000000E+00 0.  1.
<mgrwt>
<rscale>  0 0.43165209E+03</rscale>
<asrwt>0</asrwt>
<pdfrwt beam="1">  1        1 0.30925939E+00 0.43165209E+03</pdfrwt>
<pdfrwt beam="2">  1       -1 0.20186406E-01 0.43165209E+03</pdfrwt>
<totfact> 0.63892808E+01</totfact>
</mgrwt>
</event>
<event>
12    1  0.1035413E-007  0.8930322E+03  0.7818608E-02  0.9434334E-01
          1   -1    0    0  501    0  0.00000000000E+00  0.00000000000E+00  0.90619746381E+03  0.90619746381E+03  0.00000000000E+00 0. -1.
         -1   -1    0    0    0  501 -0.00000000000E+00 -0.00000000000E+00 -0.95572194453E+03  0.95572194453E+03  0.00000000000E+00 0.  1.
         23    2    1    2    0    0  0.19937242048E+03  0.78247891029E+03 -0.22162604713E+03  0.84126781708E+03  0.81183915738E+02 0.  0.
    5000000    2    1    2    0    0 -0.19937242048E+03 -0.78247891029E+03  0.17210156641E+03  0.10206515913E+04  0.60007342425E+03 0.  0.
         23    2    4    4    0    0 -0.13347318253E+03 -0.85012938549E+03  0.19853923488E+03  0.88763852983E+03  0.89158674947E+02 0.  0.
         23    2    4    4    0    0 -0.65899237951E+02  0.67650475197E+02 -0.26437668462E+02  0.13301306144E+03  0.89856707283E+02 0.  0.
          3    1    3    3  502    0  0.16986853363E+03  0.51961413223E+03 -0.13759205536E+03  0.56372487867E+03  0.00000000000E+00 0. -1.
         -3    1    3    3    0  502  0.29503886849E+02  0.26286477806E+03 -0.84033991776E+02  0.27754293840E+03  0.00000000000E+00 0.  1.
         15    1    5    5    0    0 -0.10099104983E+03 -0.38402877600E+03  0.11054797057E+03  0.41219085927E+03  0.17770000000E+01 0.  1.
        -15    1    5    5    0    0 -0.32482132704E+02 -0.46610060949E+03  0.87991264304E+02  0.47544767055E+03  0.17770000000E+01 0. -1.
          4    1    6    6  503    0 -0.13958291762E+02  0.55469838047E+02 -0.48778950865E+02  0.75173950870E+02  0.00000000000E+00 0. -1.
         -4    1    6    6    0  503 -0.51940946189E+02  0.12180637150E+02  0.22341282403E+02  0.57839110573E+02  0.00000000000E+00 0.  1.
<mgrwt>
<rscale>  0 0.89303225E+03</rscale>
<asrwt>0</asrwt>
<pdfrwt beam="1">  1        1 0.13941499E+00 0.89303225E+03</pdfrwt>
<pdfrwt beam="2">  1       -1 0.14703415E+00 0.89303225E+03</pdfrwt>
<totfact> 0.67178999E+00</totfact>
</mgrwt>
</event>
<event>
12    1  0.8033771E-008  0.8214546E+03  0.7818608E-02  0.9529471E-01
          2   -1    0    0  501    0  0.00000000000E+00  0.00000000000E+00  0.23059243154E+04  0.23059243154E+04  0.00000000000E+00 0. -1.
         -2   -1    0    0    0  501 -0.00000000000E+00 -0.00000000000E+00 -0.43538054293E+03  0.43538054293E+03  0.00000000000E+00 0.  1.
         23    2    1    2    0    0 -0.74057438965E+03 -0.22517782679E+03  0.19994934823E+03  0.80482809407E+03  0.92806459190E+02 0.  0.
    5000000    2    1    2    0    0  0.74057438965E+03  0.22517782679E+03  0.16705944243E+04  0.19364767643E+04  0.59991753428E+03 0.  0.
         23    2    4    4    0    0  0.81829407368E+02 -0.72671917463E+02  0.74496955959E+03  0.75841134807E+03  0.90724134955E+02 0.  0.
         23    2    4    4    0    0  0.65874498228E+03  0.29784974425E+03  0.92562486468E+03  0.11780654162E+04  0.91636853635E+02 0.  0.
          4    1    3    3  502    0 -0.29816064631E+03 -0.79774598085E+02  0.34296453953E+02  0.31054790977E+03  0.00000000000E+00 0. -1.
         -4    1    3    3    0  502 -0.44241374334E+03 -0.14540322870E+03  0.16565289427E+03  0.49428018430E+03  0.00000000000E+00 0.  1.
         15    1    5    5    0    0 -0.80110458913E+01 -0.48362539411E+02  0.25216974020E+03  0.25689656999E+03  0.17770000000E+01 0. -1.
        -15    1    5    5    0    0  0.89840453260E+02 -0.24309378052E+02  0.49279981940E+03  0.50151477808E+03  0.17770000000E+01 0.  1.
          2    1    6    6  503    0  0.26519801922E+03  0.15839218161E+03  0.44040921645E+03  0.53793898402E+03  0.00000000000E+00 0.  1.
         -2    1    6    6    0  503  0.39354696306E+03  0.13945756265E+03  0.48521564823E+03  0.64012643220E+03  0.00000000000E+00 0. -1.
<mgrwt>
<rscale>  0 0.82145458E+03</rscale>
<asrwt>0</asrwt>
<pdfrwt beam="1">  1        2 0.35475758E+00 0.82145458E+03</pdfrwt>
<pdfrwt beam="2">  1       -2 0.66981623E-01 0.82145458E+03</pdfrwt>
<totfact> 0.94979978E+00</totfact>
</mgrwt>
</event>
<event>
12    1  0.8033771E-008  0.6088639E+03  0.7818608E-02  0.9887185E-01
          4   -1    0    0  501    0  0.00000000000E+00  0.00000000000E+00  0.51117297801E+03  0.51117297801E+03  0.00000000000E+00 0.  1.
         -4   -1    0    0    0  501 -0.00000000000E+00 -0.00000000000E+00 -0.10161095024E+04  0.10161095024E+04  0.00000000000E+00 0. -1.
         23    2    1    2    0    0 -0.71770906932E+02 -0.49984299440E+03 -0.53708044645E+03  0.74262173362E+03  0.89652390648E+02 0.  0.
    5000000    2    1    2    0    0  0.71770906932E+02  0.49984299440E+03  0.32143922017E+02  0.78466074683E+03  0.59972091323E+03 0.  0.
         23    2    4    4    0    0  0.89465169207E+00 -0.94430831065E+02  0.11454923864E+03  0.17406017639E+03  0.90870427940E+02 0.  0.
         23    2    4    4    0    0  0.70876255240E+02  0.59427382547E+03 -0.82405316620E+02  0.61060057044E+03  0.88643089007E+02 0.  0.
          2    1    3    3  502    0 -0.35462712119E+01 -0.32722915156E+03 -0.34044756836E+03  0.47222456572E+03  0.00000000000E+00 0. -1.
         -2    1    3    3    0  502 -0.68224635720E+02 -0.17261384284E+03 -0.19663287810E+03  0.27039716790E+03  0.00000000000E+00 0.  1.
         15    1    5    5    0    0  0.22191315912E+02 -0.23861363318E+02  0.90971663170E+02  0.96647919741E+02  0.17770000000E+01 0.  1.
        -15    1    5    5    0    0 -0.21296664220E+02 -0.70569467748E+02  0.23577575467E+02  0.77412256646E+02  0.17770000000E+01 0. -1.
          2    1    6    6  503    0  0.39785363899E+02  0.31395061098E+03 -0.88118069390E+02  0.32850061715E+03  0.00000000000E+00 0. -1.
         -2    1    6    6    0  503  0.31090891341E+02  0.28032321448E+03  0.57127527696E+01  0.28209995329E+03  0.00000000000E+00 0.  1.
<mgrwt>
<rscale>  0 0.60886388E+03</rscale>
<asrwt>0</asrwt>
<pdfrwt beam="1">  1        4 0.78641998E-01 0.60886388E+03</pdfrwt>
<pdfrwt beam="2">  1       -4 0.15632454E+00 0.60886388E+03</pdfrwt>
<totfact> 0.75452855E-01</totfact>
</mgrwt>
</event>
<event>
12    1  0.8033771E-008  0.6697566E+03  0.7818608E-02  0.9770398E-01
         -1   -1    0    0    0  501 -0.00000000000E+00  0.00000000000E+00  0.65589308472E+03  0.65589308472E+03  0.00000000000E+00 0.  1.
          1   -1    0    0  501    0  0.00000000000E+00 -0.00000000000E+00 -0.76584789790E+03  0.76584789790E+03  0.00000000000E+00 0. -1.
         23    2    1    2    0    0 -0.18328732054E+03  0.51992806239E+03 -0.21743860834E+03  0.59984507201E+03  0.92817725111E+02 0.  0.
    5000000    2    1    2    0    0  0.18328732054E+03 -0.51992806239E+03  0.10748379516E+03  0.82189591061E+03  0.60003390715E+03 0.  0.
         23    2    4    4    0    0  0.29952838191E+03 -0.78474918164E+02  0.14851035783E+03  0.35532166206E+03  0.91228245577E+02 0.  0.
         23    2    4    4    0    0 -0.11624106137E+03 -0.44145314422E+03 -0.41026562669E+02  0.46657424855E+03  0.87266761569E+02 0.  0.
          3    1    3    3  502    0 -0.17093921841E+03  0.37830390407E+03 -0.18236138120E+03  0.45342004100E+03  0.00000000000E+00 0. -1.
         -3    1    3    3    0  502 -0.12348102135E+02  0.14162415831E+03 -0.35077227146E+02  0.14642503101E+03  0.00000000000E+00 0.  1.
         15    1    5    5    0    0  0.11095239932E+03 -0.75441944082E+02  0.60700058383E+02  0.14727381525E+03  0.17770000000E+01 0. -1.
        -15    1    5    5    0    0  0.18857598259E+03 -0.30329740827E+01  0.87810299449E+02  0.20804784681E+03  0.17770000000E+01 0.  1.
          3    1    6    6  503    0 -0.69362996754E+02 -0.16434062702E+03  0.18351821309E+02  0.17932054080E+03  0.00000000000E+00 0. -1.
         -3    1    6    6    0  503 -0.46878064619E+02 -0.27711251720E+03 -0.59378383977E+02  0.28725370775E+03  0.00000000000E+00 0.  1.
<mgrwt>
<rscale>  0 0.66975661E+03</rscale>
<asrwt>0</asrwt>
<pdfrwt beam="1">  1        1 0.11782275E+00 0.66975661E+03</pdfrwt>
<pdfrwt beam="2">  1       -1 0.10090663E+00 0.66975661E+03</pdfrwt>
<totfact> 0.22932922E+01</totfact>
</mgrwt>
</event>
<event>
12    1  0.8033771E-008  0.3682281E+03  0.7818608E-02  0.1055373E+00
         -1   -1    0    0    0  501 -0.00000000000E+00  0.00000000000E+00  0.58138783999E+02  0.58138783999E+02  0.00000000000E+00 0.  1.
          1   -1    0    0  501    0  0.00000000000E+00 -0.00000000000E+00 -0.32311517717E+04  0.32311517717E+04  0.00000000000E+00 0. -1.
         23    2    1    2    0    0  0.17767983898E+02 -0.19266950167E+03 -0.44079044137E+03  0.48515033877E+03  0.60310860396E+02 0.  0.
    5000000    2    1    2    0    0 -0.17767983898E+02  0.19266950167E+03 -0.27322225464E+04  0.28041402170E+04  0.60060392554E+03 0.  0.
         23    2    4    4    0    0  0.48841355980E+02  0.34646435249E+03 -0.10401827368E+04  0.11013670101E+04  0.92769280358E+02 0.  0.
         23    2    4    4    0    0 -0.66609339879E+02 -0.15379485082E+03 -0.16920398096E+04  0.17027732069E+04  0.91368575393E+02 0.  0.
          3    1    3    3  502    0  0.34044965383E+01 -0.11021978058E+03 -0.31778128863E+03  0.33637023952E+03  0.00000000000E+00 0. -1.
         -3    1    3    3    0  502  0.14363487360E+02 -0.82449721093E+02 -0.12300915274E+03  0.14878009926E+03  0.00000000000E+00 0.  1.
         15    1    5    5    0    0 -0.57168567323E+01  0.15934983294E+03 -0.58195632875E+03  0.60340813552E+03  0.17770000000E+01 0. -1.
        -15    1    5    5    0    0  0.54558212713E+02  0.18711451955E+03 -0.45822640802E+03  0.49795887454E+03  0.17770000000E+01 0.  1.
          3    1    6    6  503    0 -0.28829532987E+02  0.93078400929E+00 -0.38189914132E+03  0.38298689595E+03  0.00000000000E+00 0. -1.
         -3    1    6    6    0  503 -0.37779806891E+02 -0.15472563483E+03 -0.13101406683E+04  0.13197863110E+04  0.00000000000E+00 0.  1.
<mgrwt>
<rscale>  0 0.36822813E+03</rscale>
<asrwt>0</asrwt>
<pdfrwt beam="1">  1        1 0.49710004E+00 0.36822813E+03</pdfrwt>
<pdfrwt beam="2">  1       -1 0.89444325E-02 0.36822813E+03</pdfrwt>
<totfact> 0.34816364E+01</totfact>
</mgrwt>
</event>
<event>
12    1  0.8033771E-008  0.6329932E+03  0.7818608E-02  0.9839225E-01
         -1   -1    0    0    0  501 -0.00000000000E+00  0.00000000000E+00  0.32059013508E+03  0.32059013508E+03  0.00000000000E+00 0.  1.
          1   -1    0    0  501    0  0.00000000000E+00 -0.00000000000E+00 -0.14242030374E+04  0.14242030374E+04  0.00000000000E+00 0. -1.
         23    2    1    2    0    0 -0.47948888493E+03  0.13403313933E+03 -0.18449624720E+03  0.53956375775E+03  0.95998490788E+02 0.  0.
    5000000    2    1    2    0    0  0.47948888493E+03 -0.13403313933E+03 -0.91911665510E+03  0.12052294147E+04  0.59994003299E+03 0.  0.
         23    2    4    4    0    0  0.47159004845E+03 -0.30980760064E+03 -0.75844275123E+03  0.94982612027E+03  0.92500425077E+02 0.  0.
         23    2    4    4    0    0  0.78988364798E+01  0.17577446130E+03 -0.16067390388E+03  0.25540329445E+03  0.91954807182E+02 0.  0.
          3    1    3    3  502    0 -0.25446196565E+03  0.91294745871E+02 -0.53123395921E+02  0.27551355281E+03  0.00000000000E+00 0. -1.
         -3    1    3    3    0  502 -0.22502691929E+03  0.42738393463E+02 -0.13137285128E+03  0.26405020495E+03  0.00000000000E+00 0.  1.
         15    1    5    5    0    0  0.24424906122E+03 -0.11216620375E+03 -0.32061439085E+03  0.41837256904E+03  0.17770000000E+01 0.  1.
        -15    1    5    5    0    0  0.22734098723E+03 -0.19764139688E+03 -0.43782836037E+03  0.53145355123E+03  0.17770000000E+01 0. -1.
          1    1    6    6  503    0 -0.40046356283E+02  0.79983301579E+02 -0.91099027253E+02  0.12767173512E+03  0.00000000000E+00 0. -1.
         -1    1    6    6    0  503  0.47945192762E+02  0.95791159722E+02 -0.69574876623E+02  0.12773155932E+03  0.00000000000E+00 0.  1.
<mgrwt>
<rscale>  0 0.63299319E+03</rscale>
<asrwt>0</asrwt>
<pdfrwt beam="1">  1        1 0.21910816E+00 0.63299319E+03</pdfrwt>
<pdfrwt beam="2">  1       -1 0.49321559E-01 0.63299319E+03</pdfrwt>
<totfact> 0.31854632E+01</totfact>
</mgrwt>
</event>
<event>
12    1  0.8033771E-008  0.7414879E+03  0.7818608E-02  0.9648800E-01
          2   -1    0    0  501    0  0.00000000000E+00  0.00000000000E+00  0.27042166623E+04  0.27042166623E+04  0.00000000000E+00 0. -1.
         -2   -1    0    0    0  501 -0.00000000000E+00 -0.00000000000E+00 -0.37648776111E+03  0.37648776111E+03  0.00000000000E+00 0.  1.
         23    2    1    2    0    0  0.63771193349E+03 -0.30814742423E+03  0.19539524768E+04  0.20801738715E+04  0.86958087909E+02 0.  0.
    5000000    2    1    2    0    0 -0.63771193349E+03  0.30814742423E+03  0.37377642442E+03  0.10005305519E+04  0.59976764223E+03 0.  0.
         23    2    4    4    0    0 -0.59745657412E+03  0.20490027922E+03  0.49933309922E+03  0.81002512330E+03  0.88705546694E+02 0.  0.
         23    2    4    4    0    0 -0.40255359364E+02  0.10324714501E+03 -0.12555667480E+03  0.19050542860E+03  0.90815047365E+02 0.  0.
          3    1    3    3  502    0  0.38082045940E+03 -0.21305599555E+03  0.11013127883E+04  0.11846125684E+04  0.00000000000E+00 0. -1.
         -3    1    3    3    0  502  0.25689147408E+03 -0.95091428679E+02  0.85263968851E+03  0.89556130315E+03  0.00000000000E+00 0.  1.
         15    1    5    5    0    0 -0.42635989911E+03  0.14493070179E+03  0.40494751746E+03  0.60561813176E+03  0.17770000000E+01 0.  1.
        -15    1    5    5    0    0 -0.17109667502E+03  0.59969577428E+02  0.94385581763E+02  0.20440699154E+03  0.17770000000E+01 0. -1.
          3    1    6    6  503    0 -0.10457940267E+02 -0.15456052354E+02 -0.29578997682E+02  0.34973921326E+02  0.00000000000E+00 0.  1.
         -3    1    6    6    0  503 -0.29797419097E+02  0.11870319736E+03 -0.95977677119E+02  0.15553150727E+03  0.00000000000E+00 0. -1.
<mgrwt>
<rscale>  0 0.74148789E+03</rscale>
<asrwt>0</asrwt>
<pdfrwt beam="1">  1        2 0.41603332E+00 0.74148789E+03</pdfrwt>
<pdfrwt beam="2">  1       -2 0.57921196E-01 0.74148789E+03</pdfrwt>
<totfact> 0.77844082E+00</totfact>
</mgrwt>
</event>
<event>
12    1  0.8033771E-008  0.6941827E+03  0.7818608E-02  0.9727233E-01
          2   -1    0    0  501    0  0.00000000000E+00  0.00000000000E+00  0.18266626826E+04  0.18266626826E+04  0.00000000000E+00 0.  1.
         -2   -1    0    0    0  501 -0.00000000000E+00 -0.00000000000E+00 -0.40722998501E+03  0.40722998501E+03  0.00000000000E+00 0. -1.
         23    2    1    2    0    0  0.54657774271E+03  0.41686079136E+03  0.22113778571E+03  0.72774265614E+03  0.90483728358E+02 0.  0.
    5000000    2    1    2    0    0 -0.54657774271E+03 -0.41686079136E+03  0.11982949119E+04  0.15061500115E+04  0.60004750897E+03 0.  0.
         23    2    4    4    0    0 -0.33302439181E+03 -0.19887208218E+03  0.17661687270E+03  0.43595764039E+03  0.91707109204E+02 0.  0.
         23    2    4    4    0    0 -0.21355335090E+03 -0.21798870917E+03  0.10216780392E+04  0.10701923711E+04  0.91441699237E+02 0.  0.
          1    1    3    3  502    0  0.43814466059E+03  0.33471742301E+03  0.21425896422E+03  0.59153478394E+03  0.00000000000E+00 0. -1.
         -1    1    3    3    0  502  0.10843308213E+03  0.82143368344E+02  0.68788214849E+01  0.13620787220E+03  0.00000000000E+00 0.  1.
         15    1    5    5    0    0 -0.27885222713E+03 -0.18731076021E+03  0.17869457282E+03  0.38049808613E+03  0.17770000000E+01 0. -1.
        -15    1    5    5    0    0 -0.54172164678E+02 -0.11561321976E+02 -0.20777001164E+01  0.55459554258E+02  0.17770000000E+01 0.  1.
          1    1    6    6  503    0 -0.31966804876E+02 -0.63950605476E+02  0.14379680575E+03  0.16058978142E+03  0.00000000000E+00 0. -1.
         -1    1    6    6    0  503 -0.18158654603E+03 -0.15403810370E+03  0.87788123347E+03  0.90960258969E+03  0.00000000000E+00 0.  1.
<mgrwt>
<rscale>  0 0.69418270E+03</rscale>
<asrwt>0</asrwt>
<pdfrwt beam="1">  1        2 0.28102502E+00 0.69418270E+03</pdfrwt>
<pdfrwt beam="2">  1       -2 0.62650768E-01 0.69418270E+03</pdfrwt>
<totfact> 0.20455682E+01</totfact>
</mgrwt>
</event>
<event>
12    1  0.8033771E-008  0.7012531E+03  0.7818608E-02  0.9715092E-01
         -2   -1    0    0    0  501 -0.00000000000E+00  0.00000000000E+00  0.11536943101E+04  0.11536943101E+04  0.00000000000E+00 0.  1.
          2   -1    0    0  501    0  0.00000000000E+00 -0.00000000000E+00 -0.57601057356E+03  0.57601057356E+03  0.00000000000E+00 0. -1.
         23    2    1    2    0    0 -0.57731649011E+03  0.17924338540E+03  0.62788880819E+03  0.87646054481E+03  0.92283314788E+02 0.  0.
    5000000    2    1    2    0    0  0.57731649011E+03 -0.17924338540E+03 -0.50205071680E+02  0.85324433882E+03  0.60006902232E+03 0.  0.
         23    2    4    4    0    0  0.19212184613E+02 -0.22460842572E+03  0.10428390850E+03  0.26528015092E+03  0.93168513755E+02 0.  0.
         23    2    4    4    0    0  0.55810430550E+03  0.45365040318E+02 -0.15448898018E+03  0.58796418791E+03  0.91085885655E+02 0.  0.
          4    1    3    3  502    0 -0.24171828193E+03  0.91016728769E+02  0.20718782601E+03  0.33111715144E+03  0.00000000000E+00 0. -1.
         -4    1    3    3    0  502 -0.33559820818E+03  0.88226656634E+02  0.42070098218E+03  0.54534339336E+03  0.00000000000E+00 0.  1.
         15    1    5    5    0    0 -0.45123317643E+01 -0.18831672043E+03  0.11483476386E+03  0.22062123436E+03  0.17770000000E+01 0. -1.
        -15    1    5    5    0    0  0.23724516378E+02 -0.36291705286E+02 -0.10550855354E+02  0.44658916552E+02  0.17770000000E+01 0.  1.
          4    1    6    6  503    0  0.20164573052E+02 -0.13541046329E+02  0.27074915326E+01  0.24439731022E+02  0.00000000000E+00 0.  1.
         -4    1    6    6    0  503  0.53793973244E+03  0.58906086646E+02 -0.15719647172E+03  0.56352445688E+03  0.00000000000E+00 0. -1.
<mgrwt>
<rscale>  0 0.70125313E+03</rscale>
<asrwt>0</asrwt>
<pdfrwt beam="1">  1        2 0.88617012E-01 0.70125313E+03</pdfrwt>
<pdfrwt beam="2">  1       -2 0.17749143E+00 0.70125313E+03</pdfrwt>
<totfact> 0.10053074E+01</totfact>
</mgrwt>
</event>
<event>
12    1  0.8033771E-008  0.1859775E+04  0.7818608E-02  0.8675142E-01
          2   -1    0    0  501    0  0.00000000000E+00  0.00000000000E+00  0.33807950995E+04  0.33807950995E+04  0.00000000000E+00 0. -1.
         -2   -1    0    0    0  501 -0.00000000000E+00 -0.00000000000E+00 -0.10576431175E+04  0.10576431175E+04  0.00000000000E+00 0.  1.
         23    2    1    2    0    0 -0.17481282629E+04 -0.54055329176E+03  0.88342120477E+03  0.20340440428E+04  0.93551366475E+02 0.  0.
    5000000    2    1    2    0    0  0.17481282629E+04  0.54055329176E+03  0.14397307773E+04  0.24043941742E+04  0.60011361330E+03 0.  0.
         23    2    4    4    0    0  0.70202743961E+03 -0.12174384655E+02  0.75514041349E+03  0.10344230896E+04  0.82482377398E+02 0.  0.
         23    2    4    4    0    0  0.10461008233E+04  0.55272767641E+03  0.68459036377E+03  0.13699710846E+04  0.91224939443E+02 0.  0.
          4    1    3    3  502    0 -0.93071778033E+03 -0.25961764292E+03  0.42388860417E+03  0.10551390694E+04  0.00000000000E+00 0. -1.
         -4    1    3    3    0  502 -0.81741048260E+03 -0.28093564884E+03  0.45953260060E+03  0.97890497336E+03  0.00000000000E+00 0.  1.
         15    1    5    5    0    0  0.53086786813E+03 -0.22382046572E+02  0.52049811197E+03  0.74380312699E+03  0.17770000000E+01 0. -1.
        -15    1    5    5    0    0  0.17115957148E+03  0.10207661918E+02  0.23464230152E+03  0.29061996260E+03  0.17770000000E+01 0.  1.
          3    1    6    6  503    0  0.34013996101E+03  0.13570165594E+03  0.19285531756E+03  0.41388803560E+03  0.00000000000E+00 0. -1.
         -3    1    6    6    0  503  0.70596086231E+03  0.41702602048E+03  0.49173504621E+03  0.95608304898E+03  0.00000000000E+00 0.  1.
<mgrwt>
<rscale>  0 0.18597746E+04</rscale>
<asrwt>0</asrwt>
<pdfrwt beam="1">  1        2 0.52012232E+00 0.18597746E+04</pdfrwt>
<pdfrwt beam="2">  1       -2 0.16271433E+00 0.18597746E+04</pdfrwt>
<totfact> 0.21565602E-01</totfact>
</mgrwt>
</event>
<event>
12    1  0.8033771E-008  0.9976606E+03  0.7818608E-02  0.9311114E-01
         -1   -1    0    0    0  501 -0.00000000000E+00  0.00000000000E+00  0.70915187199E+03  0.70915187199E+03  0.00000000000E+00 0.  1.
          1   -1    0    0  501    0  0.00000000000E+00 -0.00000000000E+00 -0.15656695435E+04  0.15656695435E+04  0.00000000000E+00 0. -1.
         23    2    1    2    0    0 -0.84696876051E+03  0.36690078008E+03 -0.70185288379E+03  0.11631129313E+04  0.90895306453E+02 0.  0.
    5000000    2    1    2    0    0  0.84696876051E+03 -0.36690078008E+03 -0.15466478769E+03  0.11117084842E+04  0.60000191128E+03 0.  0.
         23    2    4    4    0    0  0.49422513085E+03  0.74770924185E+02 -0.18210673009E+03  0.53828523187E+03  0.82091160523E+02 0.  0.
         23    2    4    4    0    0  0.35274362966E+03 -0.44167170427E+03  0.27441942395E+02  0.57342325231E+03  0.92515963353E+02 0.  0.
          2    1    3    3  502    0 -0.27034902272E+03  0.95913665117E+02 -0.17211526261E+03  0.33453204460E+03  0.00000000000E+00 0. -1.
         -2    1    3    3    0  502 -0.57661973779E+03  0.27098711496E+03 -0.52973762118E+03  0.82858088668E+03  0.00000000000E+00 0.  1.
         15    1    5    5    0    0  0.32212844944E+03  0.61356475509E+02 -0.15792846124E+03  0.36397240503E+03  0.17770000000E+01 0. -1.
        -15    1    5    5    0    0  0.17209668141E+03  0.13414448676E+02 -0.24178268842E+02  0.17431282683E+03  0.17770000000E+01 0.  1.
          3    1    6    6  503    0  0.29038575764E+03 -0.30810754415E+03  0.41172099483E+02  0.42538134513E+03  0.00000000000E+00 0.  1.
         -3    1    6    6    0  503  0.62357872011E+02 -0.13356416011E+03 -0.13730157088E+02  0.14804190718E+03  0.00000000000E+00 0. -1.
<mgrwt>
<rscale>  0 0.99766060E+03</rscale>
<asrwt>0</asrwt>
<pdfrwt beam="1">  1        1 0.24087224E+00 0.99766060E+03</pdfrwt>
<pdfrwt beam="2">  1       -1 0.10910029E+00 0.99766060E+03</pdfrwt>
<totfact> 0.46144735E+00</totfact>
</mgrwt>
</event>
<event>
12    1  0.8033771E-008  0.2639159E+03  0.7818608E-02  0.1104813E+00
         -1   -1    0    0    0  501 -0.00000000000E+00  0.00000000000E+00  0.73898964191E+02  0.73898964191E+02  0.00000000000E+00 0.  1.
          1   -1    0    0  501    0  0.00000000000E+00 -0.00000000000E+00 -0.26517871278E+04  0.26517871278E+04  0.00000000000E+00 0. -1.
         23    2    1    2    0    0  0.18760708216E+03  0.80158809888E+02 -0.10031569948E+04  0.10282128543E+04  0.96311293939E+02 0.  0.
    5000000    2    1    2    0    0 -0.18760708216E+03 -0.80158809888E+02 -0.15747311688E+04  0.16974732377E+04  0.60001273883E+03 0.  0.
         23    2    4    4    0    0 -0.20515618680E+03 -0.86198246950E+02 -0.15873474681E+04  0.16057698046E+04  0.96464926899E+02 0.  0.
         23    2    4    4    0    0  0.17549104635E+02  0.60394370617E+01  0.12616299324E+02  0.91703433113E+02  0.88915143607E+02 0.  0.
          1    1    3    3  502    0  0.74415635314E+02  0.33033647833E+02 -0.20303747122E+03  0.21875356772E+03  0.00000000000E+00 0. -1.
         -1    1    3    3    0  502  0.11319144685E+03  0.47125162055E+02 -0.80011952360E+03  0.80945928655E+03  0.00000000000E+00 0.  1.
         15    1    5    5    0    0 -0.15027035609E+03 -0.10571238588E+03 -0.11582890890E+04  0.11727715293E+04  0.17770000000E+01 0.  1.
        -15    1    5    5    0    0 -0.54885830704E+02  0.19514138933E+02 -0.42905837907E+03  0.43299827530E+03  0.17770000000E+01 0. -1.
          2    1    6    6  503    0  0.49411758757E+02  0.70341742515E+01 -0.12112021594E+02  0.51358568691E+02  0.00000000000E+00 0. -1.
         -2    1    6    6    0  503 -0.31862654122E+02 -0.99473718983E+00  0.24728320918E+02  0.40344864422E+02  0.00000000000E+00 0.  1.
<mgrwt>
<rscale>  0 0.26391595E+03</rscale>
<asrwt>0</asrwt>
<pdfrwt beam="1">  1        1 0.40796725E+00 0.26391595E+03</pdfrwt>
<pdfrwt beam="2">  1       -1 0.11369071E-01 0.26391595E+03</pdfrwt>
<totfact> 0.62929301E+01</totfact>
</mgrwt>
</event>
<event>
12    1  0.8033771E-008  0.8461865E+03  0.7818608E-02  0.9495470E-01
          2   -1    0    0  501    0  0.00000000000E+00  0.00000000000E+00  0.92861462293E+03  0.92861462293E+03  0.00000000000E+00 0. -1.
         -2   -1    0    0    0  501 -0.00000000000E+00 -0.00000000000E+00 -0.98741602430E+03  0.98741602430E+03  0.00000000000E+00 0.  1.
         23    2    1    2    0    0  0.20789684453E+02  0.78981743280E+03 -0.36888016341E+03  0.87655398626E+03  0.89613211794E+02 0.  0.
    5000000    2    1    2    0    0 -0.20789684453E+02 -0.78981743280E+03  0.31007876205E+03  0.10394766610E+04  0.60009924338E+03 0.  0.
         23    2    4    4    0    0  0.19203601621E+03 -0.33019062975E+03  0.34597787377E+03  0.52371325168E+03  0.93119264139E+02 0.  0.
         23    2    4    4    0    0 -0.21282570066E+03 -0.45962680305E+03 -0.35899111721E+02  0.51576340929E+03  0.90396743286E+02 0.  0.
          4    1    3    3  502    0 -0.53816134711E+01  0.39719071995E+03 -0.13909328284E+03  0.42087571931E+03  0.00000000000E+00 0. -1.
         -4    1    3    3    0  502  0.26171297924E+02  0.39262671285E+03 -0.22978688058E+03  0.45567826694E+03  0.00000000000E+00 0.  1.
         15    1    5    5    0    0  0.10812439908E+03 -0.97751198457E+02  0.13762631373E+03  0.20047529134E+03  0.17770000000E+01 0. -1.
        -15    1    5    5    0    0  0.83911617125E+02 -0.23243943129E+03  0.20835156004E+03  0.32323796034E+03  0.17770000000E+01 0.  1.
          3    1    6    6  503    0 -0.40048416416E+02 -0.49215877490E+02  0.21022744770E+02  0.66843354585E+02  0.00000000000E+00 0. -1.
         -3    1    6    6    0  503 -0.17277728425E+03 -0.41041092556E+03 -0.56921856491E+02  0.44892005471E+03  0.00000000000E+00 0.  1.
<mgrwt>
<rscale>  0 0.84618654E+03</rscale>
<asrwt>0</asrwt>
<pdfrwt beam="1">  1        2 0.14286379E+00 0.84618654E+03</pdfrwt>
<pdfrwt beam="2">  1       -2 0.15191016E+00 0.84618654E+03</pdfrwt>
<totfact> 0.81798501E+00</totfact>
</mgrwt>
</event>
<event>
12    1  0.8033771E-008  0.5342963E+03  0.7818608E-02  0.1005195E+00
         -1   -1    0    0    0  501 -0.00000000000E+00  0.00000000000E+00  0.18195234553E+04  0.18195234553E+04  0.00000000000E+00 0.  1.
          1   -1    0    0  501    0  0.00000000000E+00 -0.00000000000E+00 -0.28104623576E+03  0.28104623576E+03  0.00000000000E+00 0. -1.
         23    2    1    2    0    0  0.49000375156E+03 -0.20073597397E+03  0.27126136283E+03  0.60185847864E+03  0.90842135367E+02 0.  0.
    5000000    2    1    2    0    0 -0.49000375156E+03  0.20073597397E+03  0.12672158567E+04  0.14987112124E+04  0.59991721337E+03 0.  0.
         23    2    4    4    0    0 -0.16862294955E+03  0.88452150148E+02  0.31236009182E+02  0.21344232606E+03  0.91238458465E+02 0.  0.
         23    2    4    4    0    0 -0.32138080201E+03  0.11228382382E+03  0.12359798475E+04  0.12852688863E+04  0.91524039085E+02 0.  0.
          3    1    3    3  502    0  0.34084614654E+03 -0.10417687547E+03  0.21125272051E+03  0.41431464966E+03  0.00000000000E+00 0. -1.
         -3    1    3    3    0  502  0.14915760502E+03 -0.96559098498E+02  0.60008642319E+02  0.18754382898E+03  0.00000000000E+00 0.  1.
         15    1    5    5    0    0 -0.14652986726E+03  0.87038112426E+02  0.56727955352E+02  0.17963255179E+03  0.17770000000E+01 0. -1.
        -15    1    5    5    0    0 -0.22093082283E+02  0.14140377219E+01 -0.25491946170E+02  0.33809774267E+02  0.17770000000E+01 0.  1.
          1    1    6    6  503    0 -0.21725182126E+03  0.91135601400E+02  0.69188380917E+03  0.73089483311E+03  0.00000000000E+00 0. -1.
         -1    1    6    6    0  503 -0.10412898076E+03  0.21148222423E+02  0.54409603833E+03  0.55437405321E+03  0.00000000000E+00 0.  1.
<mgrwt>
<rscale>  0 0.53429630E+03</rscale>
<asrwt>0</asrwt>
<pdfrwt beam="1">  1        1 0.43237883E-01 0.53429630E+03</pdfrwt>
<pdfrwt beam="2">  1       -1 0.27992668E+00 0.53429630E+03</pdfrwt>
<totfact> 0.46037368E+00</totfact>
</mgrwt>
</event>
<event>
12    1  0.8033771E-008  0.6784101E+03  0.7818608E-02  0.9754883E-01
          2   -1    0    0  501    0  0.00000000000E+00  0.00000000000E+00  0.11605634692E+04  0.11605634692E+04  0.00000000000E+00 0. -1.
         -2   -1    0    0    0  501 -0.00000000000E+00 -0.00000000000E+00 -0.65198593167E+03  0.65198593167E+03  0.00000000000E+00 0.  1.
         23    2    1    2    0    0  0.19995370071E+03 -0.54458656252E+03  0.74182371115E+03  0.94596095024E+03  0.89351521789E+02 0.  0.
    5000000    2    1    2    0    0 -0.19995370071E+03  0.54458656252E+03 -0.23324617364E+03  0.86658845061E+03  0.60001313211E+03 0.  0.
         23    2    4    4    0    0 -0.12211460906E+00  0.55731730421E+03 -0.26265978134E+02  0.56536707608E+03  0.91364307189E+02 0.  0.
         23    2    4    4    0    0 -0.19983158610E+03 -0.12730741688E+02 -0.20698019550E+03  0.30122137452E+03  0.88310704628E+02 0.  0.
          2    1    3    3  502    0  0.90956880621E+02 -0.27970597374E+03  0.30595346313E+03  0.42440088063E+03  0.00000000000E+00 0. -1.
         -2    1    3    3    0  502  0.10899682009E+03 -0.26488058879E+03  0.43587024802E+03  0.52156006961E+03  0.00000000000E+00 0.  1.
         15    1    5    5    0    0  0.91440108428E+01  0.25710635007E+03  0.32479059114E+02  0.25931705534E+03  0.17770000000E+01 0. -1.
        -15    1    5    5    0    0 -0.92661254519E+01  0.30021095414E+03 -0.58745037248E+02  0.30605002075E+03  0.17770000000E+01 0.  1.
          2    1    6    6  503    0 -0.39773046229E+02 -0.39839760481E+02 -0.47579844418E+02  0.73708502335E+02  0.00000000000E+00 0. -1.
         -2    1    6    6    0  503 -0.16005853987E+03  0.27109018793E+02 -0.15940035108E+03  0.22751287219E+03  0.00000000000E+00 0.  1.
<mgrwt>
<rscale>  0 0.67841012E+03</rscale>
<asrwt>0</asrwt>
<pdfrwt beam="1">  1        2 0.17854823E+00 0.67841012E+03</pdfrwt>
<pdfrwt beam="2">  1       -2 0.10030553E+00 0.67841012E+03</pdfrwt>
<totfact> 0.16856328E+01</totfact>
</mgrwt>
</event>
<event>
12    1  0.8033771E-008  0.4239995E+03  0.7818608E-02  0.1035772E+00
          1   -1    0    0  501    0  0.00000000000E+00  0.00000000000E+00  0.75031091720E+03  0.75031091720E+03  0.00000000000E+00 0. -1.
         -1   -1    0    0    0  501 -0.00000000000E+00 -0.00000000000E+00 -0.55197828887E+03  0.55197828887E+03  0.00000000000E+00 0.  1.
         23    2    1    2    0    0 -0.32532276231E+02 -0.28510165707E+03  0.49081649852E+03  0.57567466542E+03  0.90328186796E+02 0.  0.
    5000000    2    1    2    0    0  0.32532276231E+02  0.28510165707E+03 -0.29248387018E+03  0.72661454064E+03  0.60006713999E+03 0.  0.
         23    2    4    4    0    0  0.57017270674E+02  0.40477757844E+03 -0.36481823137E+03  0.55537300350E+03  0.90834871711E+02 0.  0.
         23    2    4    4    0    0 -0.24484994444E+02 -0.11967592137E+03  0.72334361182E+02  0.17124153714E+03  0.95757835840E+02 0.  0.
          1    1    3    3  502    0 -0.51153703378E+02 -0.17860651197E+03  0.24795104419E+03  0.30983335489E+03  0.00000000000E+00 0. -1.
         -1    1    3    3    0  502  0.18621427148E+02 -0.10649514510E+03  0.24286545433E+03  0.26584131053E+03  0.00000000000E+00 0.  1.
         15    1    5    5    0    0  0.15910441819E+02  0.13957092235E+03 -0.18510821106E+03  0.23238199598E+03  0.17770000000E+01 0. -1.
        -15    1    5    5    0    0  0.41106828855E+02  0.26520665609E+03 -0.17971002031E+03  0.32299100752E+03  0.17770000000E+01 0.  1.
          3    1    6    6  503    0  0.11668257087E+02 -0.10590822959E+03  0.23798768317E+02  0.10917455149E+03  0.00000000000E+00 0. -1.
         -3    1    6    6    0  503 -0.36153251530E+02 -0.13767691780E+02  0.48535592865E+02  0.62066985652E+02  0.00000000000E+00 0.  1.
<mgrwt>
<rscale>  0 0.42399948E+03</rscale>
<asrwt>0</asrwt>
<pdfrwt beam="1">  1        1 0.11543245E+00 0.42399948E+03</pdfrwt>
<pdfrwt beam="2">  1       -1 0.84919737E-01 0.42399948E+03</pdfrwt>
<totfact> 0.35925898E+01</totfact>
</mgrwt>
</event>
<event>
12    1  0.8033771E-008  0.6745357E+03  0.7818608E-02  0.9761799E-01
         -1   -1    0    0    0  501 -0.00000000000E+00  0.00000000000E+00  0.19265660451E+04  0.19265660451E+04  0.00000000000E+00 0.  1.
          1   -1    0    0  501    0  0.00000000000E+00 -0.00000000000E+00 -0.29471443496E+03  0.29471443496E+03  0.00000000000E+00 0. -1.
         23    2    1    2    0    0  0.59726727021E+03  0.20048742976E+03  0.67646443584E+03  0.92890537640E+03  0.91310808761E+02 0.  0.
    5000000    2    1    2    0    0 -0.59726727021E+03 -0.20048742976E+03  0.95538717426E+03  0.12923751036E+04  0.60045428981E+03 0.  0.
         23    2    4    4    0    0 -0.36523574863E+03  0.37157298909E+02  0.85344744928E+03  0.93290297886E+03  0.84602614354E+02 0.  0.
         23    2    4    4    0    0 -0.23203152158E+03 -0.23764472867E+03  0.10193972499E+03  0.35947212475E+03  0.92275982098E+02 0.  0.
          2    1    3    3  502    0  0.28364372728E+03  0.54083038093E+02  0.27371470880E+03  0.39786741617E+03  0.00000000000E+00 0. -1.
         -2    1    3    3    0  502  0.31362354293E+03  0.14640439167E+03  0.40274972703E+03  0.53103796023E+03  0.00000000000E+00 0.  1.
         15    1    5    5    0    0 -0.23363619993E+03  0.49331382111E+02  0.46760060693E+03  0.52504565945E+03  0.17770000000E+01 0. -1.
        -15    1    5    5    0    0 -0.13159954870E+03 -0.12174083202E+02  0.38584684234E+03  0.40785731941E+03  0.17770000000E+01 0.  1.
          2    1    6    6  503    0 -0.21085884005E+03 -0.16550451203E+03  0.65587588681E+02  0.27596181932E+03  0.00000000000E+00 0.  1.
         -2    1    6    6    0  503 -0.21172681524E+02 -0.72140216642E+02  0.36352136304E+02  0.83510305436E+02  0.00000000000E+00 0. -1.
<mgrwt>
<rscale>  0 0.67453572E+03</rscale>
<asrwt>0</asrwt>
<pdfrwt beam="1">  1        1 0.45340683E-01 0.67453572E+03</pdfrwt>
<pdfrwt beam="2">  1       -1 0.29639477E+00 0.67453572E+03</pdfrwt>
<totfact> 0.33156679E+00</totfact>
</mgrwt>
</event>
<event>
12    1  0.8033771E-008  0.5823195E+03  0.7818608E-02  0.9942782E-01
         -2   -1    0    0    0  501 -0.00000000000E+00  0.00000000000E+00  0.65609146425E+03  0.65609146425E+03  0.00000000000E+00 0.  1.
          2   -1    0    0  501    0  0.00000000000E+00 -0.00000000000E+00 -0.56376777845E+03  0.56376777845E+03  0.00000000000E+00 0. -1.
         23    2    1    2    0    0  0.22439335625E+03 -0.36360507105E+03 -0.12110176443E+03  0.45302158486E+03  0.89453300544E+02 0.  0.
    5000000    2    1    2    0    0 -0.22439335625E+03  0.36360507105E+03  0.21342545023E+03  0.76683765784E+03  0.59994045092E+03 0.  0.
         23    2    4    4    0    0 -0.39083135818E+03  0.37238405991E+03  0.14945884551E+03  0.56742664181E+03  0.90642201683E+02 0.  0.
         23    2    4    4    0    0  0.16643800194E+03 -0.87789888557E+01  0.63966604715E+02  0.19941101602E+03  0.88850141580E+02 0.  0.
          3    1    3    3  502    0  0.11619882784E+03 -0.14830651542E+03 -0.93978406512E+02  0.21054436825E+03  0.00000000000E+00 0. -1.
         -3    1    3    3    0  502  0.10819452840E+03 -0.21529855563E+03 -0.27123357917E+02  0.24247721661E+03  0.00000000000E+00 0.  1.
         15    1    5    5    0    0  0.25014489611E+01  0.14229359948E+02 -0.10027266184E+01  0.14590925985E+02  0.17770000000E+01 0.  1.
        -15    1    5    5    0    0 -0.39333280714E+03  0.35815469996E+03  0.15046157213E+03  0.55283571583E+03  0.17770000000E+01 0. -1.
          4    1    6    6  503    0  0.24759713523E+02 -0.36777603868E+02  0.18049910852E+02  0.47868933994E+02  0.00000000000E+00 0. -1.
         -4    1    6    6    0  503  0.14167828841E+03  0.27998615012E+02  0.45916693863E+02  0.15154208203E+03  0.00000000000E+00 0.  1.
<mgrwt>
<rscale>  0 0.58231946E+03</rscale>
<asrwt>0</asrwt>
<pdfrwt beam="1">  1        2 0.86733505E-01 0.58231946E+03</pdfrwt>
<pdfrwt beam="2">  1       -2 0.10093715E+00 0.58231946E+03</pdfrwt>
<totfact> 0.44311908E+01</totfact>
</mgrwt>
</event>
<event>
12    1  0.8033771E-008  0.6681232E+03  0.7818608E-02  0.9773354E-01
         -2   -1    0    0    0  501 -0.00000000000E+00  0.00000000000E+00  0.35911736826E+03  0.35911736826E+03  0.00000000000E+00 0.  1.
          2   -1    0    0  501    0  0.00000000000E+00 -0.00000000000E+00 -0.33397839444E+04  0.33397839444E+04  0.00000000000E+00 0. -1.
         23    2    1    2    0    0 -0.57536585139E+03 -0.12889737331E+03  0.56961486092E+01  0.59661368658E+03  0.90857300830E+02 0.  0.
    5000000    2    1    2    0    0  0.57536585139E+03  0.12889737331E+03 -0.29863627247E+04  0.31022876261E+04  0.59846954424E+03 0.  0.
         23    2    4    4    0    0  0.15268793904E+03 -0.15498333419E+03 -0.39632192338E+03  0.46098922973E+03  0.90036450266E+02 0.  0.
         23    2    4    4    0    0  0.42267791235E+03  0.28388070750E+03 -0.25900408013E+04  0.26412983963E+04  0.94345069306E+02 0.  0.
          2    1    3    3  502    0 -0.25068959119E+03 -0.18382167180E+02 -0.23187128486E+02  0.25242982813E+03  0.00000000000E+00 0. -1.
         -2    1    3    3    0  502 -0.32467626020E+03 -0.11051520613E+03  0.28883277096E+02  0.34418385845E+03  0.00000000000E+00 0.  1.
         15    1    5    5    0    0  0.30659923995E+02 -0.87947183112E+02 -0.19621237983E+03  0.21720311620E+03  0.17770000000E+01 0.  1.
        -15    1    5    5    0    0  0.12202801505E+03 -0.67036151080E+02 -0.20010954354E+03  0.24378611354E+03  0.17770000000E+01 0. -1.
          2    1    6    6  503    0  0.38602843220E+03  0.26550933622E+03 -0.22140945224E+04  0.22631234417E+04  0.00000000000E+00 0.  1.
         -2    1    6    6    0  503  0.36649480150E+02  0.18371371280E+02 -0.37594627896E+03  0.37817495467E+03  0.00000000000E+00 0. -1.
<mgrwt>
<rscale>  0 0.66812322E+03</rscale>
<asrwt>0</asrwt>
<pdfrwt beam="1">  1        2 0.51381291E+00 0.66812322E+03</pdfrwt>
<pdfrwt beam="2">  1       -2 0.55248826E-01 0.66812322E+03</pdfrwt>
<totfact> 0.35464516E+00</totfact>
</mgrwt>
</event>
<event>
12    1  0.8033771E-008  0.4648898E+03  0.7818608E-02  0.1023373E+00
          1   -1    0    0  501    0  0.00000000000E+00  0.00000000000E+00  0.19427818323E+03  0.19427818323E+03  0.00000000000E+00 0. -1.
         -1   -1    0    0    0  501 -0.00000000000E+00 -0.00000000000E+00 -0.20594958174E+04  0.20594958174E+04  0.00000000000E+00 0.  1.
         23    2    1    2    0    0 -0.26364249203E+03 -0.32187367822E+03 -0.11704319419E+04  0.12456002715E+04  0.92190440329E+02 0.  0.
    5000000    2    1    2    0    0  0.26364249203E+03  0.32187367822E+03 -0.69478569227E+03  0.10081737292E+04  0.60048070882E+03 0.  0.
         23    2    4    4    0    0  0.81559801516E+02  0.31112969128E+03 -0.72597063818E+03  0.79928621612E+03  0.91495364693E+02 0.  0.
         23    2    4    4    0    0  0.18208269052E+03  0.10743986940E+02  0.31184945918E+02  0.20888751304E+03  0.96912088051E+02 0.  0.
          4    1    3    3  502    0 -0.21081711507E+03 -0.25965051776E+03 -0.81583931971E+03  0.88173467833E+03  0.00000000000E+00 0. -1.
         -4    1    3    3    0  502 -0.52825376963E+02 -0.62223160457E+02 -0.35459262220E+03  0.36386559313E+03  0.00000000000E+00 0.  1.
         15    1    5    5    0    0  0.19053368318E+02  0.88506243227E+02 -0.11740054990E+03  0.14826473883E+03  0.17770000000E+01 0. -1.
        -15    1    5    5    0    0  0.62506433198E+02  0.22262344805E+03 -0.60857008829E+03  0.65102147730E+03  0.17770000000E+01 0.  1.
          1    1    6    6  503    0  0.87770264335E+02  0.35057510150E+02 -0.23224341279E+02  0.97324294743E+02  0.00000000000E+00 0. -1.
         -1    1    6    6    0  503  0.94312426182E+02 -0.24313523210E+02  0.54409287197E+02  0.11156321830E+03  0.00000000000E+00 0.  1.
<mgrwt>
<rscale>  0 0.46488979E+03</rscale>
<asrwt>0</asrwt>
<pdfrwt beam="1">  1        1 0.29888951E-01 0.46488979E+03</pdfrwt>
<pdfrwt beam="2">  1       -1 0.31684551E+00 0.46488979E+03</pdfrwt>
<totfact> 0.43782765E+00</totfact>
</mgrwt>
</event>
<event>
12    1  0.8033771E-008  0.6425437E+03  0.7818608E-02  0.9820872E-01
         -2   -1    0    0    0  501 -0.00000000000E+00  0.00000000000E+00  0.43543459996E+03  0.43543459996E+03  0.00000000000E+00 0.  1.
          2   -1    0    0  501    0  0.00000000000E+00 -0.00000000000E+00 -0.12418047211E+04  0.12418047211E+04  0.00000000000E+00 0. -1.
         23    2    1    2    0    0 -0.14324492258E+03 -0.59079685069E+03 -0.37598616757E+03  0.72062884639E+03  0.91544029946E+02 0.  0.
    5000000    2    1    2    0    0  0.14324492258E+03  0.59079685069E+03 -0.43038395361E+03  0.95661047471E+03  0.60026096506E+03 0.  0.
         23    2    4    4    0    0  0.45234553573E+02  0.54241254286E+03 -0.52654452871E+02  0.55321098453E+03  0.83739897970E+02 0.  0.
         23    2    4    4    0    0  0.98010369009E+02  0.48384307826E+02 -0.37772950074E+03  0.40339949018E+03  0.90024992474E+02 0.  0.
          2    1    3    3  502    0 -0.52652645306E+02 -0.14439969041E+03 -0.13870964028E+03  0.20703607404E+03  0.00000000000E+00 0. -1.
         -2    1    3    3    0  502 -0.90592277276E+02 -0.44639716028E+03 -0.23727652729E+03  0.51359277235E+03  0.00000000000E+00 0.  1.
         15    1    5    5    0    0 -0.40671576198E+00  0.62319778920E+02  0.20071230442E+02  0.65497574633E+02  0.17770000000E+01 0.  1.
        -15    1    5    5    0    0  0.45641269335E+02  0.48009276394E+03 -0.72725683313E+02  0.48771340990E+03  0.17770000000E+01 0. -1.
          3    1    6    6  503    0  0.59070340310E+02  0.65974786970E+02 -0.31705263496E+03  0.32918741008E+03  0.00000000000E+00 0. -1.
         -3    1    6    6    0  503  0.38940028699E+02 -0.17590479144E+02 -0.60676865777E+02  0.74212080096E+02  0.00000000000E+00 0.  1.
<mgrwt>
<rscale>  0 0.64254366E+03</rscale>
<asrwt>0</asrwt>
<pdfrwt beam="1">  1        2 0.19104687E+00 0.64254366E+03</pdfrwt>
<pdfrwt beam="2">  1       -2 0.66989941E-01 0.64254366E+03</pdfrwt>
<totfact> 0.37719795E+01</totfact>
</mgrwt>
</event>
<event>
12    1  0.8033771E-008  0.9434197E+03  0.7818608E-02  0.9372875E-01
         -2   -1    0    0    0  501 -0.00000000000E+00  0.00000000000E+00  0.28518034167E+04  0.28518034167E+04  0.00000000000E+00 0.  1.
          2   -1    0    0  501    0  0.00000000000E+00 -0.00000000000E+00 -0.35540561688E+03  0.35540561688E+03  0.00000000000E+00 0. -1.
         23    2    1    2    0    0 -0.55015835291E+03  0.65037980432E+03  0.61290751167E+03  0.10547797547E+04  0.10600287675E+03 0.  0.
    5000000    2    1    2    0    0  0.55015835291E+03 -0.65037980432E+03  0.18834902881E+04  0.21524292789E+04  0.59978998989E+03 0.  0.
         23    2    4    4    0    0  0.62294889103E+03 -0.35626247354E+03  0.13731721123E+04  0.15520651197E+04  0.91193284444E+02 0.  0.
         23    2    4    4    0    0 -0.72790538119E+02 -0.29411733078E+03  0.51031817586E+03  0.60036415914E+03  0.90603621664E+02 0.  0.
          1    1    3    3  502    0 -0.37967046678E+03  0.51723741847E+03  0.44274878094E+03  0.77955801159E+03  0.00000000000E+00 0. -1.
         -1    1    3    3    0  502 -0.17048788613E+03  0.13314238585E+03  0.17015873073E+03  0.27522174309E+03  0.00000000000E+00 0.  1.
         15    1    5    5    0    0  0.22327360280E+03 -0.78577379845E+02  0.44403861605E+03  0.50318878823E+03  0.17770000000E+01 0. -1.
        -15    1    5    5    0    0  0.39967528823E+03 -0.27768509369E+03  0.92913349621E+03  0.10488763315E+04  0.17770000000E+01 0.  1.
          1    1    6    6  503    0 -0.41127929308E+01 -0.91208678548E+02  0.87917494474E+02  0.12674945342E+03  0.00000000000E+00 0. -1.
         -1    1    6    6    0  503 -0.68677745188E+02 -0.20290865224E+03  0.42240068139E+03  0.47361470572E+03  0.00000000000E+00 0.  1.
<mgrwt>
<rscale>  0 0.94341967E+03</rscale>
<asrwt>0</asrwt>
<pdfrwt beam="1">  1        2 0.54677789E-01 0.94341967E+03</pdfrwt>
<pdfrwt beam="2">  1       -2 0.43873897E+00 0.94341967E+03</pdfrwt>
<totfact> 0.38611246E-01</totfact>
</mgrwt>
</event>
<event>
12    1  0.8033771E-008  0.5365894E+03  0.7818608E-02  0.1004646E+00
          1   -1    0    0  501    0  0.00000000000E+00  0.00000000000E+00  0.17459851627E+04  0.17459851627E+04  0.00000000000E+00 0. -1.
         -1   -1    0    0    0  501 -0.00000000000E+00 -0.00000000000E+00 -0.28836760580E+03  0.28836760580E+03  0.00000000000E+00 0.  1.
         23    2    1    2    0    0  0.34705062995E+03 -0.26868102855E+03  0.61081335523E+02  0.45229419564E+03  0.90584077011E+02 0.  0.
    5000000    2    1    2    0    0 -0.34705062995E+03  0.26868102855E+03  0.13965362213E+04  0.15820585728E+04  0.59996856210E+03 0.  0.
         23    2    4    4    0    0 -0.12467915951E+03  0.35022522712E+03  0.40049175976E+03  0.55404236329E+03  0.91469602388E+02 0.  0.
         23    2    4    4    0    0 -0.22237147044E+03 -0.81544198573E+02  0.99604446157E+03  0.10280162095E+04  0.92812878646E+02 0.  0.
          4    1    3    3  502    0  0.31729327899E+03 -0.25775550170E+03  0.78291429210E+02  0.41622406398E+03  0.00000000000E+00 0. -1.
         -4    1    3    3    0  502  0.29757350955E+02 -0.10925526848E+02 -0.17210093687E+02  0.36070131654E+02  0.00000000000E+00 0.  1.
         15    1    5    5    0    0 -0.91848737082E+02  0.33262502096E+03  0.35284778302E+03  0.49353856059E+03  0.17770000000E+01 0. -1.
        -15    1    5    5    0    0 -0.32830422425E+02  0.17600206156E+02  0.47643976737E+02  0.60503802704E+02  0.17770000000E+01 0.  1.
          2    1    6    6  503    0 -0.21106726626E+03 -0.96074341872E+02  0.85948304381E+03  0.89021950813E+03  0.00000000000E+00 0. -1.
         -2    1    6    6    0  503 -0.11304204178E+02  0.14530143300E+02  0.13656141777E+03  0.13779670141E+03  0.00000000000E+00 0.  1.
<mgrwt>
<rscale>  0 0.53658944E+03</rscale>
<asrwt>0</asrwt>
<pdfrwt beam="1">  1        1 0.26861310E+00 0.53658944E+03</pdfrwt>
<pdfrwt beam="2">  1       -1 0.44364248E-01 0.53658944E+03</pdfrwt>
<totfact> 0.23905005E+01</totfact>
</mgrwt>
</event>
<event>
12    1  0.8033771E-008  0.5862622E+03  0.7818608E-02  0.9934325E-01
          2   -1    0    0  501    0  0.00000000000E+00  0.00000000000E+00  0.17296857664E+04  0.17296857664E+04  0.00000000000E+00 0. -1.
         -2   -1    0    0    0  501 -0.00000000000E+00 -0.00000000000E+00 -0.25006459071E+03  0.25006459071E+03  0.00000000000E+00 0.  1.
         23    2    1    2    0    0  0.15615995923E+03 -0.41599581724E+03  0.98448457729E+03  0.10838979296E+04  0.90478650153E+02 0.  0.
    5000000    2    1    2    0    0 -0.15615995923E+03  0.41599581724E+03  0.49513659844E+03  0.89585242751E+03  0.59996072198E+03 0.  0.
         23    2    4    4    0    0  0.17244935810E+03 -0.14148102674E+02  0.16054734990E+03  0.25341516441E+03  0.92221711524E+02 0.  0.
         23    2    4    4    0    0 -0.32860931733E+03  0.43014391992E+03  0.33458924854E+03  0.64243726309E+03  0.88135103662E+02 0.  0.
          1    1    3    3  502    0  0.35753705167E+02 -0.15164724854E+03  0.44005765406E+03  0.46682540025E+03  0.00000000000E+00 0. -1.
         -1    1    3    3    0  502  0.12040625406E+03 -0.26434856871E+03  0.54442692323E+03  0.61707252940E+03  0.00000000000E+00 0.  1.
         15    1    5    5    0    0  0.12523163917E+03  0.19722854799E+02  0.67335271427E+02  0.14355887628E+03  0.17770000000E+01 0. -1.
        -15    1    5    5    0    0  0.47217718930E+02 -0.33870957473E+02  0.93212078472E+02  0.10985628814E+03  0.17770000000E+01 0.  1.
          4    1    6    6  503    0 -0.11959405763E+03  0.15964430456E+03  0.74625703786E+02  0.21297426667E+03  0.00000000000E+00 0. -1.
         -4    1    6    6    0  503 -0.20901525969E+03  0.27049961536E+03  0.25996354476E+03  0.42946299642E+03  0.00000000000E+00 0.  1.
<mgrwt>
<rscale>  0 0.58626221E+03</rscale>
<asrwt>0</asrwt>
<pdfrwt beam="1">  1        2 0.26610550E+00 0.58626221E+03</pdfrwt>
<pdfrwt beam="2">  1       -2 0.38471477E-01 0.58626221E+03</pdfrwt>
<totfact> 0.62946185E+01</totfact>
</mgrwt>
</event>
<event>
12    1  0.8033771E-008  0.1239934E+04  0.7818608E-02  0.9078603E-01
          2   -1    0    0  501    0  0.00000000000E+00  0.00000000000E+00  0.21285004108E+04  0.21285004108E+04  0.00000000000E+00 0. -1.
         -2   -1    0    0    0  501 -0.00000000000E+00 -0.00000000000E+00 -0.73456411215E+03  0.73456411215E+03  0.00000000000E+00 0.  1.
         23    2    1    2    0    0  0.98400510315E+03  0.64413719434E+03  0.69581598699E+03  0.13695368894E+04  0.91063908556E+02 0.  0.
    5000000    2    1    2    0    0 -0.98400510315E+03 -0.64413719434E+03  0.69812031166E+03  0.14935276336E+04  0.60006170896E+03 0.  0.
         23    2    4    4    0    0 -0.90879882973E+03 -0.31312942239E+03  0.46275760062E+03  0.10706496033E+04  0.90446824612E+02 0.  0.
         23    2    4    4    0    0 -0.75206273420E+02 -0.33100777195E+03  0.23536271104E+03  0.42287803026E+03  0.90598532385E+02 0.  0.
          2    1    3    3  502    0  0.38282292851E+03  0.24821198593E+03  0.32186966431E+03  0.55835711274E+03  0.00000000000E+00 0. -1.
         -2    1    3    3    0  502  0.60118217464E+03  0.39592520841E+03  0.37394632269E+03  0.81117977663E+03  0.00000000000E+00 0.  1.
         15    1    5    5    0    0 -0.44490310081E+03 -0.11596194416E+03  0.18957506983E+03  0.49732062739E+03  0.17770000000E+01 0. -1.
        -15    1    5    5    0    0 -0.46389572892E+03 -0.19716747822E+03  0.27318253079E+03  0.57332897593E+03  0.17770000000E+01 0.  1.
          1    1    6    6  503    0 -0.65801030818E+02 -0.25491445821E+03  0.22339474873E+03  0.34527723705E+03  0.00000000000E+00 0. -1.
         -1    1    6    6    0  503 -0.94052426020E+01 -0.76093313748E+02  0.11967962308E+02  0.77600793213E+02  0.00000000000E+00 0.  1.
<mgrwt>
<rscale>  0 0.12399337E+04</rscale>
<asrwt>0</asrwt>
<pdfrwt beam="1">  1        2 0.32746160E+00 0.12399337E+04</pdfrwt>
<pdfrwt beam="2">  1       -2 0.11300986E+00 0.12399337E+04</pdfrwt>
<totfact> 0.33941922E+00</totfact>
</mgrwt>
</event>
<event>
12    1  0.8033771E-008  0.1337628E+04  0.7818608E-02  0.9000247E-01
         -1   -1    0    0    0  501 -0.00000000000E+00  0.00000000000E+00  0.11817972596E+04  0.11817972596E+04  0.00000000000E+00 0.  1.
          1   -1    0    0  501    0  0.00000000000E+00 -0.00000000000E+00 -0.15946112252E+04  0.15946112252E+04  0.00000000000E+00 0. -1.
         23    2    1    2    0    0 -0.10614056762E+04 -0.74565792165E+03 -0.47448199513E+02  0.13011630713E+04  0.90477958580E+02 0.  0.
    5000000    2    1    2    0    0  0.10614056762E+04  0.74565792165E+03 -0.36536576614E+03  0.14752454135E+04  0.60022424260E+03 0.  0.
         23    2    4    4    0    0 -0.10826325366E+02  0.18731717456E+02 -0.11631126221E+03  0.15286099075E+03  0.96799205657E+02 0.  0.
         23    2    4    4    0    0  0.10722320016E+04  0.72692620420E+03 -0.24905450393E+03  0.13223844227E+04  0.92570211665E+02 0.  0.
          1    1    3    3  502    0 -0.53582396578E+03 -0.43086570640E+03 -0.32542005785E+02  0.68833971366E+03  0.00000000000E+00 0. -1.
         -1    1    3    3    0  502 -0.52558171041E+03 -0.31479221525E+03 -0.14906193728E+02  0.61282335767E+03  0.00000000000E+00 0.  1.
         15    1    5    5    0    0 -0.16302095129E+02  0.45807913369E+02 -0.19921499648E+02  0.52575156776E+02  0.17770000000E+01 0. -1.
        -15    1    5    5    0    0  0.54757697628E+01 -0.27076195913E+02 -0.96389762564E+02  0.10028583397E+03  0.17770000000E+01 0.  1.
          4    1    6    6  503    0  0.10458359187E+03  0.10636301222E+03 -0.26758706442E+02  0.15154816537E+03  0.00000000000E+00 0. -1.
         -4    1    6    6    0  503  0.96764840968E+03  0.62056319197E+03 -0.22229579749E+03  0.11708362574E+04  0.00000000000E+00 0.  1.
<mgrwt>
<rscale>  0 0.13376276E+04</rscale>
<asrwt>0</asrwt>
<pdfrwt beam="1">  1        1 0.24532480E+00 0.13376276E+04</pdfrwt>
<pdfrwt beam="2">  1       -1 0.18181496E+00 0.13376276E+04</pdfrwt>
<totfact> 0.10963599E+00</totfact>
</mgrwt>
</event>
<event>
12    1  0.8033771E-008  0.6806449E+03  0.7818608E-02  0.9750917E-01
         -1   -1    0    0    0  501 -0.00000000000E+00  0.00000000000E+00  0.62485072474E+03  0.62485072474E+03  0.00000000000E+00 0.  1.
          1   -1    0    0  501    0  0.00000000000E+00 -0.00000000000E+00 -0.15338911004E+04  0.15338911004E+04  0.00000000000E+00 0. -1.
         23    2    1    2    0    0 -0.44692349453E+02  0.57478205094E+03 -0.11524042110E+04  0.12918128241E+04  0.91504617365E+02 0.  0.
    5000000    2    1    2    0    0  0.44692349453E+02 -0.57478205094E+03  0.24336383533E+03  0.86692900097E+03  0.59997343623E+03 0.  0.
         23    2    4    4    0    0  0.37735841618E+02 -0.65805227251E+03  0.89805060611E+02  0.67165277557E+03  0.92713078440E+02 0.  0.
         23    2    4    4    0    0  0.69565078353E+01  0.83270221572E+02  0.15355877472E+03  0.19527622540E+03  0.87006804965E+02 0.  0.
          4    1    3    3  502    0  0.27028675291E+02  0.22368702559E+03 -0.43490070053E+03  0.48980103514E+03  0.00000000000E+00 0. -1.
         -4    1    3    3    0  502 -0.71721024744E+02  0.35109502535E+03 -0.71750351042E+03  0.80201178899E+03  0.00000000000E+00 0.  1.
         15    1    5    5    0    0  0.14018253712E+01 -0.25449870798E+03  0.78369867555E+02  0.26630161725E+03  0.17770000000E+01 0. -1.
        -15    1    5    5    0    0  0.36334016247E+02 -0.40355356453E+03  0.11435193056E+02  0.40535115832E+03  0.17770000000E+01 0.  1.
          1    1    6    6  503    0 -0.26406114108E+01 -0.16999572896E+02  0.99818181509E+01  0.19889570153E+02  0.00000000000E+00 0. -1.
         -1    1    6    6    0  503  0.95971192461E+01  0.10026979447E+03  0.14357695657E+03  0.17538665525E+03  0.00000000000E+00 0.  1.
<mgrwt>
<rscale>  0 0.68064491E+03</rscale>
<asrwt>0</asrwt>
<pdfrwt beam="1">  1        1 0.23598325E+00 0.68064491E+03</pdfrwt>
<pdfrwt beam="2">  1       -1 0.96130881E-01 0.68064491E+03</pdfrwt>
<totfact> 0.68046876E+00</totfact>
</mgrwt>
</event>
<event>
12    1  0.8033771E-008  0.4447623E+03  0.7818608E-02  0.1029296E+00
          1   -1    0    0  501    0  0.00000000000E+00  0.00000000000E+00  0.16579888849E+04  0.16579888849E+04  0.00000000000E+00 0. -1.
         -1   -1    0    0    0  501 -0.00000000000E+00 -0.00000000000E+00 -0.16586072328E+03  0.16586072328E+03  0.00000000000E+00 0.  1.
         23    2    1    2    0    0 -0.79323053930E+02  0.22523449693E+03  0.75157409500E+02  0.26664041156E+03  0.91791869931E+02 0.  0.
    5000000    2    1    2    0    0  0.79323053930E+02 -0.22523449693E+03  0.14169707522E+04  0.15572091967E+04  0.60005970052E+03 0.  0.
         23    2    4    4    0    0  0.32321728611E+03 -0.14598897968E+03  0.94262518844E+03  0.10106714460E+04  0.84453120946E+02 0.  0.
         23    2    4    4    0    0 -0.24389423218E+03 -0.79245517246E+02  0.47434556372E+03  0.54653775066E+03  0.89081707347E+02 0.  0.
          1    1    3    3  502    0 -0.73091674050E+02  0.79863166874E+02  0.48868362185E+02  0.11877977547E+03  0.00000000000E+00 0. -1.
         -1    1    3    3    0  502 -0.62313798794E+01  0.14537133005E+03  0.26289047315E+02  0.14786063609E+03  0.00000000000E+00 0.  1.
         15    1    5    5    0    0  0.24720314031E+03 -0.69729900056E+02  0.65816281281E+03  0.70650767684E+03  0.17770000000E+01 0.  1.
        -15    1    5    5    0    0  0.76014145800E+02 -0.76259079626E+02  0.28446237563E+03  0.30416376915E+03  0.17770000000E+01 0. -1.
          1    1    6    6  503    0 -0.18575367756E+03 -0.98134083514E+02  0.37722167280E+03  0.43177646706E+03  0.00000000000E+00 0. -1.
         -1    1    6    6    0  503 -0.58140554624E+02  0.18888566269E+02  0.97123890917E+02  0.11476128360E+03  0.00000000000E+00 0.  1.
<mgrwt>
<rscale>  0 0.44476226E+03</rscale>
<asrwt>0</asrwt>
<pdfrwt beam="1">  1        1 0.25507520E+00 0.44476226E+03</pdfrwt>
<pdfrwt beam="2">  1       -1 0.25517036E-01 0.44476226E+03</pdfrwt>
<totfact> 0.73615931E+01</totfact>
</mgrwt>
</event>
<event>
12    1  0.8033771E-008  0.7175290E+03  0.7818608E-02  0.9687716E-01
         -1   -1    0    0    0  501 -0.00000000000E+00  0.00000000000E+00  0.55835821752E+03  0.55835821752E+03  0.00000000000E+00 0.  1.
          1   -1    0    0  501    0  0.00000000000E+00 -0.00000000000E+00 -0.11178384930E+04  0.11178384930E+04  0.00000000000E+00 0. -1.
         23    2    1    2    0    0  0.61113294601E+03  0.21661120899E+03 -0.50133862330E+02  0.65641584899E+03  0.89243874296E+02 0.  0.
    5000000    2    1    2    0    0 -0.61113294601E+03 -0.21661120899E+03 -0.50934641310E+03  0.10197808615E+04  0.60009611174E+03 0.  0.
         23    2    4    4    0    0  0.12016458208E+02  0.58485960397E+02 -0.27266683687E+03  0.29293354035E+03  0.88869861610E+02 0.  0.
         23    2    4    4    0    0 -0.62314940422E+03 -0.27509716939E+03 -0.23667957623E+03  0.72684732112E+03  0.91083334558E+02 0.  0.
          1    1    3    3  502    0  0.27393545431E+03  0.12372911204E+03  0.13648544021E+02  0.30089168990E+03  0.00000000000E+00 0. -1.
         -1    1    3    3    0  502  0.33719749170E+03  0.92882096951E+02 -0.63782406352E+02  0.35552415910E+03  0.00000000000E+00 0.  1.
         15    1    5    5    0    0 -0.14103198181E+02  0.72469800949E+02 -0.15672869844E+03  0.17325650029E+03  0.17770000000E+01 0. -1.
        -15    1    5    5    0    0  0.26119656389E+02 -0.13983840553E+02 -0.11593813844E+03  0.11967704007E+03  0.17770000000E+01 0.  1.
          3    1    6    6  503    0 -0.14909529348E+03 -0.68121451288E+02 -0.16777501008E+02  0.16477688916E+03  0.00000000000E+00 0. -1.
         -3    1    6    6    0  503 -0.47405411074E+03 -0.20697571810E+03 -0.21990207522E+03  0.56207043196E+03  0.00000000000E+00 0.  1.
<mgrwt>
<rscale>  0 0.71752896E+03</rscale>
<asrwt>0</asrwt>
<pdfrwt beam="1">  1        1 0.17197515E+00 0.71752896E+03</pdfrwt>
<pdfrwt beam="2">  1       -1 0.85901264E-01 0.71752896E+03</pdfrwt>
<totfact> 0.17032125E+01</totfact>
</mgrwt>
</event>
<event>
12    1  0.8033771E-008  0.5372330E+03  0.7818608E-02  0.1004493E+00
         -1   -1    0    0    0  501 -0.00000000000E+00  0.00000000000E+00  0.21953833528E+03  0.21953833528E+03  0.00000000000E+00 0.  1.
          1   -1    0    0  501    0  0.00000000000E+00 -0.00000000000E+00 -0.20450261033E+04  0.20450261033E+04  0.00000000000E+00 0. -1.
         23    2    1    2    0    0  0.12371973018E+03 -0.50884815975E+03 -0.58426766012E+03  0.78987343139E+03  0.91095102107E+02 0.  0.
    5000000    2    1    2    0    0 -0.12371973018E+03  0.50884815975E+03 -0.12412201079E+04  0.14746910072E+04  0.59987764515E+03 0.  0.
         23    2    4    4    0    0 -0.11611865973E+03  0.28334810679E+03 -0.14354657185E+03  0.35026955478E+03  0.91178122169E+02 0.  0.
         23    2    4    4    0    0 -0.76010704507E+01  0.22550005296E+03 -0.10976735361E+04  0.11244214524E+04  0.92349124243E+02 0.  0.
          2    1    3    3  502    0  0.22601308377E+02 -0.27824593233E+03 -0.32551743309E+03  0.42882772443E+03  0.00000000000E+00 0.  1.
         -2    1    3    3    0  502  0.10111842180E+03 -0.23060222742E+03 -0.25875022704E+03  0.36104570696E+03  0.00000000000E+00 0. -1.
         15    1    5    5    0    0 -0.42550532614E+02  0.11360027222E+03 -0.92880110903E+01  0.12167577636E+03  0.17770000000E+01 0. -1.
        -15    1    5    5    0    0 -0.73568127112E+02  0.16974783457E+03 -0.13425856076E+03  0.22859377842E+03  0.17770000000E+01 0.  1.
          3    1    6    6  503    0  0.15176257984E+02  0.57258042487E+01 -0.29793432313E+02  0.33922739419E+02  0.00000000000E+00 0. -1.
         -3    1    6    6    0  503 -0.22777328435E+02  0.21977424871E+03 -0.10678801037E+04  0.10904987130E+04  0.00000000000E+00 0.  1.
<mgrwt>
<rscale>  0 0.53723301E+03</rscale>
<asrwt>0</asrwt>
<pdfrwt beam="1">  1        1 0.31461940E+00 0.53723301E+03</pdfrwt>
<pdfrwt beam="2">  1       -1 0.33775129E-01 0.53723301E+03</pdfrwt>
<totfact> 0.24725515E+01</totfact>
</mgrwt>
</event>
<event>
12    1  0.8149273E-008  0.6737654E+03  0.7818608E-02  0.9763179E-01
         -2   -1    0    0    0  501 -0.00000000000E+00  0.00000000000E+00  0.20264724996E+03  0.20264724996E+03  0.00000000000E+00 0.  1.
          2   -1    0    0  501    0  0.00000000000E+00 -0.00000000000E+00 -0.27385376235E+04  0.27385376235E+04  0.00000000000E+00 0. -1.
         23    2    1    2    0    0  0.39999776416E+03  0.42331772031E+03 -0.14874757769E+04  0.16001221374E+04  0.92793126255E+02 0.  0.
    5000000    2    1    2    0    0 -0.39999776416E+03 -0.42331772031E+03 -0.10484145966E+04  0.13410627360E+04  0.60006665611E+03 0.  0.
         23    2    4    4    0    0 -0.43338549298E+03 -0.48415821997E+03 -0.10273202831E+04  0.12188753400E+04  0.89654686357E+02 0.  0.
         23    2    4    4    0    0  0.33387728824E+02  0.60840499667E+02 -0.21094313519E+02  0.12218739602E+03  0.98328443741E+02 0.  0.
          3    1    3    3  502    0  0.18811238271E+03  0.13955661628E+03 -0.64649206386E+03  0.68761494043E+03  0.00000000000E+00 0. -1.
         -3    1    3    3    0  502  0.21188538145E+03  0.28376110402E+03 -0.84098371302E+03  0.91250719700E+03  0.00000000000E+00 0.  1.
         15    1    5    5    0    0 -0.22024011544E+03 -0.20324838550E+03 -0.53623390525E+03  0.61430088192E+03  0.17770000000E+01 0.  1.
        -15    1    5    5    0    0 -0.21314537755E+03 -0.28090983447E+03 -0.49108637786E+03  0.60457445804E+03  0.17770000000E+01 0. -1.
          1    1    6    6  503    0  0.60073388585E+02  0.49518436219E+02 -0.40052328695E+02  0.87550423046E+02  0.00000000000E+00 0. -1.
         -1    1    6    6    0  503 -0.26685659761E+02  0.11322063448E+02  0.18958015176E+02  0.34636972977E+02  0.00000000000E+00 0.  1.
<mgrwt>
<rscale>  0 0.67376536E+03</rscale>
<asrwt>0</asrwt>
<pdfrwt beam="1">  1        2 0.42131345E+00 0.67376536E+03</pdfrwt>
<pdfrwt beam="2">  1       -2 0.31176502E-01 0.67376536E+03</pdfrwt>
<totfact> 0.25551945E+01</totfact>
</mgrwt>
</event>
<event>
12    1  0.8033771E-008  0.7342633E+03  0.7818608E-02  0.9660367E-01
          2   -1    0    0  501    0  0.00000000000E+00  0.00000000000E+00  0.13988016597E+04  0.13988016597E+04  0.00000000000E+00 0. -1.
         -2   -1    0    0    0  501 -0.00000000000E+00 -0.00000000000E+00 -0.39553781877E+03  0.39553781877E+03  0.00000000000E+00 0.  1.
         23    2    1    2    0    0  0.61456144337E+03 -0.46622560508E+02  0.48951177897E+03  0.79243976123E+03  0.92084540556E+02 0.  0.
    5000000    2    1    2    0    0 -0.61456144337E+03  0.46622560508E+02  0.51375206199E+03  0.10018997173E+04  0.60000202618E+03 0.  0.
         23    2    4    4    0    0 -0.57918141861E+03  0.24768255492E+03  0.37972396841E+03  0.74112964483E+03  0.91022494930E+02 0.  0.
         23    2    4    4    0    0 -0.35380024758E+02 -0.20105999441E+03  0.13402809358E+03  0.26077007243E+03  0.91436498745E+02 0.  0.
          4    1    3    3  502    0  0.16649691558E+03 -0.52923469127E+02  0.12543746522E+03  0.21507364823E+03  0.00000000000E+00 0. -1.
         -4    1    3    3    0  502  0.44806452779E+03  0.63009086191E+01  0.36407431375E+03  0.57736611301E+03  0.00000000000E+00 0.  1.
         15    1    5    5    0    0 -0.58155962044E+03  0.24378482584E+03  0.37997315160E+03  0.73622373440E+03  0.17770000000E+01 0.  1.
        -15    1    5    5    0    0  0.23782018242E+01  0.38977290805E+01 -0.24918318230E+00  0.49059104313E+01  0.17770000000E+01 0.  1.
          2    1    6    6  503    0  0.12287033600E+02 -0.25518774996E+02  0.56175964275E+02  0.62911986411E+02  0.00000000000E+00 0. -1.
         -2    1    6    6    0  503 -0.47667058358E+02 -0.17554121941E+03  0.77852129301E+02  0.19785808602E+03  0.00000000000E+00 0.  1.
<mgrwt>
<rscale>  0 0.73426328E+03</rscale>
<asrwt>0</asrwt>
<pdfrwt beam="1">  1        2 0.21520025E+00 0.73426328E+03</pdfrwt>
<pdfrwt beam="2">  1       -2 0.60851973E-01 0.73426328E+03</pdfrwt>
<totfact> 0.37265604E+01</totfact>
</mgrwt>
</event>
<event>
12    1  0.8033771E-008  0.6919513E+03  0.7818608E-02  0.9731096E-01
         -2   -1    0    0    0  501 -0.00000000000E+00  0.00000000000E+00  0.88886747308E+03  0.88886747308E+03  0.00000000000E+00 0.  1.
          2   -1    0    0  501    0  0.00000000000E+00 -0.00000000000E+00 -0.58539816529E+03  0.58539816529E+03  0.00000000000E+00 0. -1.
         23    2    1    2    0    0  0.58503500782E+03 -0.74493139880E+02  0.65710173009E+02  0.59989585111E+03  0.87988732621E+02 0.  0.
    5000000    2    1    2    0    0 -0.58503500782E+03  0.74493139880E+02  0.23775913478E+03  0.87436978726E+03  0.60014825705E+03 0.  0.
         23    2    4    4    0    0  0.57759962733E+02 -0.83713416876E+02  0.14783662365E+03  0.20112358878E+03  0.90834361401E+02 0.  0.
         23    2    4    4    0    0 -0.64279497056E+03  0.15820655676E+03  0.89922511133E+02  0.67324619849E+03  0.83424798461E+02 0.  0.
          3    1    3    3  502    0  0.22793338686E+03 -0.59667325830E+01  0.61877680826E+02  0.23625849853E+03  0.00000000000E+00 0. -1.
         -3    1    3    3    0  502  0.35710162096E+03 -0.68526407297E+02  0.38324921834E+01  0.36363735258E+03  0.00000000000E+00 0.  1.
         15    1    5    5    0    0 -0.63990563120E+01 -0.62272978152E+02  0.41662964442E+02  0.75218561969E+02  0.17770000000E+01 0.  1.
        -15    1    5    5    0    0  0.64159019045E+02 -0.21440438724E+02  0.10617365920E+03  0.12590502681E+03  0.17770000000E+01 0. -1.
          3    1    6    6  503    0 -0.24255295377E+03  0.59837255473E+02  0.74932975033E+02  0.26082059595E+03  0.00000000000E+00 0. -1.
         -3    1    6    6    0  503 -0.40024201679E+03  0.98369301283E+02  0.14989536101E+02  0.41242560254E+03  0.00000000000E+00 0.  1.
<mgrwt>
<rscale>  0 0.69195133E+03</rscale>
<asrwt>0</asrwt>
<pdfrwt beam="1">  1        2 0.90061256E-01 0.69195133E+03</pdfrwt>
<pdfrwt beam="2">  1       -2 0.13674884E+00 0.69195133E+03</pdfrwt>
<totfact> 0.19874451E+01</totfact>
</mgrwt>
</event>
<event>
12    1  0.8033771E-008  0.7280940E+03  0.7818608E-02  0.9670358E-01
         -2   -1    0    0    0  501 -0.00000000000E+00  0.00000000000E+00  0.28226559115E+03  0.28226559115E+03  0.00000000000E+00 0.  1.
          2   -1    0    0  501    0  0.00000000000E+00 -0.00000000000E+00 -0.25996615339E+04  0.25996615339E+04  0.00000000000E+00 0. -1.
         23    2    1    2    0    0  0.34675646556E+02  0.61955963193E+03 -0.31638644280E+03  0.70259049043E+03  0.92067790596E+02 0.  0.
    5000000    2    1    2    0    0 -0.34675646556E+02 -0.61955963193E+03 -0.20010094999E+04  0.21793366346E+04  0.60034374333E+03 0.  0.
         23    2    4    4    0    0  0.25050684785E+03 -0.34241708212E+03 -0.78577317016E+03  0.89740938597E+03  0.88887525193E+02 0.  0.
         23    2    4    4    0    0 -0.28518249440E+03 -0.27714254981E+03 -0.12152363297E+04  0.12819272486E+04  0.91657436086E+02 0.  0.
          1    1    3    3  502    0  0.60708895763E+02  0.41018185239E+03 -0.18509793047E+03  0.45408805965E+03  0.00000000000E+00 0. -1.
         -1    1    3    3    0  502 -0.26033249207E+02  0.20937777954E+03 -0.13128851233E+03  0.24850243078E+03  0.00000000000E+00 0.  1.
         15    1    5    5    0    0  0.23318216190E+03 -0.34356387804E+03 -0.74192320775E+03  0.85021365718E+03  0.17770000000E+01 0.  1.
        -15    1    5    5    0    0  0.17324685947E+02  0.11467959150E+01 -0.43849962408E+02  0.47195728793E+02  0.17770000000E+01 0. -1.
          2    1    6    6  503    0 -0.14688710207E+03 -0.13387871675E+03 -0.46449984067E+03  0.50523205910E+03  0.00000000000E+00 0. -1.
         -2    1    6    6    0  503 -0.13829539233E+03 -0.14326383306E+03 -0.75073648907E+03  0.77669518952E+03  0.00000000000E+00 0.  1.
<mgrwt>
<rscale>  0 0.72809398E+03</rscale>
<asrwt>0</asrwt>
<pdfrwt beam="1">  1        2 0.39994794E+00 0.72809398E+03</pdfrwt>
<pdfrwt beam="2">  1       -2 0.43425474E-01 0.72809398E+03</pdfrwt>
<totfact> 0.16122306E+01</totfact>
</mgrwt>
</event>
<event>
12    1  0.8033771E-008  0.6467522E+03  0.7818608E-02  0.9812893E-01
          2   -1    0    0  501    0  0.00000000000E+00  0.00000000000E+00  0.17258142645E+04  0.17258142645E+04  0.00000000000E+00 0. -1.
         -2   -1    0    0    0  501 -0.00000000000E+00 -0.00000000000E+00 -0.52306123164E+03  0.52306123164E+03  0.00000000000E+00 0.  1.
         23    2    1    2    0    0  0.20674427079E+02  0.58843451646E+03  0.12726226776E+04  0.14052323823E+04  0.91798457521E+02 0.  0.
    5000000    2    1    2    0    0 -0.20674427079E+02 -0.58843451646E+03 -0.69869644711E+02  0.84364311379E+03  0.60014108683E+03 0.  0.
         23    2    4    4    0    0  0.14100331902E+03 -0.42126876856E+03 -0.26603930946E+03  0.52589052524E+03  0.91840181963E+02 0.  0.
         23    2    4    4    0    0 -0.16167774610E+03 -0.16716574791E+03  0.19616966475E+03  0.31775258855E+03  0.91652001104E+02 0.  0.
          4    1    3    3  502    0  0.45623257384E+02  0.15063321609E+03  0.33941699745E+03  0.37413332592E+03  0.00000000000E+00 0. -1.
         -4    1    3    3    0  502 -0.24948830305E+02  0.43780130037E+03  0.93320568012E+03  0.10310990564E+04  0.00000000000E+00 0.  1.
         15    1    5    5    0    0  0.75368513751E+02 -0.97957562932E+02 -0.67292747717E+02  0.14073936416E+03  0.17770000000E+01 0. -1.
        -15    1    5    5    0    0  0.65634805267E+02 -0.32331120562E+03 -0.19874656175E+03  0.38515116108E+03  0.17770000000E+01 0.  1.
          2    1    6    6  503    0 -0.88653644550E+02 -0.39605342015E+02  0.11255791514E+03  0.14865172743E+03  0.00000000000E+00 0. -1.
         -2    1    6    6    0  503 -0.73024101547E+02 -0.12756040589E+03  0.83611749612E+02  0.16910086112E+03  0.00000000000E+00 0.  1.
<mgrwt>
<rscale>  0 0.64675215E+03</rscale>
<asrwt>0</asrwt>
<pdfrwt beam="1">  1        2 0.26550988E+00 0.64675215E+03</pdfrwt>
<pdfrwt beam="2">  1       -2 0.80470960E-01 0.64675215E+03</pdfrwt>
<totfact> 0.13522132E+01</totfact>
</mgrwt>
</event>
<event>
12    1  0.8033771E-008  0.1504830E+04  0.7818608E-02  0.8881248E-01
         -2   -1    0    0    0  501 -0.00000000000E+00  0.00000000000E+00  0.10945128276E+04  0.10945128276E+04  0.00000000000E+00 0.  1.
          2   -1    0    0  501    0  0.00000000000E+00 -0.00000000000E+00 -0.25845484005E+04  0.25845484005E+04  0.00000000000E+00 0. -1.
         23    2    1    2    0    0 -0.90097781028E+03 -0.11577857173E+04  0.47726421992E+02  0.14705999266E+04  0.90319162244E+02 0.  0.
    5000000    2    1    2    0    0  0.90097781028E+03  0.11577857173E+04 -0.15377619950E+04  0.22084613015E+04  0.60030041237E+03 0.  0.
         23    2    4    4    0    0  0.88124168945E+03  0.82736109482E+03 -0.13595131592E+04  0.18214663857E+04  0.91380893205E+02 0.  0.
         23    2    4    4    0    0  0.19736120834E+02  0.33042462248E+03 -0.17824883577E+03  0.38699491580E+03  0.91774025695E+02 0.  0.
          1    1    3    3  502    0 -0.14166039849E+03 -0.19679157624E+03  0.40304758352E+02  0.24580290178E+03  0.00000000000E+00 0. -1.
         -1    1    3    3    0  502 -0.75931741180E+03 -0.96099414106E+03  0.74216636404E+01  0.12247970249E+04  0.00000000000E+00 0.  1.
         15    1    5    5    0    0  0.65199993002E+02  0.50990549409E+02 -0.12899880614E+03  0.15328054322E+03  0.17770000000E+01 0. -1.
        -15    1    5    5    0    0  0.81604169645E+03  0.77637054542E+03 -0.12305143531E+04  0.16681858425E+04  0.17770000000E+01 0.  1.
          3    1    6    6  503    0 -0.10273687662E+02  0.40265187189E+02  0.59793363748E+01  0.41983168307E+02  0.00000000000E+00 0. -1.
         -3    1    6    6    0  503  0.30009808496E+02  0.29015943529E+03 -0.18422817215E+03  0.34501174749E+03  0.00000000000E+00 0.  1.
<mgrwt>
<rscale>  0 0.15048297E+04</rscale>
<asrwt>0</asrwt>
<pdfrwt beam="1">  1        2 0.39762283E+00 0.15048297E+04</pdfrwt>
<pdfrwt beam="2">  1       -2 0.16838659E+00 0.15048297E+04</pdfrwt>
<totfact> 0.64090738E-01</totfact>
</mgrwt>
</event>
<event>
12    1  0.8033771E-008  0.7441664E+03  0.7818608E-02  0.9644547E-01
          2   -1    0    0  501    0  0.00000000000E+00  0.00000000000E+00  0.22364245332E+04  0.22364245332E+04  0.00000000000E+00 0. -1.
         -2   -1    0    0    0  501 -0.00000000000E+00 -0.00000000000E+00 -0.31717833704E+03  0.31717833704E+03  0.00000000000E+00 0.  1.
         23    2    1    2    0    0  0.15366326765E+03 -0.71447842189E+03  0.77197691077E+03  0.10668893504E+04  0.90624058780E+02 0.  0.
    5000000    2    1    2    0    0 -0.15366326765E+03  0.71447842189E+03  0.11472692854E+04  0.14867135199E+04  0.59999871815E+03 0.  0.
         23    2    4    4    0    0 -0.82153001284E+02  0.14931974973E+03  0.77685558239E+03  0.80070506870E+03  0.92620234707E+02 0.  0.
         23    2    4    4    0    0 -0.71510266365E+02  0.56515867216E+03  0.37041370301E+03  0.68600845117E+03  0.94250945801E+02 0.  0.
          3    1    3    3  502    0  0.43432053517E+02 -0.25783529553E+03  0.21696497098E+03  0.33976341994E+03  0.00000000000E+00 0. -1.
         -3    1    3    3    0  502  0.11023121413E+03 -0.45664312636E+03  0.55501193979E+03  0.72712593045E+03  0.00000000000E+00 0.  1.
         15    1    5    5    0    0 -0.83964011945E+02  0.94901356154E+02  0.65614690489E+03  0.66827250521E+03  0.17770000000E+01 0.  1.
        -15    1    5    5    0    0  0.18110106616E+01  0.54418393576E+02  0.12070867750E+03  0.13243256349E+03  0.17770000000E+01 0. -1.
          1    1    6    6  503    0  0.72445637075E+01  0.27929436259E+03  0.20447847725E+03  0.34622142097E+03  0.00000000000E+00 0. -1.
         -1    1    6    6    0  503 -0.78754830072E+02  0.28586430957E+03  0.16593522576E+03  0.33978703020E+03  0.00000000000E+00 0.  1.
<mgrwt>
<rscale>  0 0.74416642E+03</rscale>
<asrwt>0</asrwt>
<pdfrwt beam="1">  1        2 0.34406530E+00 0.74416642E+03</pdfrwt>
<pdfrwt beam="2">  1       -2 0.48796669E-01 0.74416642E+03</pdfrwt>
<totfact> 0.20374873E+01</totfact>
</mgrwt>
</event>
<event>
12    1  0.8033771E-008  0.1326374E+04  0.7818608E-02  0.9008908E-01
         -1   -1    0    0    0  501 -0.00000000000E+00  0.00000000000E+00  0.84287309604E+03  0.84287309604E+03  0.00000000000E+00 0.  1.
          1   -1    0    0  501    0  0.00000000000E+00 -0.00000000000E+00 -0.27793652360E+04  0.27793652360E+04  0.00000000000E+00 0. -1.
         23    2    1    2    0    0 -0.40875838129E+03  0.12120952982E+04 -0.17903112611E+04  0.22022288818E+04  0.91319275661E+02 0.  0.
    5000000    2    1    2    0    0  0.40875838129E+03 -0.12120952982E+04 -0.14618087887E+03  0.14200094502E+04  0.59899880073E+03 0.  0.
         23    2    4    4    0    0  0.46494612572E+03 -0.61440831918E+03 -0.22406308098E+03  0.80769894941E+03  0.92200033186E+02 0.  0.
         23    2    4    4    0    0 -0.56187744437E+02 -0.59768697901E+03  0.77882202111E+02  0.61231050083E+03  0.92041971543E+02 0.  0.
          3    1    3    3  502    0 -0.60741579662E+02  0.19217118881E+03 -0.22826216816E+03  0.30450438867E+03  0.00000000000E+00 0. -1.
         -3    1    3    3    0  502 -0.34801680163E+03  0.10199241094E+04 -0.15620490930E+04  0.18977244931E+04  0.00000000000E+00 0.  1.
         15    1    5    5    0    0  0.30573490693E+03 -0.35174725923E+03 -0.16841486072E+03  0.49554686028E+03  0.17770000000E+01 0.  1.
        -15    1    5    5    0    0  0.15921121879E+03 -0.26266105995E+03 -0.55648220263E+02  0.31215208913E+03  0.17770000000E+01 0. -1.
          1    1    6    6  503    0 -0.15032632964E+02 -0.18249711911E+03 -0.18655459346E+02  0.18406304545E+03  0.00000000000E+00 0.  1.
         -1    1    6    6    0  503 -0.41155111473E+02 -0.41518985990E+03  0.96537661458E+02  0.42824745539E+03  0.00000000000E+00 0. -1.
<mgrwt>
<rscale>  0 0.13263745E+04</rscale>
<asrwt>0</asrwt>
<pdfrwt beam="1">  1        1 0.42759466E+00 0.13263745E+04</pdfrwt>
<pdfrwt beam="2">  1       -1 0.12967278E+00 0.13263745E+04</pdfrwt>
<totfact> 0.42852266E-01</totfact>
</mgrwt>
</event>
<event>
12    1  0.8033771E-008  0.7576601E+03  0.7818608E-02  0.9623409E-01
         -2   -1    0    0    0  501 -0.00000000000E+00  0.00000000000E+00  0.60315204275E+03  0.60315204275E+03  0.00000000000E+00 0.  1.
          2   -1    0    0  501    0  0.00000000000E+00 -0.00000000000E+00 -0.14612311381E+04  0.14612311381E+04  0.00000000000E+00 0. -1.
         23    2    1    2    0    0 -0.22644519012E+03  0.65873556990E+03 -0.90311470857E+03  0.11439507867E+04  0.88302041019E+02 0.  0.
    5000000    2    1    2    0    0  0.22644519012E+03 -0.65873556990E+03  0.45035613245E+02  0.92043239410E+03  0.59996467435E+03 0.  0.
         23    2    4    4    0    0  0.34826294281E+03 -0.47967555042E+03 -0.14721442938E+03  0.61672951180E+03  0.85483866850E+02 0.  0.
         23    2    4    4    0    0 -0.12181775269E+03 -0.17906001948E+03  0.19225004263E+03  0.30370288230E+03  0.91505772404E+02 0.  0.
          3    1    3    3  502    0 -0.68813196845E+02  0.31660704435E+03 -0.38110114193E+03  0.50021331147E+03  0.00000000000E+00 0. -1.
         -3    1    3    3    0  502 -0.15763199328E+03  0.34212852555E+03 -0.52201356664E+03  0.64373747527E+03  0.00000000000E+00 0.  1.
         15    1    5    5    0    0  0.31833907838E+03 -0.46773115820E+03 -0.13164340673E+03  0.58090046431E+03  0.17770000000E+01 0. -1.
        -15    1    5    5    0    0  0.29923864435E+02 -0.11944392229E+02 -0.15571022658E+02  0.35829047490E+02  0.17770000000E+01 0.  1.
          1    1    6    6  503    0 -0.76516990964E+02 -0.11288563144E+03  0.17467235836E+03  0.22160426094E+03  0.00000000000E+00 0. -1.
         -1    1    6    6    0  503 -0.45300761726E+02 -0.66174388043E+02  0.17577684266E+02  0.82098621364E+02  0.00000000000E+00 0.  1.
<mgrwt>
<rscale>  0 0.75766005E+03</rscale>
<asrwt>0</asrwt>
<pdfrwt beam="1">  1        2 0.22480479E+00 0.75766005E+03</pdfrwt>
<pdfrwt beam="2">  1       -2 0.92792624E-01 0.75766005E+03</pdfrwt>
<totfact> 0.13444403E+01</totfact>
</mgrwt>
</event>
<event>
12    1  0.8033771E-008  0.6324637E+03  0.7818608E-02  0.9840253E-01
          3   -1    0    0  501    0  0.00000000000E+00  0.00000000000E+00  0.81544132372E+03  0.81544132372E+03  0.00000000000E+00 0. -1.
         -3   -1    0    0    0  501 -0.00000000000E+00 -0.00000000000E+00 -0.20887414682E+04  0.20887414682E+04  0.00000000000E+00 0.  1.
         23    2    1    2    0    0  0.33410692290E+02  0.49240711613E+03  0.65535986465E+03  0.82493520601E+03  0.86258330282E+02 0.  0.
    5000000    2    1    2    0    0 -0.33410692290E+02 -0.49240711613E+03 -0.19286600091E+04  0.20792475859E+04  0.59996670763E+03 0.  0.
         23    2    4    4    0    0 -0.23117593993E+03 -0.49606654709E+03 -0.14772760062E+04  0.15780114147E+04  0.90836622911E+02 0.  0.
         23    2    4    4    0    0  0.19776524764E+03  0.36594309647E+01 -0.45138400285E+03  0.50123617113E+03  0.91464182106E+02 0.  0.
          1    1    3    3  502    0  0.48981476700E+02  0.44805980801E+03  0.61793914043E+03  0.76485656034E+03  0.00000000000E+00 0. -1.
         -1    1    3    3    0  502 -0.15570784410E+02  0.44347308120E+02  0.37420724219E+02  0.60078645671E+02  0.00000000000E+00 0.  1.
         15    1    5    5    0    0 -0.11034803792E+03 -0.33369599567E+03 -0.98007359810E+03  0.10411902431E+04  0.17770000000E+01 0.  1.
        -15    1    5    5    0    0 -0.12082790201E+03 -0.16237055143E+03 -0.49720240815E+03  0.53682117160E+03  0.17770000000E+01 0. -1.
          3    1    6    6  503    0  0.14527101458E+03 -0.33403885396E+02 -0.26447690191E+03  0.30359103887E+03  0.00000000000E+00 0. -1.
         -3    1    6    6    0  503  0.52494233061E+02  0.37063316361E+02 -0.18690710094E+03  0.19764513226E+03  0.00000000000E+00 0.  1.
<mgrwt>
<rscale>  0 0.63246366E+03</rscale>
<asrwt>0</asrwt>
<pdfrwt beam="1">  1        3 0.12545251E+00 0.63246366E+03</pdfrwt>
<pdfrwt beam="2">  1       -3 0.32134483E+00 0.63246366E+03</pdfrwt>
<totfact> 0.39463045E-02</totfact>
</mgrwt>
</event>
<event>
12    1  0.8033771E-008  0.9370472E+03  0.7818608E-02  0.9380420E-01
         -1   -1    0    0    0  501 -0.00000000000E+00  0.00000000000E+00  0.67355019718E+03  0.67355019718E+03  0.00000000000E+00 0.  1.
          1   -1    0    0  501    0  0.00000000000E+00 -0.00000000000E+00 -0.15538596425E+04  0.15538596425E+04  0.00000000000E+00 0. -1.
         23    2    1    2    0    0  0.75063737270E+03 -0.49667514350E+03 -0.13669696512E+03  0.91493811388E+03  0.91011144901E+02 0.  0.
    5000000    2    1    2    0    0 -0.75063737270E+03  0.49667514350E+03 -0.74361248017E+03  0.13124717258E+04  0.59956638234E+03 0.  0.
         23    2    4    4    0    0 -0.68699470295E+03  0.30369033084E+03 -0.29640687022E+03  0.81280266427E+03  0.92744807958E+02 0.  0.
         23    2    4    4    0    0 -0.63642669749E+02  0.19298481266E+03 -0.44720560995E+03  0.49966906151E+03  0.91557556350E+02 0.  0.
          1    1    3    3  502    0  0.54105064904E+03 -0.34252238308E+03 -0.57276316018E+02  0.64291365215E+03  0.00000000000E+00 0. -1.
         -1    1    3    3    0  502  0.20958672366E+03 -0.15415276042E+03 -0.79420649102E+02  0.27202446174E+03  0.00000000000E+00 0.  1.
         15    1    5    5    0    0 -0.45688201765E+02  0.46642377419E+02 -0.34968737472E+02  0.74087066895E+02  0.17770000000E+01 0. -1.
        -15    1    5    5    0    0 -0.64130650118E+03  0.25704795342E+03 -0.26143813275E+03  0.73871559737E+03  0.17770000000E+01 0.  1.
          3    1    6    6  503    0 -0.46071313665E+02  0.33671683921E+02 -0.17168239978E+03  0.18091764600E+03  0.00000000000E+00 0. -1.
         -3    1    6    6    0  503 -0.17571356084E+02  0.15931312874E+03 -0.27552321018E+03  0.31875141551E+03  0.00000000000E+00 0.  1.
<mgrwt>
<rscale>  0 0.93704715E+03</rscale>
<asrwt>0</asrwt>
<pdfrwt beam="1">  1        1 0.23905533E+00 0.93704715E+03</pdfrwt>
<pdfrwt beam="2">  1       -1 0.10362311E+00 0.93704715E+03</pdfrwt>
<totfact> 0.53451370E+00</totfact>
</mgrwt>
</event>
<event>
12    1  0.8033771E-008  0.5230246E+03  0.7818608E-02  0.1007938E+00
          2   -1    0    0  501    0  0.00000000000E+00  0.00000000000E+00  0.74569414725E+03  0.74569414725E+03  0.00000000000E+00 0. -1.
         -2   -1    0    0    0  501 -0.00000000000E+00 -0.00000000000E+00 -0.45361837875E+03  0.45361837875E+03  0.00000000000E+00 0.  1.
         23    2    1    2    0    0  0.28556302969E+03  0.22177434989E+03 -0.11350696285E+03  0.38982281669E+03  0.91366797038E+02 0.  0.
    5000000    2    1    2    0    0 -0.28556302969E+03 -0.22177434989E+03  0.40558273134E+03  0.80948970931E+03  0.60003844154E+03 0.  0.
         23    2    4    4    0    0  0.90402672417E+02 -0.26556764341E+03  0.26266450168E+03  0.39557688814E+03  0.93752960365E+02 0.  0.
         23    2    4    4    0    0 -0.37596570211E+03  0.43793293520E+02  0.14291822966E+03  0.41391282117E+03  0.87350680852E+02 0.  0.
          1    1    3    3  502    0  0.20503324180E+03  0.20596875841E+03 -0.94295899896E+02  0.30553801142E+03  0.00000000000E+00 0. -1.
         -1    1    3    3    0  502  0.80529787891E+02  0.15805591480E+02 -0.19211062950E+02  0.84284805271E+02  0.00000000000E+00 0.  1.
         15    1    5    5    0    0  0.84802643100E+02 -0.17772009777E+03  0.22718608981E+03  0.30065361890E+03  0.17770000000E+01 0.  1.
        -15    1    5    5    0    0  0.56000293176E+01 -0.87847545645E+02  0.35478411871E+02  0.94923269234E+02  0.17770000000E+01 0. -1.
          4    1    6    6  503    0 -0.20343021209E+03  0.67275615606E+02  0.82583343770E+02  0.22962985066E+03  0.00000000000E+00 0. -1.
         -4    1    6    6    0  503 -0.17253549002E+03 -0.23482322087E+02  0.60334885887E+02  0.18428297051E+03  0.00000000000E+00 0.  1.
<mgrwt>
<rscale>  0 0.52302456E+03</rscale>
<asrwt>0</asrwt>
<pdfrwt beam="1">  1        2 0.11472218E+00 0.52302456E+03</pdfrwt>
<pdfrwt beam="2">  1       -2 0.69787443E-01 0.52302456E+03</pdfrwt>
<totfact> 0.72964780E+01</totfact>
</mgrwt>
</event>
<event>
12    1  0.8033771E-008  0.6746312E+03  0.7818608E-02  0.9761628E-01
          2   -1    0    0  501    0  0.00000000000E+00  0.00000000000E+00  0.23904359621E+04  0.23904359621E+04  0.00000000000E+00 0. -1.
         -2   -1    0    0    0  501 -0.00000000000E+00 -0.00000000000E+00 -0.71365762103E+03  0.71365762103E+03  0.00000000000E+00 0.  1.
         23    2    1    2    0    0  0.61337234692E+03 -0.22778520630E+03 -0.45014308597E+03  0.79933897886E+03  0.90566379579E+02 0.  0.
    5000000    2    1    2    0    0 -0.61337234692E+03  0.22778520630E+03  0.21269214271E+04  0.23047546043E+04  0.59998941068E+03 0.  0.
         23    2    4    4    0    0 -0.19913968245E+03  0.84256801777E+00  0.13664176638E+03  0.25716865765E+03  0.88359623760E+02 0.  0.
         23    2    4    4    0    0 -0.41423266446E+03  0.22694263829E+03  0.19902796607E+04  0.20475859466E+04  0.91123102246E+02 0.  0.
          4    1    3    3  502    0  0.25836662549E+03 -0.14105231226E+03 -0.18218391822E+03  0.34617921373E+03  0.00000000000E+00 0. -1.
         -4    1    3    3    0  502  0.35500572143E+03 -0.86732894049E+02 -0.26795916774E+03  0.45315976513E+03  0.00000000000E+00 0.  1.
         15    1    5    5    0    0 -0.16918460934E+02  0.21917839127E+02 -0.11018108558E+01  0.27766845491E+02  0.17770000000E+01 0. -1.
        -15    1    5    5    0    0 -0.18222122152E+03 -0.21075271109E+02  0.13774357724E+03  0.22940181216E+03  0.17770000000E+01 0.  1.
          2    1    6    6  503    0 -0.23552567525E+03  0.17082436781E+03  0.13154835059E+04  0.13472750880E+04  0.00000000000E+00 0. -1.
         -2    1    6    6    0  503 -0.17870698922E+03  0.56118270480E+02  0.67479615479E+03  0.70031085869E+03  0.00000000000E+00 0.  1.
<mgrwt>
<rscale>  0 0.67463118E+03</rscale>
<asrwt>0</asrwt>
<pdfrwt beam="1">  1        2 0.36775938E+00 0.67463118E+03</pdfrwt>
<pdfrwt beam="2">  1       -2 0.10979348E+00 0.67463118E+03</pdfrwt>
<totfact> 0.28247079E+00</totfact>
</mgrwt>
</event>
<event>
12    1  0.8033771E-008  0.9937166E+03  0.7818608E-02  0.9315463E-01
         -1   -1    0    0    0  501 -0.00000000000E+00  0.00000000000E+00  0.90299824049E+03  0.90299824049E+03  0.00000000000E+00 0.  1.
          1   -1    0    0  501    0  0.00000000000E+00 -0.00000000000E+00 -0.20094603786E+04  0.20094603786E+04  0.00000000000E+00 0. -1.
         23    2    1    2    0    0 -0.91902223943E+03  0.36996323790E+03 -0.13999096638E+04  0.17176217166E+04  0.94882140736E+02 0.  0.
    5000000    2    1    2    0    0  0.91902223943E+03 -0.36996323790E+03  0.29344752566E+03  0.11948369025E+04  0.60004091471E+03 0.  0.
         23    2    4    4    0    0  0.60438443371E+03 -0.24575358287E+03  0.46354470815E+03  0.80534604188E+03  0.89628028667E+02 0.  0.
         23    2    4    4    0    0  0.31463780572E+03 -0.12420965503E+03 -0.17009718249E+03  0.38949086062E+03  0.91351474153E+02 0.  0.
          4    1    3    3  502    0 -0.42470750505E+03  0.12594683941E+03 -0.66166494645E+03  0.79626601872E+03  0.00000000000E+00 0. -1.
         -4    1    3    3    0  502 -0.49431473438E+03  0.24401639849E+03 -0.73824471732E+03  0.92135569787E+03  0.00000000000E+00 0.  1.
         15    1    5    5    0    0  0.17894502057E+03 -0.50423775227E+02  0.90656353554E+02  0.20684682657E+03  0.17770000000E+01 0.  1.
        -15    1    5    5    0    0  0.42543941314E+03 -0.19532980764E+03  0.37288835459E+03  0.59849921531E+03  0.17770000000E+01 0. -1.
          1    1    6    6  503    0  0.62665814243E+02 -0.35275787675E+02  0.15041174774E+01  0.71928074076E+02  0.00000000000E+00 0. -1.
         -1    1    6    6    0  503  0.25197199147E+03 -0.88933867351E+02 -0.17160129997E+03  0.31756278655E+03  0.00000000000E+00 0.  1.
<mgrwt>
<rscale>  0 0.99371655E+03</rscale>
<asrwt>0</asrwt>
<pdfrwt beam="1">  1        1 0.30914775E+00 0.99371655E+03</pdfrwt>
<pdfrwt beam="2">  1       -1 0.13892281E+00 0.99371655E+03</pdfrwt>
<totfact> 0.12710192E+00</totfact>
</mgrwt>
</event>
<event>
12    1  0.8375874E-008  0.9558202E+03  0.7818608E-02  0.9358373E-01
         -1   -1    0    0    0  501 -0.00000000000E+00  0.00000000000E+00  0.10128392899E+04  0.10128392899E+04  0.00000000000E+00 0.  1.
          1   -1    0    0  501    0  0.00000000000E+00 -0.00000000000E+00 -0.13100843069E+04  0.13100843069E+04  0.00000000000E+00 0. -1.
         23    2    1    2    0    0  0.50603387009E+03 -0.73520934939E+03 -0.73683885662E+03  0.11610686180E+04  0.92443333348E+02 0.  0.
    5000000    2    1    2    0    0 -0.50603387009E+03  0.73520934939E+03  0.43959383966E+03  0.11618549789E+04  0.60005098358E+03 0.  0.
         23    2    4    4    0    0 -0.54955793251E+03  0.72814917900E+03  0.49920377078E+03  0.10438918612E+04  0.91053089657E+02 0.  0.
         23    2    4    4    0    0  0.43524062421E+02  0.70601703917E+01 -0.59609931121E+02  0.11796311761E+03  0.91748368991E+02 0.  0.
          3    1    3    3  502    0  0.22290552481E+03 -0.37062387633E+03 -0.30755599280E+03  0.53069729546E+03  0.00000000000E+00 0. -1.
         -3    1    3    3    0  502  0.28312834528E+03 -0.36458547306E+03 -0.42928286382E+03  0.63037132250E+03  0.00000000000E+00 0.  1.
         15    1    5    5    0    0 -0.26909892047E+03  0.28343378295E+03  0.20242638173E+03  0.44014603947E+03  0.17770000000E+01 0.  1.
        -15    1    5    5    0    0 -0.28045901205E+03  0.44471539605E+03  0.29677738905E+03  0.60374582177E+03  0.17770000000E+01 0. -1.
          3    1    6    6  503    0  0.44757499092E+02  0.44711132071E+02 -0.29836158490E+02  0.69946518208E+02  0.00000000000E+00 0. -1.
         -3    1    6    6    0  503 -0.12334366710E+01 -0.37650961679E+02 -0.29773772631E+02  0.48016599402E+02  0.00000000000E+00 0.  1.
<mgrwt>
<rscale>  0 0.95582019E+03</rscale>
<asrwt>0</asrwt>
<pdfrwt beam="1">  1        1 0.20155143E+00 0.95582019E+03</pdfrwt>
<pdfrwt beam="2">  1       -1 0.15582143E+00 0.95582019E+03</pdfrwt>
<totfact> 0.28263961E+00</totfact>
</mgrwt>
</event>
<event>
12    1  0.8033771E-008  0.5014968E+03  0.7818608E-02  0.1013389E+00
         -2   -1    0    0    0  501 -0.00000000000E+00  0.00000000000E+00  0.21505278347E+03  0.21505278347E+03  0.00000000000E+00 0.  1.
          2   -1    0    0  501    0  0.00000000000E+00 -0.00000000000E+00 -0.27814891110E+04  0.27814891110E+04  0.00000000000E+00 0. -1.
         23    2    1    2    0    0 -0.42544796867E+03 -0.99293830581E+02 -0.20356825794E+04  0.20840546916E+04  0.91734152034E+02 0.  0.
    5000000    2    1    2    0    0  0.42544796867E+03  0.99293830581E+02 -0.53075374811E+03  0.91248720287E+03  0.60005676017E+03 0.  0.
         23    2    4    4    0    0  0.32909399260E+03 -0.10040861019E+03 -0.32811655141E+02  0.36045836708E+03  0.10231756801E+03 0.  0.
         23    2    4    4    0    0  0.96353976070E+02  0.19970244078E+03 -0.49794209297E+03  0.55202883578E+03  0.87317547065E+02 0.  0.
          3    1    3    3  502    0 -0.27142226724E+02 -0.86568331287E+01 -0.57912977106E+02  0.64541104334E+02  0.00000000000E+00 0.  1.
         -3    1    3    3    0  502 -0.39830574194E+03 -0.90636997453E+02 -0.19777696023E+04  0.20195135872E+04  0.00000000000E+00 0. -1.
         15    1    5    5    0    0  0.15982579970E+03 -0.49524792411E+02  0.35325314284E+02  0.17102054517E+03  0.17770000000E+01 0.  1.
        -15    1    5    5    0    0  0.16926819290E+03 -0.50883817783E+02 -0.68136969425E+02  0.18943782191E+03  0.17770000000E+01 0. -1.
          3    1    6    6  503    0  0.31990275620E+02  0.76573654749E+02 -0.96778452446E+02  0.12748714129E+03  0.00000000000E+00 0. -1.
         -3    1    6    6    0  503  0.64363700449E+02  0.12312878603E+03 -0.40116364053E+03  0.42454169449E+03  0.00000000000E+00 0.  1.
<mgrwt>
<rscale>  0 0.50149685E+03</rscale>
<asrwt>0</asrwt>
<pdfrwt beam="1">  1        2 0.42792139E+00 0.50149685E+03</pdfrwt>
<pdfrwt beam="2">  1       -2 0.33085044E-01 0.50149685E+03</pdfrwt>
<totfact> 0.22352863E+01</totfact>
</mgrwt>
</event>
<event>
12    1  0.8033771E-008  0.4690766E+03  0.7818608E-02  0.1022181E+00
          1   -1    0    0  501    0  0.00000000000E+00  0.00000000000E+00  0.69403696972E+03  0.69403696972E+03  0.00000000000E+00 0. -1.
         -1   -1    0    0    0  501 -0.00000000000E+00 -0.00000000000E+00 -0.50572409116E+03  0.50572409116E+03  0.00000000000E+00 0.  1.
         23    2    1    2    0    0 -0.48347397009E+02 -0.36684387902E+03  0.30146651989E+03  0.48573816770E+03  0.90264071375E+02 0.  0.
    5000000    2    1    2    0    0  0.48347397009E+02  0.36684387902E+03 -0.11315364133E+03  0.71402289318E+03  0.60009419516E+03 0.  0.
         23    2    4    4    0    0 -0.18415758292E+03  0.15225271408E+03 -0.25004508217E+03  0.35751673796E+03  0.90558105731E+02 0.  0.
         23    2    4    4    0    0  0.23250497992E+03  0.21459116494E+03  0.13689144084E+03  0.35650615522E+03  0.90826418927E+02 0.  0.
          3    1    3    3  502    0  0.23203380248E+02 -0.77199142662E+02  0.45087781187E+02  0.92363480310E+02  0.00000000000E+00 0. -1.
         -3    1    3    3    0  502 -0.71550777256E+02 -0.28964473636E+03  0.25637873870E+03  0.39337468739E+03  0.00000000000E+00 0.  1.
         15    1    5    5    0    0 -0.53986645564E+02  0.56226518190E+02 -0.14500674430E+03  0.16463928106E+03  0.17770000000E+01 0. -1.
        -15    1    5    5    0    0 -0.13017093735E+03  0.96026195893E+02 -0.10503833787E+03  0.19287745690E+03  0.17770000000E+01 0.  1.
          3    1    6    6  503    0  0.16948788278E+03  0.12815112183E+03  0.49003570939E+02  0.21806008897E+03  0.00000000000E+00 0. -1.
         -3    1    6    6    0  503  0.63017097140E+02  0.86440043105E+02  0.87887869897E+02  0.13844606625E+03  0.00000000000E+00 0.  1.
<mgrwt>
<rscale>  0 0.46907656E+03</rscale>
<asrwt>0</asrwt>
<pdfrwt beam="1">  1        1 0.10677492E+00 0.46907656E+03</pdfrwt>
<pdfrwt beam="2">  1       -1 0.77803707E-01 0.46907656E+03</pdfrwt>
<totfact> 0.48244456E+01</totfact>
</mgrwt>
</event>
<event>
12    1  0.8033771E-008  0.5129772E+03  0.7818608E-02  0.1010446E+00
          1   -1    0    0  501    0  0.00000000000E+00  0.00000000000E+00  0.19444554046E+04  0.19444554046E+04  0.00000000000E+00 0. -1.
         -1   -1    0    0    0  501 -0.00000000000E+00 -0.00000000000E+00 -0.16948351314E+03  0.16948351314E+03  0.00000000000E+00 0.  1.
         23    2    1    2    0    0  0.40661341210E+03  0.13046019190E+02  0.54452070537E+03  0.68580532547E+03  0.91222148366E+02 0.  0.
    5000000    2    1    2    0    0 -0.40661341210E+03 -0.13046019190E+02  0.12304511860E+04  0.14281335922E+04  0.60004230726E+03 0.  0.
         23    2    4    4    0    0 -0.20966769020E+03 -0.22489172521E+03  0.25762336018E+03  0.40911256827E+03  0.80414360812E+02 0.  0.
         23    2    4    4    0    0 -0.19694572189E+03  0.21184570602E+03  0.97282782586E+03  0.10190210240E+04  0.91343571005E+02 0.  0.
          1    1    3    3  502    0  0.21393794000E+03 -0.95621038343E+01  0.21524168286E+03  0.30362782818E+03  0.00000000000E+00 0.  1.
         -1    1    3    3    0  502  0.19267547210E+03  0.22608123024E+02  0.32927902251E+03  0.38217749729E+03  0.00000000000E+00 0. -1.
         15    1    5    5    0    0 -0.91779474368E+02 -0.15666232967E+03  0.14909133703E+03  0.23494242265E+03  0.17770000000E+01 0. -1.
        -15    1    5    5    0    0 -0.11788821583E+03 -0.68229395534E+02  0.10853202315E+03  0.17417014562E+03  0.17770000000E+01 0.  1.
          3    1    6    6  503    0 -0.26819988745E+02  0.81178797287E+02  0.34984417571E+03  0.36013921781E+03  0.00000000000E+00 0. -1.
         -3    1    6    6    0  503 -0.17012573315E+03  0.13066690873E+03  0.62298365015E+03  0.65888180614E+03  0.00000000000E+00 0.  1.
<mgrwt>
<rscale>  0 0.51297719E+03</rscale>
<asrwt>0</asrwt>
<pdfrwt beam="1">  1        1 0.29914697E+00 0.51297719E+03</pdfrwt>
<pdfrwt beam="2">  1       -1 0.26074388E-01 0.51297719E+03</pdfrwt>
<totfact> 0.45298357E+01</totfact>
</mgrwt>
</event>
<event>
12    1  0.8033771E-008  0.3576960E+03  0.7818608E-02  0.1059500E+00
          2   -1    0    0  501    0  0.00000000000E+00  0.00000000000E+00  0.68318819943E+03  0.68318819943E+03  0.00000000000E+00 0. -1.
         -2   -1    0    0    0  501 -0.00000000000E+00 -0.00000000000E+00 -0.28242215007E+03  0.28242215007E+03  0.00000000000E+00 0.  1.
         23    2    1    2    0    0 -0.73421582710E+02  0.18291845671E+03 -0.13032335479E+01  0.21718328525E+03  0.91197534855E+02 0.  0.
    5000000    2    1    2    0    0  0.73421582710E+02 -0.18291845671E+03  0.40206928291E+03  0.74842706424E+03  0.59969448190E+03 0.  0.
         23    2    4    4    0    0 -0.14851078694E+03 -0.22727274839E+03  0.10139304005E+02  0.28655911375E+03  0.91131576280E+02 0.  0.
         23    2    4    4    0    0  0.22193236965E+03  0.44354291675E+02  0.39192997890E+03  0.46186795049E+03  0.92149961700E+02 0.  0.
          1    1    3    3  502    0 -0.31079978199E+02  0.12458183708E+03  0.39518194500E+02  0.13434391267E+03  0.00000000000E+00 0. -1.
         -1    1    3    3    0  502 -0.42341604511E+02  0.58336619632E+02 -0.40821428048E+02  0.82839372586E+02  0.00000000000E+00 0.  1.
         15    1    5    5    0    0 -0.12314011524E+03 -0.19901528462E+03 -0.24256250558E+02  0.23529151050E+03  0.17770000000E+01 0.  1.
        -15    1    5    5    0    0 -0.25370671697E+02 -0.28257463765E+02  0.34395554562E+02  0.51267603254E+02  0.17770000000E+01 0. -1.
          2    1    6    6  503    0  0.10323014017E+03 -0.23853444680E+02  0.14587979986E+03  0.18029521533E+03  0.00000000000E+00 0.  1.
         -2    1    6    6    0  503  0.11870222948E+03  0.68207736355E+02  0.24605017904E+03  0.28157273516E+03  0.00000000000E+00 0. -1.
<mgrwt>
<rscale>  0 0.35769596E+03</rscale>
<asrwt>0</asrwt>
<pdfrwt beam="1">  1        2 0.10510588E+00 0.35769596E+03</pdfrwt>
<pdfrwt beam="2">  1       -2 0.43449562E-01 0.35769596E+03</pdfrwt>
<totfact> 0.21945451E+02</totfact>
</mgrwt>
</event>
<event>
12    1  0.8033771E-008  0.7310595E+03  0.7818608E-02  0.9665543E-01
          1   -1    0    0  501    0  0.00000000000E+00  0.00000000000E+00  0.17028546085E+04  0.17028546085E+04  0.00000000000E+00 0. -1.
         -1   -1    0    0    0  501 -0.00000000000E+00 -0.00000000000E+00 -0.48358244116E+03  0.48358244116E+03  0.00000000000E+00 0.  1.
         23    2    1    2    0    0  0.70169731307E+03 -0.16004475416E+03  0.10891869718E+03  0.73352244008E+03  0.90545264930E+02 0.  0.
    5000000    2    1    2    0    0 -0.70169731307E+03  0.16004475416E+03  0.11103534701E+04  0.14529146096E+04  0.60006882231E+03 0.  0.
         23    2    4    4    0    0 -0.30738951441E+03  0.42493844686E+02  0.71212004240E+02  0.33156140195E+03  0.92562267194E+02 0.  0.
         23    2    4    4    0    0 -0.39430779866E+03  0.11755090947E+03  0.10391414659E+04  0.11213532076E+04  0.91220467348E+02 0.  0.
          1    1    3    3  502    0  0.21285114049E+03 -0.59159374831E+02  0.74684633057E+02  0.23320213132E+03  0.00000000000E+00 0. -1.
         -1    1    3    3    0  502  0.48884617258E+03 -0.10088537933E+03  0.34234064120E+02  0.50032030876E+03  0.00000000000E+00 0.  1.
         15    1    5    5    0    0 -0.18788546720E+03 -0.14248860287E+02  0.64210533458E+02  0.19907317534E+03  0.17770000000E+01 0.  1.
        -15    1    5    5    0    0 -0.11950404721E+03  0.56742704972E+02  0.70014707816E+01  0.13248822661E+03  0.17770000000E+01 0. -1.
          4    1    6    6  503    0 -0.26991083505E+03  0.12339798354E+03  0.74467495030E+03  0.80163564219E+03  0.00000000000E+00 0. -1.
         -4    1    6    6    0  503 -0.12439696361E+03 -0.58470740723E+01  0.29446651559E+03  0.31971756542E+03  0.00000000000E+00 0.  1.
<mgrwt>
<rscale>  0 0.73105948E+03</rscale>
<asrwt>0</asrwt>
<pdfrwt beam="1">  1        1 0.26197763E+00 0.73105948E+03</pdfrwt>
<pdfrwt beam="2">  1       -1 0.74397300E-01 0.73105948E+03</pdfrwt>
<totfact> 0.90159948E+00</totfact>
</mgrwt>
</event>
<event>
12    1  0.8033771E-008  0.3810466E+03  0.7818608E-02  0.1050548E+00
         -2   -1    0    0    0  501 -0.00000000000E+00  0.00000000000E+00  0.25145943834E+03  0.25145943834E+03  0.00000000000E+00 0.  1.
          2   -1    0    0  501    0  0.00000000000E+00 -0.00000000000E+00 -0.72184799493E+03  0.72184799493E+03  0.00000000000E+00 0. -1.
         23    2    1    2    0    0  0.13195120931E+03  0.12485302408E+03 -0.28252942926E+02  0.20612256241E+03  0.93214176452E+02 0.  0.
    5000000    2    1    2    0    0 -0.13195120931E+03 -0.12485302408E+03 -0.44213561367E+03  0.76718487086E+03  0.60007443366E+03 0.  0.
         23    2    4    4    0    0 -0.23742126699E+03  0.14268818098E+03 -0.94564036229E+02  0.30664869159E+03  0.91445547164E+02 0.  0.
         23    2    4    4    0    0  0.10547005768E+03 -0.26754120506E+03 -0.34757157744E+03  0.46053617926E+03  0.92657117904E+02 0.  0.
          3    1    3    3  502    0  0.11287237642E+03  0.10190939110E+03 -0.59148816037E+02  0.16316948180E+03  0.00000000000E+00 0. -1.
         -3    1    3    3    0  502  0.19078832895E+02  0.22943632982E+02  0.30895873111E+02  0.42953080615E+02  0.00000000000E+00 0.  1.
         15    1    5    5    0    0 -0.90644857778E+02  0.25395017051E+02  0.44607674945E+01  0.94257378004E+02  0.17770000000E+01 0. -1.
        -15    1    5    5    0    0 -0.14677640921E+03  0.11729316393E+03 -0.99024803724E+02  0.21239131359E+03  0.17770000000E+01 0.  1.
          2    1    6    6  503    0  0.10932292300E+03 -0.18060812391E+03 -0.21016291342E+03  0.29789133269E+03  0.00000000000E+00 0. -1.
         -2    1    6    6    0  503 -0.38528653241E+01 -0.86933081144E+02 -0.13740866402E+03  0.16264484657E+03  0.00000000000E+00 0.  1.
<mgrwt>
<rscale>  0 0.38104664E+03</rscale>
<asrwt>0</asrwt>
<pdfrwt beam="1">  1        2 0.11105353E+00 0.38104664E+03</pdfrwt>
<pdfrwt beam="2">  1       -2 0.38686069E-01 0.38104664E+03</pdfrwt>
<totfact> 0.25625003E+02</totfact>
</mgrwt>
</event>
<event>
12    1  0.8033771E-008  0.1864894E+04  0.7818608E-02  0.8672531E-01
          2   -1    0    0  501    0  0.00000000000E+00  0.00000000000E+00  0.21287780622E+04  0.21287780622E+04  0.00000000000E+00 0. -1.
         -2   -1    0    0    0  501 -0.00000000000E+00 -0.00000000000E+00 -0.19703518524E+04  0.19703518524E+04  0.00000000000E+00 0.  1.
         23    2    1    2    0    0  0.81751110391E+03 -0.16458686329E+04  0.87511595717E+03  0.20374739328E+04  0.90907240813E+02 0.  0.
    5000000    2    1    2    0    0 -0.81751110391E+03  0.16458686329E+04 -0.71668974736E+03  0.20616559818E+04  0.59964425404E+03 0.  0.
         23    2    4    4    0    0 -0.30170560104E+03  0.21512033297E+03 -0.54337903703E+01  0.38032600804E+03  0.85529637885E+02 0.  0.
         23    2    4    4    0    0 -0.51580550286E+03  0.14307483000E+04 -0.71125595699E+03  0.16813299737E+04  0.88822461359E+02 0.  0.
          4    1    3    3  502    0  0.35734771037E+03 -0.72795780084E+03  0.43609602340E+03  0.92076038552E+03  0.00000000000E+00 0. -1.
         -4    1    3    3    0  502  0.46016339354E+03 -0.91791083208E+03  0.43901993378E+03  0.11167135473E+04  0.00000000000E+00 0.  1.
         15    1    5    5    0    0 -0.74706449799E+02  0.52802376625E+02  0.35748693239E+02  0.98235794984E+02  0.17770000000E+01 0. -1.
        -15    1    5    5    0    0 -0.22699915124E+03  0.16231795634E+03 -0.41182483609E+02  0.28209021305E+03  0.17770000000E+01 0.  1.
          1    1    6    6  503    0 -0.18942561852E+03  0.46618873168E+03 -0.19510494339E+03  0.53970356441E+03  0.00000000000E+00 0. -1.
         -1    1    6    6    0  503 -0.32637988435E+03  0.96455956827E+03 -0.51615101360E+03  0.11416264093E+04  0.00000000000E+00 0.  1.
<mgrwt>
<rscale>  0 0.18648941E+04</rscale>
<asrwt>0</asrwt>
<pdfrwt beam="1">  1        2 0.32750432E+00 0.18648941E+04</pdfrwt>
<pdfrwt beam="2">  1       -2 0.30313106E+00 0.18648941E+04</pdfrwt>
<totfact> 0.15510369E-01</totfact>
</mgrwt>
</event>
<event>
12    1  0.8033771E-008  0.1108837E+04  0.7818608E-02  0.9196621E-01
         -1   -1    0    0    0  501 -0.00000000000E+00  0.00000000000E+00  0.56895399581E+03  0.56895399581E+03  0.00000000000E+00 0.  1.
          1   -1    0    0  501    0  0.00000000000E+00 -0.00000000000E+00 -0.22560643031E+04  0.22560643031E+04  0.00000000000E+00 0. -1.
         23    2    1    2    0    0 -0.21903688028E+02  0.10504993767E+04 -0.83479767255E+03  0.13449869451E+04  0.89855530175E+02 0.  0.
    5000000    2    1    2    0    0  0.21903688028E+02 -0.10504993767E+04 -0.85231263471E+03  0.14800313538E+04  0.60002272360E+03 0.  0.
         23    2    4    4    0    0  0.12896225818E+03 -0.10494260068E+04 -0.68960819202E+03  0.12656114598E+04  0.91031317215E+02 0.  0.
         23    2    4    4    0    0 -0.10705857015E+03 -0.10733699043E+01 -0.16270444268E+03  0.21441989403E+03  0.89668644024E+02 0.  0.
          1    1    3    3  502    0  0.52783459105E+01  0.77086288305E+03 -0.56800981217E+03  0.95754508621E+03  0.00000000000E+00 0. -1.
         -1    1    3    3    0  502 -0.27182033939E+02  0.27963649368E+03 -0.26678786038E+03  0.38744185888E+03  0.00000000000E+00 0.  1.
         15    1    5    5    0    0  0.40574347166E+02 -0.41258899148E+03 -0.21927419100E+03  0.46899923466E+03  0.17770000000E+01 0.  1.
        -15    1    5    5    0    0  0.88387911014E+02 -0.63683701535E+03 -0.47033400102E+03  0.79661222510E+03  0.17770000000E+01 0. -1.
          3    1    6    6  503    0 -0.17866845529E+02 -0.63561734381E+01 -0.10800621497E+03  0.10965841318E+03  0.00000000000E+00 0. -1.
         -3    1    6    6    0  503 -0.89191724623E+02  0.52828035338E+01 -0.54698227716E+02  0.10476148085E+03  0.00000000000E+00 0.  1.
<mgrwt>
<rscale>  0 0.11088372E+04</rscale>
<asrwt>0</asrwt>
<pdfrwt beam="1">  1        1 0.34708682E+00 0.11088372E+04</pdfrwt>
<pdfrwt beam="2">  1       -1 0.87531383E-01 0.11088372E+04</pdfrwt>
<totfact> 0.25619219E+00</totfact>
</mgrwt>
</event>
<event>
12    1  0.8033771E-008  0.3732073E+03  0.7818608E-02  0.1053473E+00
          1   -1    0    0  501    0  0.00000000000E+00  0.00000000000E+00  0.14115597775E+04  0.14115597775E+04  0.00000000000E+00 0. -1.
         -1   -1    0    0    0  501 -0.00000000000E+00 -0.00000000000E+00 -0.17194640269E+03  0.17194640269E+03  0.00000000000E+00 0.  1.
         23    2    1    2    0    0  0.20563156638E+03 -0.16697850792E+03  0.16701712669E+03  0.32630933449E+03  0.91743653570E+02 0.  0.
    5000000    2    1    2    0    0 -0.20563156638E+03  0.16697850792E+03  0.10725962481E+04  0.12571968457E+04  0.59992919094E+03 0.  0.
         23    2    4    4    0    0 -0.63622949634E+02 -0.11371061299E+03  0.84108304883E+03  0.85542426117E+03  0.85743736386E+02 0.  0.
         23    2    4    4    0    0 -0.14200861674E+03  0.28068912091E+03  0.23151319925E+03  0.40177258450E+03  0.94180775086E+02 0.  0.
          4    1    3    3  502    0  0.14048070428E+03 -0.11888989458E+03  0.63070929586E+02  0.19454453852E+03  0.00000000000E+00 0. -1.
         -4    1    3    3    0  502  0.65150862094E+02 -0.48088613338E+02  0.10394619711E+03  0.13176479597E+03  0.00000000000E+00 0.  1.
         15    1    5    5    0    0 -0.44123250542E+02 -0.12555650942E+03  0.71793601435E+03  0.73016886864E+03  0.17770000000E+01 0. -1.
        -15    1    5    5    0    0 -0.19499699092E+02  0.11845896425E+02  0.12314703448E+03  0.12525539253E+03  0.17770000000E+01 0.  1.
          4    1    6    6  503    0 -0.39729984184E+02  0.17054751341E+03  0.15118300775E+03  0.23134655348E+03  0.00000000000E+00 0. -1.
         -4    1    6    6    0  503 -0.10227863256E+03  0.11014160751E+03  0.80330191501E+02  0.17042603102E+03  0.00000000000E+00 0.  1.
<mgrwt>
<rscale>  0 0.37320730E+03</rscale>
<asrwt>0</asrwt>
<pdfrwt beam="1">  1        1 0.21716303E+00 0.37320730E+03</pdfrwt>
<pdfrwt beam="2">  1       -1 0.26453294E-01 0.37320730E+03</pdfrwt>
<totfact> 0.10264324E+02</totfact>
</mgrwt>
</event>
<event>
12    1  0.8033771E-008  0.8979752E+03  0.7818608E-02  0.9428116E-01
         -2   -1    0    0    0  501 -0.00000000000E+00  0.00000000000E+00  0.40239600215E+03  0.40239600215E+03  0.00000000000E+00 0.  1.
          2   -1    0    0  501    0  0.00000000000E+00 -0.00000000000E+00 -0.21154707855E+04  0.21154707855E+04  0.00000000000E+00 0. -1.
         23    2    1    2    0    0  0.95899768942E+02 -0.79802366135E+03 -0.52781410699E+03  0.96516180771E+03  0.83132747871E+02 0.  0.
    5000000    2    1    2    0    0 -0.95899768942E+02  0.79802366135E+03 -0.11852606764E+04  0.15527049800E+04  0.60000946165E+03 0.  0.
         23    2    4    4    0    0 -0.32192106472E+03  0.33144279437E+03 -0.64308871368E+03  0.79709525835E+03  0.91160624025E+02 0.  0.
         23    2    4    4    0    0  0.22602129578E+03  0.46658086698E+03 -0.54217196270E+03  0.75560972161E+03  0.90621645740E+02 0.  0.
          3    1    3    3  502    0  0.78115848208E+02 -0.68150950421E+03 -0.48349788025E+03  0.83924221192E+03  0.00000000000E+00 0. -1.
         -3    1    3    3    0  502  0.17783920734E+02 -0.11651415714E+03 -0.44316226744E+02  0.12591959579E+03  0.00000000000E+00 0.  1.
         15    1    5    5    0    0 -0.25409229199E+03  0.21096330847E+03 -0.41508863557E+03  0.53044334615E+03  0.17770000000E+01 0.  1.
        -15    1    5    5    0    0 -0.67828772739E+02  0.12047948590E+03 -0.22800007811E+03  0.26665191220E+03  0.17770000000E+01 0. -1.
          1    1    6    6  503    0  0.10168447679E+03  0.29240449331E+03 -0.28233360512E+03  0.41898971957E+03  0.00000000000E+00 0. -1.
         -1    1    6    6    0  503  0.12433681899E+03  0.17417637367E+03 -0.25983835759E+03  0.33662000204E+03  0.00000000000E+00 0.  1.
<mgrwt>
<rscale>  0 0.89797521E+03</rscale>
<asrwt>0</asrwt>
<pdfrwt beam="1">  1        2 0.32545704E+00 0.89797521E+03</pdfrwt>
<pdfrwt beam="2">  1       -2 0.61907078E-01 0.89797521E+03</pdfrwt>
<totfact> 0.14197041E+01</totfact>
</mgrwt>
</event>
<event>
12    1  0.8033771E-008  0.5144480E+03  0.7818608E-02  0.1010075E+00
          2   -1    0    0  501    0  0.00000000000E+00  0.00000000000E+00  0.40322874827E+03  0.40322874827E+03  0.00000000000E+00 0.  1.
         -2   -1    0    0    0  501 -0.00000000000E+00 -0.00000000000E+00 -0.91503192553E+03  0.91503192553E+03  0.00000000000E+00 0. -1.
         23    2    1    2    0    0  0.41437266660E+03 -0.17384455329E+03 -0.26406714657E+03  0.52877899795E+03  0.89157923019E+02 0.  0.
    5000000    2    1    2    0    0 -0.41437266660E+03  0.17384455329E+03 -0.24773603069E+03  0.78948167585E+03  0.59998461653E+03 0.  0.
         23    2    4    4    0    0 -0.19108987231E+03 -0.78212214036E+02  0.14275146330E+03  0.26667704646E+03  0.90034310715E+02 0.  0.
         23    2    4    4    0    0 -0.22328279429E+03  0.25205676733E+03 -0.39048749399E+03  0.52280462940E+03  0.86350317761E+02 0.  0.
          3    1    3    3  502    0  0.23530875791E+03 -0.52699430862E+02 -0.15470500637E+03  0.28649795908E+03  0.00000000000E+00 0. -1.
         -3    1    3    3    0  502  0.17906390869E+03 -0.12114512243E+03 -0.10936214020E+03  0.24228103886E+03  0.00000000000E+00 0.  1.
         15    1    5    5    0    0 -0.42318883051E+02 -0.61583958275E+02  0.58299117833E+02  0.94791437634E+02  0.17770000000E+01 0. -1.
        -15    1    5    5    0    0 -0.14877098926E+03 -0.16628255760E+02  0.84452345471E+02  0.17188560882E+03  0.17770000000E+01 0.  1.
          3    1    6    6  503    0 -0.17364911660E+03  0.13495133569E+03 -0.26095176170E+03  0.34126485409E+03  0.00000000000E+00 0. -1.
         -3    1    6    6    0  503 -0.49633677684E+02  0.11710543164E+03 -0.12953573229E+03  0.18153977531E+03  0.00000000000E+00 0.  1.
<mgrwt>
<rscale>  0 0.51444795E+03</rscale>
<asrwt>0</asrwt>
<pdfrwt beam="1">  1        2 0.62035192E-01 0.51444795E+03</pdfrwt>
<pdfrwt beam="2">  1       -2 0.14077414E+00 0.51444795E+03</pdfrwt>
<totfact> 0.28846007E+01</totfact>
</mgrwt>
</event>
<event>
12    1  0.8033771E-008  0.1191330E+04  0.7818608E-02  0.9120479E-01
         -2   -1    0    0    0  501 -0.00000000000E+00  0.00000000000E+00  0.53964015188E+03  0.53964015188E+03  0.00000000000E+00 0.  1.
          2   -1    0    0  501    0  0.00000000000E+00 -0.00000000000E+00 -0.28367601855E+04  0.28367601855E+04  0.00000000000E+00 0. -1.
         23    2    1    2    0    0 -0.62403321104E+03  0.97451831010E+03 -0.92537094585E+03  0.14842893315E+04  0.87749911846E+02 0.  0.
    5000000    2    1    2    0    0  0.62403321104E+03 -0.97451831010E+03 -0.13717490878E+04  0.18921110059E+04  0.59940396520E+03 0.  0.
         23    2    4    4    0    0  0.39373498629E+03 -0.89048296550E+03 -0.12879924856E+04  0.16171240053E+04  0.90433700965E+02 0.  0.
         23    2    4    4    0    0  0.23029822475E+03 -0.84035344602E+02 -0.83756602172E+02  0.27498700056E+03  0.92214264653E+02 0.  0.
          1    1    3    3  502    0 -0.31384224323E+03  0.44814408007E+03 -0.48525284115E+03  0.73130047859E+03  0.00000000000E+00 0. -1.
         -1    1    3    3    0  502 -0.31019096781E+03  0.52637423003E+03 -0.44011810470E+03  0.75298885293E+03  0.00000000000E+00 0.  1.
         15    1    5    5    0    0  0.19587518108E+03 -0.33577146683E+03 -0.52646014479E+03  0.65442570723E+03  0.17770000000E+01 0.  1.
        -15    1    5    5    0    0  0.19785980520E+03 -0.55471149867E+03 -0.76153234083E+03  0.96269829808E+03  0.17770000000E+01 0. -1.
          3    1    6    6  503    0  0.17240572794E+02 -0.15237960023E+02  0.17848720490E+02  0.29120604373E+02  0.00000000000E+00 0. -1.
         -3    1    6    6    0  503  0.21305765196E+03 -0.68797384578E+02 -0.10160532266E+03  0.24586639619E+03  0.00000000000E+00 0.  1.
<mgrwt>
<rscale>  0 0.11913303E+04</rscale>
<asrwt>0</asrwt>
<pdfrwt beam="1">  1        2 0.43642464E+00 0.11913303E+04</pdfrwt>
<pdfrwt beam="2">  1       -2 0.83021563E-01 0.11913303E+04</pdfrwt>
<totfact> 0.27683067E+00</totfact>
</mgrwt>
</event>
<event>
12    1  0.8033771E-008  0.6159644E+03  0.7818608E-02  0.9872828E-01
          1   -1    0    0  501    0  0.00000000000E+00  0.00000000000E+00  0.18014538875E+04  0.18014538875E+04  0.00000000000E+00 0. -1.
         -1   -1    0    0    0  501 -0.00000000000E+00 -0.00000000000E+00 -0.33901552697E+03  0.33901552697E+03  0.00000000000E+00 0.  1.
         23    2    1    2    0    0  0.16054945052E+03  0.45335352717E+03  0.11498774118E+01  0.48918394226E+03  0.89409510062E+02 0.  0.
    5000000    2    1    2    0    0 -0.16054945052E+03 -0.45335352717E+03  0.14612884831E+04  0.16512854722E+04  0.60006177446E+03 0.  0.
         23    2    4    4    0    0  0.12899951749E+03 -0.42348936266E+03  0.10025781722E+04  0.11006029420E+04  0.10089464249E+03 0.  0.
         23    2    4    4    0    0 -0.28954896801E+03 -0.29864164512E+02  0.45871031093E+03  0.55068253017E+03  0.90031252796E+02 0.  0.
          1    1    3    3  502    0  0.44093242330E+02  0.20874018501E+03  0.34856374385E+02  0.21617503485E+03  0.00000000000E+00 0.  1.
         -1    1    3    3    0  502  0.11645620819E+03  0.24461334216E+03 -0.33706496973E+02  0.27300890741E+03  0.00000000000E+00 0. -1.
         15    1    5    5    0    0  0.10313996390E+03 -0.35917987356E+03  0.73975369878E+03  0.82878629713E+03  0.17770000000E+01 0.  1.
        -15    1    5    5    0    0  0.25859553589E+02 -0.64309489096E+02  0.26282447337E+03  0.27181664488E+03  0.17770000000E+01 0. -1.
          1    1    6    6  503    0 -0.45548210988E+02  0.28516301905E+02  0.76679196900E+02  0.93635026757E+02  0.00000000000E+00 0. -1.
         -1    1    6    6    0  503 -0.24400075702E+03 -0.58380466417E+02  0.38203111403E+03  0.45704750341E+03  0.00000000000E+00 0.  1.
<mgrwt>
<rscale>  0 0.61596439E+03</rscale>
<asrwt>0</asrwt>
<pdfrwt beam="1">  1        1 0.27714675E+00 0.61596439E+03</pdfrwt>
<pdfrwt beam="2">  1       -1 0.52156236E-01 0.61596439E+03</pdfrwt>
<totfact> 0.15987553E+01</totfact>
</mgrwt>
</event>
<event>
12    1  0.8033771E-008  0.8560509E+03  0.7818608E-02  0.9482251E-01
          1   -1    0    0  501    0  0.00000000000E+00  0.00000000000E+00  0.22257296610E+04  0.22257296610E+04  0.00000000000E+00 0. -1.
         -1   -1    0    0    0  501 -0.00000000000E+00 -0.00000000000E+00 -0.67067854640E+03  0.67067854640E+03  0.00000000000E+00 0.  1.
         23    2    1    2    0    0 -0.37815877065E+03  0.73661913825E+03  0.16713881465E+04  0.18674666312E+04  0.91002591520E+02 0.  0.
    5000000    2    1    2    0    0  0.37815877065E+03 -0.73661913825E+03 -0.11633703189E+03  0.10289415762E+04  0.59964543828E+03 0.  0.
         23    2    4    4    0    0  0.14400751620E+03 -0.98617794335E+02 -0.26003475832E+03  0.32836860426E+03  0.98712869716E+02 0.  0.
         23    2    4    4    0    0  0.23415125446E+03 -0.63800134391E+03  0.14369772643E+03  0.70057297197E+03  0.90999602634E+02 0.  0.
          4    1    3    3  502    0 -0.29537559030E+03  0.49624535393E+03  0.11119527576E+04  0.12529745112E+04  0.00000000000E+00 0. -1.
         -4    1    3    3    0  502 -0.82783180359E+02  0.24037378432E+03  0.55943538895E+03  0.61449212001E+03  0.00000000000E+00 0.  1.
         15    1    5    5    0    0  0.15397383249E+03 -0.68266074225E+02 -0.22196263580E+03  0.27863734029E+03  0.17770000000E+01 0. -1.
        -15    1    5    5    0    0 -0.99663162928E+01 -0.30351720110E+02 -0.38072122520E+02  0.49731263973E+02  0.17770000000E+01 0.  1.
          4    1    6    6  503    0  0.18719908016E+03 -0.48406686518E+03  0.70487504974E+02  0.52376780536E+03  0.00000000000E+00 0. -1.
         -4    1    6    6    0  503  0.46952174293E+02 -0.15393447874E+03  0.73210221458E+02  0.17680516661E+03  0.00000000000E+00 0.  1.
<mgrwt>
<rscale>  0 0.85605089E+03</rscale>
<asrwt>0</asrwt>
<pdfrwt beam="1">  1        1 0.34241994E+00 0.85605089E+03</pdfrwt>
<pdfrwt beam="2">  1       -1 0.10318132E+00 0.85605089E+03</pdfrwt>
<totfact> 0.19254118E+00</totfact>
</mgrwt>
</event>
<event>
12    1  0.8033771E-008  0.8531110E+03  0.7818608E-02  0.9486171E-01
         -2   -1    0    0    0  501 -0.00000000000E+00  0.00000000000E+00  0.11604891988E+04  0.11604891988E+04  0.00000000000E+00 0.  1.
          2   -1    0    0  501    0  0.00000000000E+00 -0.00000000000E+00 -0.76664003628E+03  0.76664003628E+03  0.00000000000E+00 0. -1.
         23    2    1    2    0    0 -0.66613304331E+03 -0.50203459290E+03  0.31336361386E+03  0.89653551323E+03  0.99031349224E+02 0.  0.
    5000000    2    1    2    0    0  0.66613304331E+03  0.50203459290E+03  0.80485548655E+02  0.10305937219E+04  0.59989460085E+03 0.  0.
         23    2    4    4    0    0  0.52274079056E+03  0.43681082599E+03 -0.18192477943E+03  0.71094441918E+03  0.91014888763E+02 0.  0.
         23    2    4    4    0    0  0.14339225275E+03  0.65223766902E+02  0.26241032808E+03  0.31964930267E+03  0.92200967975E+02 0.  0.
          4    1    3    3  502    0 -0.36115351213E+03 -0.22241523590E+03  0.12710234063E+03  0.44278143759E+03  0.00000000000E+00 0. -1.
         -4    1    3    3    0  502 -0.30497953118E+03 -0.27961935700E+03  0.18626127324E+03  0.45375407564E+03  0.00000000000E+00 0.  1.
         15    1    5    5    0    0  0.46282729368E+03  0.34618108912E+03 -0.14179521140E+03  0.59511300603E+03  0.17770000000E+01 0.  1.
        -15    1    5    5    0    0  0.59913496877E+02  0.90629736871E+02 -0.40129568023E+02  0.11583141315E+03  0.17770000000E+01 0. -1.
          3    1    6    6  503    0  0.62750551411E+02 -0.18515952389E+02  0.80066769271E+02  0.10339806447E+03  0.00000000000E+00 0. -1.
         -3    1    6    6    0  503  0.80641701340E+02  0.83739719291E+02  0.18234355881E+03  0.21625123820E+03  0.00000000000E+00 0.  1.
<mgrwt>
<rscale>  0 0.85311102E+03</rscale>
<asrwt>0</asrwt>
<pdfrwt beam="1">  1        2 0.11794462E+00 0.85311102E+03</pdfrwt>
<pdfrwt beam="2">  1       -2 0.17853680E+00 0.85311102E+03</pdfrwt>
<totfact> 0.68088681E+00</totfact>
</mgrwt>
</event>
<event>
12    1  0.8033771E-008  0.1401788E+04  0.7818608E-02  0.8952525E-01
          1   -1    0    0  501    0  0.00000000000E+00  0.00000000000E+00  0.33992975623E+04  0.33992975623E+04  0.00000000000E+00 0. -1.
         -1   -1    0    0    0  501 -0.00000000000E+00 -0.00000000000E+00 -0.68310041447E+03  0.68310041447E+03  0.00000000000E+00 0.  1.
         23    2    1    2    0    0  0.12653344047E+04 -0.55454343405E+03  0.66001524690E+03  0.15336519223E+04  0.88761007948E+02 0.  0.
    5000000    2    1    2    0    0 -0.12653344047E+04  0.55454343405E+03  0.20561819009E+04  0.25487460545E+04  0.59969397587E+03 0.  0.
         23    2    4    4    0    0 -0.12047605793E+04  0.48320405667E+03  0.20284398769E+04  0.24100328302E+04  0.93571870035E+02 0.  0.
         23    2    4    4    0    0 -0.60573825361E+02  0.71339377372E+02  0.27742024041E+02  0.13871322425E+03  0.98555789281E+02 0.  0.
          3    1    3    3  502    0  0.94864387403E+03 -0.45684220477E+03  0.50643031752E+03  0.11683756529E+04  0.00000000000E+00 0. -1.
         -3    1    3    3    0  502  0.31669053068E+03 -0.97701229277E+02  0.15358492939E+03  0.36527626936E+03  0.00000000000E+00 0.  1.
         15    1    5    5    0    0 -0.10375167095E+03  0.42409413888E+02  0.22829903192E+03  0.25433555260E+03  0.17770000000E+01 0. -1.
        -15    1    5    5    0    0 -0.11010089084E+04  0.44079464279E+03  0.18001408450E+04  0.21556972776E+04  0.17770000000E+01 0.  1.
          3    1    6    6  503    0  0.13753369257E+02 -0.49930675472E+01 -0.17631549737E+02  0.22911949624E+02  0.00000000000E+00 0. -1.
         -3    1    6    6    0  503 -0.74327194618E+02  0.76332444920E+02  0.45373573778E+02  0.11580127462E+03  0.00000000000E+00 0.  1.
<mgrwt>
<rscale>  0 0.14017878E+04</rscale>
<asrwt>0</asrwt>
<pdfrwt beam="1">  1        1 0.52296885E+00 0.14017878E+04</pdfrwt>
<pdfrwt beam="2">  1       -1 0.10509237E+00 0.14017878E+04</pdfrwt>
<totfact> 0.24777138E-01</totfact>
</mgrwt>
</event>
<event>
12    1  0.8033771E-008  0.7694401E+03  0.7818608E-02  0.9605336E-01
         -1   -1    0    0    0  501 -0.00000000000E+00  0.00000000000E+00  0.81494339791E+03  0.81494339791E+03  0.00000000000E+00 0.  1.
          1   -1    0    0  501    0  0.00000000000E+00 -0.00000000000E+00 -0.11314132444E+04  0.11314132444E+04  0.00000000000E+00 0. -1.
         23    2    1    2    0    0 -0.21360051562E+03  0.66072450322E+03  0.37732545953E+03  0.79613192897E+03  0.96278224364E+02 0.  0.
    5000000    2    1    2    0    0  0.21360051562E+03 -0.66072450322E+03 -0.69379530604E+03  0.11502247134E+04  0.59956894111E+03 0.  0.
         23    2    4    4    0    0 -0.10625006800E+03 -0.38803041738E+02 -0.31987717114E+03  0.35191922199E+03  0.93439719569E+02 0.  0.
         23    2    4    4    0    0  0.31985058362E+03 -0.62192146148E+03 -0.37391813490E+03  0.79830549138E+03  0.91576120621E+02 0.  0.
          4    1    3    3  502    0 -0.10370178005E+03  0.18436643519E+03  0.12964866795E+03  0.24810042062E+03  0.00000000000E+00 0. -1.
         -4    1    3    3    0  502 -0.10989873557E+03  0.47635806803E+03  0.24767679158E+03  0.54803150835E+03  0.00000000000E+00 0.  1.
         15    1    5    5    0    0 -0.76909338663E+02  0.10382500357E+02 -0.11187547899E+03  0.13616946506E+03  0.17770000000E+01 0.  1.
        -15    1    5    5    0    0 -0.29340729340E+02 -0.49185542096E+02 -0.20800169215E+03  0.21574975693E+03  0.17770000000E+01 0. -1.
          2    1    6    6  503    0  0.32113277514E+03 -0.62360617381E+03 -0.37553967962E+03  0.79563871842E+03  0.00000000000E+00 0. -1.
         -2    1    6    6    0  503 -0.12821915239E+01  0.16847123278E+01  0.16215447195E+01  0.26667729579E+01  0.00000000000E+00 0.  1.
<mgrwt>
<rscale>  0 0.76944008E+03</rscale>
<asrwt>0</asrwt>
<pdfrwt beam="1">  1        1 0.17406358E+00 0.76944008E+03</pdfrwt>
<pdfrwt beam="2">  1       -1 0.12537591E+00 0.76944008E+03</pdfrwt>
<totfact> 0.68893095E+00</totfact>
</mgrwt>
</event>
<event>
12    1  0.9159664E-008  0.1406649E+04  0.7818608E-02  0.8949019E-01
          1   -1    0    0  501    0  0.00000000000E+00  0.00000000000E+00  0.12659535841E+04  0.12659535841E+04  0.00000000000E+00 0. -1.
         -1   -1    0    0    0  501 -0.00000000000E+00 -0.00000000000E+00 -0.18116900780E+04  0.18116900780E+04  0.00000000000E+00 0.  1.
         23    2    1    2    0    0 -0.78147013121E+03 -0.11195857046E+04 -0.76890454979E+03  0.15696778508E+04  0.92231408338E+02 0.  0.
    5000000    2    1    2    0    0  0.78147013121E+03  0.11195857046E+04  0.22316805590E+03  0.15079658113E+04  0.59999099240E+03 0.  0.
         23    2    4    4    0    0  0.30615899608E+02  0.37685204040E+03 -0.95700813502E+02  0.40045344947E+03  0.90826900312E+02 0.  0.
         23    2    4    4    0    0  0.75085423161E+03  0.74273366415E+03  0.31886886940E+03  0.11075123618E+04  0.97318562896E+02 0.  0.
          4    1    3    3  502    0 -0.50586769352E+03 -0.78766271985E+03 -0.49950432190E+03  0.10610463002E+04  0.00000000000E+00 0. -1.
         -4    1    3    3    0  502 -0.27560243769E+03 -0.33192298470E+03 -0.26940022789E+03  0.50863155056E+03  0.00000000000E+00 0.  1.
         15    1    5    5    0    0  0.58354508530E+02  0.24634452027E+03 -0.42047695051E+02  0.25663600238E+03  0.17770000000E+01 0. -1.
        -15    1    5    5    0    0 -0.27738608922E+02  0.13050752013E+03 -0.53653118451E+02  0.14381744708E+03  0.17770000000E+01 0.  1.
          3    1    6    6  503    0  0.16665778449E+03  0.21379008069E+03  0.56426358614E+02  0.27688436157E+03  0.00000000000E+00 0. -1.
         -3    1    6    6    0  503  0.58419644711E+03  0.52894358346E+03  0.26244251079E+03  0.83062800023E+03  0.00000000000E+00 0.  1.
<mgrwt>
<rscale>  0 0.14066493E+04</rscale>
<asrwt>0</asrwt>
<pdfrwt beam="1">  1        1 0.19476209E+00 0.14066493E+04</pdfrwt>
<pdfrwt beam="2">  1       -1 0.27872155E+00 0.14066493E+04</pdfrwt>
<totfact> 0.41574518E-01</totfact>
</mgrwt>
</event>
<event>
12    1  0.8033771E-008  0.3980686E+03  0.7818608E-02  0.1044450E+00
          1   -1    0    0  501    0  0.00000000000E+00  0.00000000000E+00  0.10531663892E+04  0.10531663892E+04  0.00000000000E+00 0. -1.
         -1   -1    0    0    0  501 -0.00000000000E+00 -0.00000000000E+00 -0.17509713249E+03  0.17509713249E+03  0.00000000000E+00 0.  1.
         23    2    1    2    0    0 -0.50957602483E+02 -0.17020792089E+03  0.37684628711E+03  0.42641317882E+03  0.90816636021E+02 0.  0.
    5000000    2    1    2    0    0  0.50957602483E+02  0.17020792089E+03  0.50122296958E+03  0.80185034285E+03  0.60014339412E+03 0.  0.
         23    2    4    4    0    0 -0.16740211268E+03 -0.13919774123E+03  0.20697358215E+03  0.31405840167E+03  0.91624982723E+02 0.  0.
         23    2    4    4    0    0  0.21835971516E+03  0.30940566212E+03  0.29424938743E+03  0.48779194118E+03  0.89137236444E+02 0.  0.
          3    1    3    3  502    0 -0.56009291243E+02 -0.44018868626E+02  0.16597498188E+03  0.18061671049E+03  0.00000000000E+00 0. -1.
         -3    1    3    3    0  502  0.50516887598E+01 -0.12618905227E+03  0.21087130523E+03  0.24579646833E+03  0.00000000000E+00 0.  1.
         15    1    5    5    0    0 -0.59356381517E+02 -0.66306021683E+02  0.14401840605E+03  0.16930483616E+03  0.17770000000E+01 0.  1.
        -15    1    5    5    0    0 -0.10804573116E+03 -0.72891719543E+02  0.62955176106E+02  0.14475356551E+03  0.17770000000E+01 0. -1.
          2    1    6    6  503    0  0.46029822564E+02  0.80494732781E+02  0.28525938806E+02  0.97014822350E+02  0.00000000000E+00 0. -1.
         -2    1    6    6    0  503  0.17232989260E+03  0.22891092934E+03  0.26572344862E+03  0.39077711883E+03  0.00000000000E+00 0.  1.
<mgrwt>
<rscale>  0 0.39806864E+03</rscale>
<asrwt>0</asrwt>
<pdfrwt beam="1">  1        1 0.16202559E+00 0.39806864E+03</pdfrwt>
<pdfrwt beam="2">  1       -1 0.26938021E-01 0.39806864E+03</pdfrwt>
<totfact> 0.17759330E+02</totfact>
</mgrwt>
</event>
<event>
12    1  0.8033771E-008  0.1217411E+04  0.7818608E-02  0.9097752E-01
          2   -1    0    0  501    0  0.00000000000E+00  0.00000000000E+00  0.37205130853E+04  0.37205130853E+04  0.00000000000E+00 0. -1.
         -2   -1    0    0    0  501 -0.00000000000E+00 -0.00000000000E+00 -0.45034345447E+03  0.45034345447E+03  0.00000000000E+00 0.  1.
         23    2    1    2    0    0 -0.11108532568E+04 -0.36519115975E+03  0.96979691081E+03  0.15214679965E+04  0.83661669222E+02 0.  0.
    5000000    2    1    2    0    0  0.11108532568E+04  0.36519115975E+03  0.23003727200E+04  0.26493885433E+04  0.60015453089E+03 0.  0.
         23    2    4    4    0    0  0.41283406894E+03  0.37708898429E+03  0.13725348548E+04  0.14847438861E+04  0.89355521083E+02 0.  0.
         23    2    4    4    0    0  0.69801918785E+03 -0.11897824534E+02  0.92783786527E+03  0.11646446572E+04  0.90231527252E+02 0.  0.
          2    1    3    3  502    0 -0.27569784939E+03 -0.10377298821E+03  0.28961041833E+03  0.41310087345E+03  0.00000000000E+00 0. -1.
         -2    1    3    3    0  502 -0.83515540740E+03 -0.26141817154E+03  0.68018649248E+03  0.11083671231E+04  0.00000000000E+00 0.  1.
         15    1    5    5    0    0  0.32309416131E+03  0.26594604841E+03  0.11024862410E+04  0.11792354332E+04  0.17770000000E+01 0. -1.
        -15    1    5    5    0    0  0.89739907630E+02  0.11114293588E+03  0.27004861381E+03  0.30550845286E+03  0.17770000000E+01 0.  1.
          2    1    6    6  503    0  0.55265140763E+03 -0.45725796613E+02  0.74032482572E+03  0.92498393197E+03  0.00000000000E+00 0. -1.
         -2    1    6    6    0  503  0.14536778022E+03  0.33827972080E+02  0.18751303956E+03  0.23966072524E+03  0.00000000000E+00 0.  1.
<mgrwt>
<rscale>  0 0.12174106E+04</rscale>
<asrwt>0</asrwt>
<pdfrwt beam="1">  1        2 0.57238661E+00 0.12174106E+04</pdfrwt>
<pdfrwt beam="2">  1       -2 0.69283611E-01 0.12174106E+04</pdfrwt>
<totfact> 0.10800438E+00</totfact>
</mgrwt>
</event>
<event>
12    1  0.8033771E-008  0.8436924E+03  0.7818608E-02  0.9498842E-01
          1   -1    0    0  501    0  0.00000000000E+00  0.00000000000E+00  0.19219649606E+04  0.19219649606E+04  0.00000000000E+00 0. -1.
         -1   -1    0    0    0  501 -0.00000000000E+00 -0.00000000000E+00 -0.54792173239E+03  0.54792173239E+03  0.00000000000E+00 0.  1.
         23    2    1    2    0    0 -0.82224578270E+03 -0.13338467580E+03  0.11546486920E+03  0.84556719447E+03  0.88159772175E+02 0.  0.
    5000000    2    1    2    0    0  0.82224578270E+03  0.13338467580E+03  0.12585783590E+04  0.16243194986E+04  0.60042880397E+03 0.  0.
         23    2    4    4    0    0  0.54347117033E+02 -0.44623612212E+01  0.56894830414E+03  0.57893620476E+03  0.92148980496E+02 0.  0.
         23    2    4    4    0    0  0.76789866567E+03  0.13784703702E+03  0.68963005490E+03  0.10453832938E+04  0.92555129301E+02 0.  0.
          3    1    3    3  502    0 -0.54231583980E+03 -0.85021431237E+02  0.11799737386E+03  0.56147884564E+03  0.00000000000E+00 0. -1.
         -3    1    3    3    0  502 -0.27992994291E+03 -0.48363244565E+02 -0.25325046547E+01  0.28408834883E+03  0.00000000000E+00 0.  1.
         15    1    5    5    0    0 -0.62331778446E+00 -0.16179426918E+02  0.41018397280E+03  0.41050726139E+03  0.17770000000E+01 0.  1.
        -15    1    5    5    0    0  0.54970434818E+02  0.11717065696E+02  0.15876433134E+03  0.16842894338E+03  0.17770000000E+01 0. -1.
          3    1    6    6  503    0  0.53317685876E+03  0.71661807084E+02  0.52087149545E+03  0.74881245455E+03  0.00000000000E+00 0. -1.
         -3    1    6    6    0  503  0.23472180691E+03  0.66185229940E+02  0.16875855944E+03  0.29657083924E+03  0.00000000000E+00 0.  1.
<mgrwt>
<rscale>  0 0.84369243E+03</rscale>
<asrwt>0</asrwt>
<pdfrwt beam="1">  1        1 0.29568691E+00 0.84369243E+03</pdfrwt>
<pdfrwt beam="2">  1       -1 0.84295652E-01 0.84369243E+03</pdfrwt>
<totfact> 0.48463754E+00</totfact>
</mgrwt>
</event>
<event>
12    1  0.8033771E-008  0.1139247E+04  0.7818608E-02  0.9167761E-01
         -2   -1    0    0    0  501 -0.00000000000E+00  0.00000000000E+00  0.16510373301E+04  0.16510373301E+04  0.00000000000E+00 0. -1.
          2   -1    0    0  501    0  0.00000000000E+00 -0.00000000000E+00 -0.89320234470E+03  0.89320234470E+03  0.00000000000E+00 0.  1.
         23    2    1    2    0    0 -0.78431911237E+03  0.81504406206E+03  0.22134506343E+03  0.11559991784E+04  0.88809741822E+02 0.  0.
    5000000    2    1    2    0    0  0.78431911237E+03 -0.81504406206E+03  0.53648992194E+03  0.13882404964E+04  0.59994745296E+03 0.  0.
         23    2    4    4    0    0  0.32464984103E+03 -0.44607687349E+03 -0.38188026480E+02  0.56045374362E+03  0.90928417069E+02 0.  0.
         23    2    4    4    0    0  0.45966927134E+03 -0.36896718857E+03  0.57467794842E+03  0.82778675275E+03  0.86853545571E+02 0.  0.
          4    1    3    3  502    0 -0.35980712014E+03  0.37739786713E+03  0.57050908621E+02  0.52454277232E+03  0.00000000000E+00 0. -1.
         -4    1    3    3    0  502 -0.42451199223E+03  0.43764619492E+03  0.16429415481E+03  0.63145640608E+03  0.00000000000E+00 0.  1.
         15    1    5    5    0    0  0.13772952172E+03 -0.14759272392E+03 -0.50320769244E+02  0.20805857554E+03  0.17770000000E+01 0.  1.
        -15    1    5    5    0    0  0.18692031931E+03 -0.29848414957E+03  0.12132742765E+02  0.35239516808E+03  0.17770000000E+01 0. -1.
          1    1    6    6  503    0  0.21280103157E+03 -0.12811229939E+03  0.27845144342E+03  0.37313837465E+03  0.00000000000E+00 0. -1.
         -1    1    6    6    0  503  0.24686823977E+03 -0.24085488918E+03  0.29622650500E+03  0.45464837811E+03  0.00000000000E+00 0.  1.
<mgrwt>
<rscale>  0 0.11392475E+04</rscale>
<asrwt>0</asrwt>
<pdfrwt beam="1">  1        2 0.13741575E+00 0.11392475E+04</pdfrwt>
<pdfrwt beam="2">  1       -2 0.25400574E+00 0.11392475E+04</pdfrwt>
<totfact> 0.17667472E+00</totfact>
</mgrwt>
</event>
<event>
12    1  0.8033771E-008  0.5674398E+03  0.7818608E-02  0.9975360E-01
          1   -1    0    0  501    0  0.00000000000E+00  0.00000000000E+00  0.17168804130E+04  0.17168804130E+04  0.00000000000E+00 0. -1.
         -1   -1    0    0    0  501 -0.00000000000E+00 -0.00000000000E+00 -0.51352093565E+03  0.51352093565E+03  0.00000000000E+00 0.  1.
         23    2    1    2    0    0  0.31017424618E+03 -0.31365511822E+03 -0.30805819738E+03  0.54545256546E+03  0.89616137051E+02 0.  0.
    5000000    2    1    2    0    0 -0.31017424618E+03  0.31365511822E+03  0.15114176748E+04  0.16849487832E+04  0.60006784474E+03 0.  0.
         23    2    4    4    0    0 -0.26050868657E+03  0.46088672515E+03  0.13027881409E+04  0.14092374974E+04  0.91717144618E+02 0.  0.
         23    2    4    4    0    0 -0.49665559609E+02 -0.14723160693E+03  0.20862953381E+03  0.27571128584E+03  0.91359820877E+02 0.  0.
          1    1    3    3  502    0  0.20302570674E+03 -0.23742777997E+03 -0.17363808974E+03  0.35740953331E+03  0.00000000000E+00 0. -1.
         -1    1    3    3    0  502  0.10714853944E+03 -0.76227338252E+02 -0.13442010764E+03  0.18804303215E+03  0.00000000000E+00 0.  1.
         15    1    5    5    0    0 -0.10966915571E+03  0.27530696951E+03  0.66329591011E+03  0.72648872894E+03  0.17770000000E+01 0.  1.
        -15    1    5    5    0    0 -0.15083953086E+03  0.18557975564E+03  0.63949223084E+03  0.68274876844E+03  0.17770000000E+01 0. -1.
          2    1    6    6  503    0 -0.26830718851E+02 -0.70996489607E+02  0.17220786203E+03  0.18819122391E+03  0.00000000000E+00 0. -1.
         -2    1    6    6    0  503 -0.22834840758E+02 -0.76235117320E+02  0.36421671782E+02  0.87520061933E+02  0.00000000000E+00 0.  1.
<mgrwt>
<rscale>  0 0.56743980E+03</rscale>
<asrwt>0</asrwt>
<pdfrwt beam="1">  1        1 0.26413544E+00 0.56743980E+03</pdfrwt>
<pdfrwt beam="2">  1       -1 0.79003222E-01 0.56743980E+03</pdfrwt>
<totfact> 0.80204619E+00</totfact>
</mgrwt>
</event>
<event>
12    1  0.8033771E-008  0.1471317E+04  0.7818608E-02  0.8903754E-01
          2   -1    0    0  501    0  0.00000000000E+00  0.00000000000E+00  0.27242889910E+04  0.27242889910E+04  0.00000000000E+00 0. -1.
         -2   -1    0    0    0  501 -0.00000000000E+00 -0.00000000000E+00 -0.96753470250E+03  0.96753470250E+03  0.00000000000E+00 0.  1.
         23    2    1    2    0    0 -0.76129195607E+03  0.11924304620E+04  0.16148408636E+04  0.21488672179E+04  0.91997044987E+02 0.  0.
    5000000    2    1    2    0    0  0.76129195607E+03 -0.11924304620E+04  0.14191342487E+03  0.15429564756E+04  0.59926573087E+03 0.  0.
         23    2    4    4    0    0  0.47504386366E+03 -0.25979942978E+03  0.12464118537E+03  0.56302059525E+03  0.91073319216E+02 0.  0.
         23    2    4    4    0    0  0.28624809241E+03 -0.93263103226E+03  0.17272239499E+02  0.97993588033E+03  0.90760049344E+02 0.  0.
          3    1    3    3  502    0 -0.13913976311E+03  0.25737853471E+03  0.38151231818E+03  0.48078605713E+03  0.00000000000E+00 0. -1.
         -3    1    3    3    0  502 -0.62215219296E+03  0.93505192732E+03  0.12333285454E+04  0.16680811608E+04  0.00000000000E+00 0.  1.
         15    1    5    5    0    0  0.46356959438E+02  0.77008913994E+00  0.20153831189E+02  0.50585525264E+02  0.17770000000E+01 0. -1.
        -15    1    5    5    0    0  0.42868690422E+03 -0.26056951892E+03  0.10448735418E+03  0.51243506998E+03  0.17770000000E+01 0.  1.
          1    1    6    6  503    0  0.10181510095E+03 -0.46847720472E+03  0.29639889584E+02  0.48032877196E+03  0.00000000000E+00 0. -1.
         -1    1    6    6    0  503  0.18443299146E+03 -0.46415382754E+03 -0.12367650086E+02  0.49960710836E+03  0.00000000000E+00 0.  1.
<mgrwt>
<rscale>  0 0.14713168E+04</rscale>
<asrwt>0</asrwt>
<pdfrwt beam="1">  1        2 0.41912138E+00 0.14713168E+04</pdfrwt>
<pdfrwt beam="2">  1       -2 0.14885149E+00 0.14713168E+04</pdfrwt>
<totfact> 0.74527830E-01</totfact>
</mgrwt>
</event>
<event>
12    1  0.8033771E-008  0.7128069E+03  0.7818608E-02  0.9695578E-01
          2   -1    0    0  501    0  0.00000000000E+00  0.00000000000E+00  0.19972235424E+04  0.19972235424E+04  0.00000000000E+00 0. -1.
         -2   -1    0    0    0  501 -0.00000000000E+00 -0.00000000000E+00 -0.33986717858E+03  0.33986717858E+03  0.00000000000E+00 0.  1.
         23    2    1    2    0    0 -0.68676781189E+03 -0.10454195544E+03  0.93770908695E+03  0.11707423543E+04  0.93596370706E+02 0.  0.
    5000000    2    1    2    0    0  0.68676781189E+03  0.10454195544E+03  0.71964727689E+03  0.11663483666E+04  0.59991437835E+03 0.  0.
         23    2    4    4    0    0  0.15784930572E+03 -0.58489096175E+02 -0.64413362804E+02  0.20176980188E+03  0.90689547107E+02 0.  0.
         23    2    4    4    0    0  0.52891850617E+03  0.16303105162E+03  0.78406063969E+03  0.96457856477E+03  0.96575415798E+02 0.  0.
          1    1    3    3  502    0 -0.48801793580E+03 -0.53921667840E+02  0.59583892926E+03  0.77207064543E+03  0.00000000000E+00 0. -1.
         -1    1    3    3    0  502 -0.19874987609E+03 -0.50620287601E+02  0.34187015769E+03  0.39867170890E+03  0.00000000000E+00 0.  1.
         15    1    5    5    0    0  0.13699168782E+03 -0.47755466896E+02 -0.13537008210E+02  0.14571793119E+03  0.17770000000E+01 0. -1.
        -15    1    5    5    0    0  0.20857617904E+02 -0.10733629278E+02 -0.50876354594E+02  0.56051870690E+02  0.17770000000E+01 0.  1.
          4    1    6    6  503    0  0.38494739138E+03  0.75056632272E+02  0.57299777761E+03  0.69436621845E+03  0.00000000000E+00 0. -1.
         -4    1    6    6    0  503  0.14397111479E+03  0.87974419344E+02  0.21106286208E+03  0.27021234632E+03  0.00000000000E+00 0.  1.
<mgrwt>
<rscale>  0 0.71280687E+03</rscale>
<asrwt>0</asrwt>
<pdfrwt beam="1">  1        2 0.30726515E+00 0.71280687E+03</pdfrwt>
<pdfrwt beam="2">  1       -2 0.52287259E-01 0.71280687E+03</pdfrwt>
<totfact> 0.24043662E+01</totfact>
</mgrwt>
</event>
<event>
12    1  0.8033771E-008  0.1915897E+04  0.7818608E-02  0.8646984E-01
         -1   -1    0    0    0  501 -0.00000000000E+00  0.00000000000E+00  0.18265821534E+04  0.18265821534E+04  0.00000000000E+00 0.  1.
          1   -1    0    0  501    0  0.00000000000E+00 -0.00000000000E+00 -0.22697711105E+04  0.22697711105E+04  0.00000000000E+00 0. -1.
         23    2    1    2    0    0 -0.78548841781E+03  0.16994376824E+04 -0.89811917724E+03  0.20784354920E+04  0.90529259728E+02 0.  0.
    5000000    2    1    2    0    0  0.78548841781E+03 -0.16994376824E+04  0.45493022012E+03  0.20179177719E+04  0.59995844687E+03 0.  0.
         23    2    4    4    0    0  0.46931012378E+03 -0.15154051405E+04  0.37972715978E+03  0.16334818065E+04  0.85821699650E+02 0.  0.
         23    2    4    4    0    0  0.31617829403E+03 -0.18403254189E+03  0.75203060344E+02  0.38443596536E+03  0.91097865458E+02 0.  0.
          4    1    3    3  502    0 -0.72321325777E+03  0.15943368026E+04 -0.81826588102E+03  0.19324870784E+04  0.00000000000E+00 0. -1.
         -4    1    3    3    0  502 -0.62275160039E+02  0.10510087988E+03 -0.79853296225E+02  0.14594841358E+03  0.00000000000E+00 0.  1.
         15    1    5    5    0    0  0.19902191528E+03 -0.59097958692E+03  0.18942940349E+03  0.65173096563E+03  0.17770000000E+01 0. -1.
        -15    1    5    5    0    0  0.27028820850E+03 -0.92442555362E+03  0.19029775629E+03  0.98175084090E+03  0.17770000000E+01 0.  1.
          4    1    6    6  503    0  0.23285144380E+03 -0.16854633554E+03  0.83352636242E+02  0.29929136986E+03  0.00000000000E+00 0. -1.
         -4    1    6    6    0  503  0.83326850228E+02 -0.15486206346E+02 -0.81495758980E+01  0.85144595502E+02  0.00000000000E+00 0.  1.
<mgrwt>
<rscale>  0 0.19158969E+04</rscale>
<asrwt>0</asrwt>
<pdfrwt beam="1">  1        1 0.34919555E+00 0.19158969E+04</pdfrwt>
<pdfrwt beam="2">  1       -1 0.28101264E+00 0.19158969E+04</pdfrwt>
<totfact> 0.76881738E-02</totfact>
</mgrwt>
</event>
<event>
12    1  0.8033771E-008  0.9020650E+03  0.7818608E-02  0.9423004E-01
          2   -1    0    0  501    0  0.00000000000E+00  0.00000000000E+00  0.92078761624E+03  0.92078761624E+03  0.00000000000E+00 0. -1.
         -2   -1    0    0    0  501 -0.00000000000E+00 -0.00000000000E+00 -0.15562297896E+04  0.15562297896E+04  0.00000000000E+00 0.  1.
         23    2    1    2    0    0 -0.18018147902E+03 -0.86466729372E+03  0.41436800632E+03  0.97960928069E+03  0.88422869985E+02 0.  0.
    5000000    2    1    2    0    0  0.18018147902E+03  0.86466729372E+03 -0.10498101797E+04  0.14974081252E+04  0.60001232131E+03 0.  0.
         23    2    4    4    0    0  0.84400696045E+02  0.77343271084E+02  0.34973106841E+02  0.15034036114E+03  0.90959589440E+02 0.  0.
         23    2    4    4    0    0  0.95780782974E+02  0.78732402264E+03 -0.10847832865E+04  0.13470677640E+04  0.93721433652E+02 0.  0.
          4    1    3    3  502    0 -0.62986017102E+02 -0.49735804722E+03  0.21392129394E+03  0.54506383616E+03  0.00000000000E+00 0. -1.
         -4    1    3    3    0  502 -0.11719546192E+03 -0.36730924650E+03  0.20044671238E+03  0.43454544453E+03  0.00000000000E+00 0.  1.
         15    1    5    5    0    0  0.23729669994E+02  0.52163172360E+02 -0.23895882621E+02  0.62114931570E+02  0.17770000000E+01 0. -1.
        -15    1    5    5    0    0  0.60671026051E+02  0.25180098724E+02  0.58868989462E+02  0.88225429571E+02  0.17770000000E+01 0.  1.
          1    1    6    6  503    0  0.48832917553E+02  0.24321953076E+03 -0.40695220145E+03  0.47660307200E+03  0.00000000000E+00 0. -1.
         -1    1    6    6    0  503  0.46947865421E+02  0.54410449188E+03 -0.67783108510E+03  0.87046469203E+03  0.00000000000E+00 0.  1.
<mgrwt>
<rscale>  0 0.90206502E+03</rscale>
<asrwt>0</asrwt>
<pdfrwt beam="1">  1        2 0.14165964E+00 0.90206502E+03</pdfrwt>
<pdfrwt beam="2">  1       -2 0.23941996E+00 0.90206502E+03</pdfrwt>
<totfact> 0.21376939E+00</totfact>
</mgrwt>
</event>
<event>
12    1  0.8033771E-008  0.9976539E+03  0.7818608E-02  0.9311122E-01
         -2   -1    0    0    0  501 -0.00000000000E+00  0.00000000000E+00  0.44663883439E+03  0.44663883439E+03  0.00000000000E+00 0. -1.
          2   -1    0    0  501    0  0.00000000000E+00 -0.00000000000E+00 -0.34696381458E+04  0.34696381458E+04  0.00000000000E+00 0.  1.
         23    2    1    2    0    0 -0.69263171607E+03  0.69857976266E+03 -0.24233186234E+04  0.26172834871E+04  0.99736265190E+02 0.  0.
    5000000    2    1    2    0    0  0.69263171607E+03 -0.69857976266E+03 -0.59968068808E+03  0.12989934931E+04  0.60001232372E+03 0.  0.
         23    2    4    4    0    0  0.35559729758E+03 -0.21022036831E+03  0.36638814404E+02  0.42478417424E+03  0.91962767782E+02 0.  0.
         23    2    4    4    0    0  0.33703441848E+03 -0.48835939434E+03 -0.63631950248E+03  0.87420931888E+03  0.85160593585E+02 0.  0.
          1    1    3    3  502    0 -0.18442470808E+02  0.41011111381E+02 -0.79511312852E+02  0.91345962459E+02  0.00000000000E+00 0. -1.
         -1    1    3    3    0  502 -0.67418924526E+03  0.65756865127E+03 -0.23438073105E+04  0.25259375246E+04  0.00000000000E+00 0.  1.
         15    1    5    5    0    0  0.10129985499E+03 -0.72616260550E+02  0.52381875705E+02  0.13521020875E+03  0.17770000000E+01 0. -1.
        -15    1    5    5    0    0  0.25429744259E+03 -0.13760410776E+03 -0.15743061300E+02  0.28957396549E+03  0.17770000000E+01 0.  1.
          3    1    6    6  503    0  0.26887657290E+03 -0.35861644842E+03 -0.52409681856E+03  0.68962152211E+03  0.00000000000E+00 0.  1.
         -3    1    6    6    0  503  0.68157845579E+02 -0.12974294592E+03 -0.11222268392E+03  0.18458779677E+03  0.00000000000E+00 0. -1.
<mgrwt>
<rscale>  0 0.99765386E+03</rscale>
<asrwt>0</asrwt>
<pdfrwt beam="1">  1        2 0.53379049E+00 0.99765386E+03</pdfrwt>
<pdfrwt beam="2">  1       -2 0.68713666E-01 0.99765386E+03</pdfrwt>
<totfact> 0.17112194E+00</totfact>
</mgrwt>
</event>
<event>
12    1  0.8033771E-008  0.6523086E+03  0.7818608E-02  0.9802457E-01
          2   -1    0    0  501    0  0.00000000000E+00  0.00000000000E+00  0.10763928204E+04  0.10763928204E+04  0.00000000000E+00 0. -1.
         -2   -1    0    0    0  501 -0.00000000000E+00 -0.00000000000E+00 -0.48227102707E+03  0.48227102707E+03  0.00000000000E+00 0.  1.
         23    2    1    2    0    0  0.53251581035E+03  0.99718114662E+02 -0.99816748727E+01  0.54949335212E+03  0.91249764542E+02 0.  0.
    5000000    2    1    2    0    0 -0.53251581035E+03 -0.99718114662E+02  0.60410346819E+03  0.10091704953E+04  0.59997274749E+03 0.  0.
         23    2    4    4    0    0 -0.15755202306E+03 -0.28370914232E+03  0.10820168974E+03  0.35435399648E+03  0.92442586240E+02 0.  0.
         23    2    4    4    0    0 -0.37496378729E+03  0.18399102766E+03  0.49590177845E+03  0.65481649887E+03  0.91736215733E+02 0.  0.
          2    1    3    3  502    0  0.36578097131E+03  0.11018577566E+03  0.17273649386E+01  0.38202042867E+03  0.00000000000E+00 0. -1.
         -2    1    3    3    0  502  0.16673483903E+03 -0.10467661003E+02 -0.11709039811E+02  0.16747292345E+03  0.00000000000E+00 0.  1.
         15    1    5    5    0    0 -0.84204247019E+02 -0.87509466305E+02  0.68367124380E+01  0.12164768915E+03  0.17770000000E+01 0. -1.
        -15    1    5    5    0    0 -0.73347776037E+02 -0.19619967602E+03  0.10136497730E+03  0.23270630733E+03  0.17770000000E+01 0.  1.
          1    1    6    6  503    0 -0.19259336975E+03  0.52001455547E+02  0.19444938174E+03  0.27858018507E+03  0.00000000000E+00 0. -1.
         -1    1    6    6    0  503 -0.18237041754E+03  0.13198957211E+03  0.30145239671E+03  0.37623631380E+03  0.00000000000E+00 0.  1.
<mgrwt>
<rscale>  0 0.65230860E+03</rscale>
<asrwt>0</asrwt>
<pdfrwt beam="1">  1        2 0.16559889E+00 0.65230860E+03</pdfrwt>
<pdfrwt beam="2">  1       -2 0.74195543E-01 0.65230860E+03</pdfrwt>
<totfact> 0.37846732E+01</totfact>
</mgrwt>
</event>
<event>
12    1  0.8033771E-008  0.1522033E+04  0.7818608E-02  0.8869932E-01
         -2   -1    0    0    0  501 -0.00000000000E+00  0.00000000000E+00  0.13038337705E+04  0.13038337705E+04  0.00000000000E+00 0.  1.
          2   -1    0    0  501    0  0.00000000000E+00 -0.00000000000E+00 -0.29499465277E+04  0.29499465277E+04  0.00000000000E+00 0. -1.
         23    2    1    2    0    0 -0.13789491805E+04  0.51200384898E+03  0.52411141181E+03  0.15642308478E+04  0.92068396197E+02 0.  0.
    5000000    2    1    2    0    0  0.13789491805E+04 -0.51200384898E+03 -0.21702241689E+04  0.26895494504E+04  0.60012875217E+03 0.  0.
         23    2    4    4    0    0  0.85828009169E+03 -0.34955236216E+02 -0.13616847853E+04  0.16125180296E+04  0.90345764338E+02 0.  0.
         23    2    4    4    0    0  0.52066908877E+03 -0.47704861276E+03 -0.80853938365E+03  0.10770314208E+04  0.87115254031E+02 0.  0.
          2    1    3    3  502    0 -0.85513471898E+02  0.36489409560E+02  0.57428241603E+02  0.10927961301E+03  0.00000000000E+00 0. -1.
         -2    1    3    3    0  502 -0.12934357086E+04  0.47551443942E+03  0.46668317020E+03  0.14549512348E+04  0.00000000000E+00 0.  1.
         15    1    5    5    0    0  0.66194315096E+03 -0.54682820453E+02 -0.10962560651E+04  0.12817720016E+04  0.17770000000E+01 0. -1.
        -15    1    5    5    0    0  0.19633694073E+03  0.19727584238E+02 -0.26542872016E+03  0.33074602808E+03  0.17770000000E+01 0.  1.
          2    1    6    6  503    0  0.42898589662E+02 -0.11529331852E+02 -0.53148874299E+02  0.69267722117E+02  0.00000000000E+00 0.  1.
         -2    1    6    6    0  503  0.47777049910E+03 -0.46551928091E+03 -0.75539050935E+03  0.10077636987E+04  0.00000000000E+00 0. -1.
<mgrwt>
<rscale>  0 0.15220328E+04</rscale>
<asrwt>0</asrwt>
<pdfrwt beam="1">  1        2 0.45383792E+00 0.15220328E+04</pdfrwt>
<pdfrwt beam="2">  1       -2 0.20058981E+00 0.15220328E+04</pdfrwt>
<totfact> 0.23173047E-01</totfact>
</mgrwt>
</event>
<event>
12    1  0.8033771E-008  0.1530403E+04  0.7818608E-02  0.8864484E-01
          2   -1    0    0  501    0  0.00000000000E+00  0.00000000000E+00  0.24332779996E+04  0.24332779996E+04  0.00000000000E+00 0. -1.
         -2   -1    0    0    0  501 -0.00000000000E+00 -0.00000000000E+00 -0.13626597245E+04  0.13626597245E+04  0.00000000000E+00 0.  1.
         23    2    1    2    0    0  0.15186640742E+04  0.48947424426E+01 -0.42711881123E+03  0.15802264950E+04  0.91218242573E+02 0.  0.
    5000000    2    1    2    0    0 -0.15186640742E+04 -0.48947424426E+01  0.14977370863E+04  0.22157112291E+04  0.59982942757E+03 0.  0.
         23    2    4    4    0    0 -0.11018572522E+04 -0.10892739313E+03  0.13596210086E+04  0.17557821693E+04  0.90813863109E+02 0.  0.
         23    2    4    4    0    0 -0.41680682202E+03  0.10403265068E+03  0.13811607766E+03  0.45992905978E+03  0.88926766639E+02 0.  0.
          3    1    3    3  502    0  0.39779478369E+03  0.27363407908E+02 -0.14394756079E+03  0.42392257109E+03  0.00000000000E+00 0. -1.
         -3    1    3    3    0  502  0.11208692905E+04 -0.22468665465E+02 -0.28317125044E+03  0.11563039239E+04  0.00000000000E+00 0.  1.
         15    1    5    5    0    0 -0.63850234419E+03 -0.94128113178E+02  0.84210842972E+03  0.10609877993E+04  0.17770000000E+01 0.  1.
        -15    1    5    5    0    0 -0.46335490800E+03 -0.14799279947E+02  0.51751257890E+03  0.69479436994E+03  0.17770000000E+01 0. -1.
          3    1    6    6  503    0 -0.20169680330E+03  0.27037007397E+02  0.10523529665E+03  0.22910056284E+03  0.00000000000E+00 0. -1.
         -3    1    6    6    0  503 -0.21511001872E+03  0.76995643286E+02  0.32880781010E+02  0.23082849694E+03  0.00000000000E+00 0.  1.
<mgrwt>
<rscale>  0 0.15304025E+04</rscale>
<asrwt>0</asrwt>
<pdfrwt beam="1">  1        2 0.37435046E+00 0.15304025E+04</pdfrwt>
<pdfrwt beam="2">  1       -2 0.20963996E+00 0.15304025E+04</pdfrwt>
<totfact> 0.40978706E-01</totfact>
</mgrwt>
</event>
<event>
12    1  0.8033771E-008  0.3080510E+03  0.7818608E-02  0.1081284E+00
         -2   -1    0    0    0  501 -0.00000000000E+00  0.00000000000E+00  0.20921270115E+03  0.20921270115E+03  0.00000000000E+00 0. -1.
          2   -1    0    0  501    0  0.00000000000E+00 -0.00000000000E+00 -0.72345566785E+03  0.72345566785E+03  0.00000000000E+00 0.  1.
         23    2    1    2    0    0  0.13191274002E+03  0.26953054454E+02 -0.13078363837E+03  0.20799507631E+03  0.89611124197E+02 0.  0.
    5000000    2    1    2    0    0 -0.13191274002E+03 -0.26953054454E+02 -0.38345932833E+03  0.72467329268E+03  0.59998573860E+03 0.  0.
         23    2    4    4    0    0 -0.28707758932E+03  0.29139486720E+02 -0.39875692510E+01  0.30313678784E+03  0.92808186356E+02 0.  0.
         23    2    4    4    0    0  0.15516484930E+03 -0.56092541174E+02 -0.37947175908E+03  0.42153650485E+03  0.80446910124E+02 0.  0.
          1    1    3    3  502    0  0.95402581788E+02 -0.24432205168E+02 -0.84952588051E+02  0.13005970736E+03  0.00000000000E+00 0. -1.
         -1    1    3    3    0  502  0.36510158234E+02  0.51385259622E+02 -0.45831050319E+02  0.77935368954E+02  0.00000000000E+00 0.  1.
         15    1    5    5    0    0 -0.24985891078E+03  0.17221442156E+02  0.28779833622E+02  0.25210610845E+03  0.17770000000E+01 0. -1.
        -15    1    5    5    0    0 -0.37218678545E+02  0.11918044564E+02 -0.32767402873E+02  0.51030679389E+02  0.17770000000E+01 0.  1.
          4    1    6    6  503    0  0.14672816427E+03 -0.53561975460E+02 -0.27165054423E+03  0.31335611943E+03  0.00000000000E+00 0. -1.
         -4    1    6    6    0  503  0.84366850255E+01 -0.25305657142E+01 -0.10782121485E+03  0.10818038541E+03  0.00000000000E+00 0.  1.
<mgrwt>
<rscale>  0 0.30805101E+03</rscale>
<asrwt>0</asrwt>
<pdfrwt beam="1">  1        2 0.11130087E+00 0.30805101E+03</pdfrwt>
<pdfrwt beam="2">  1       -2 0.32186569E-01 0.30805101E+03</pdfrwt>
<totfact> 0.36331666E+02</totfact>
</mgrwt>
</event>
<event>
12    1  0.8033771E-008  0.3372517E+03  0.7818608E-02  0.1067973E+00
         -1   -1    0    0    0  501 -0.00000000000E+00  0.00000000000E+00  0.11899666757E+03  0.11899666757E+03  0.00000000000E+00 0.  1.
          1   -1    0    0  501    0  0.00000000000E+00 -0.00000000000E+00 -0.27361824774E+04  0.27361824774E+04  0.00000000000E+00 0. -1.
         23    2    1    2    0    0  0.12060766177E+02 -0.31846772529E+03 -0.15844980818E+04  0.16190698759E+04  0.95843296430E+02 0.  0.
    5000000    2    1    2    0    0 -0.12060766177E+02  0.31846772529E+03 -0.10326877280E+04  0.12361092691E+04  0.59996252173E+03 0.  0.
         23    2    4    4    0    0 -0.35857183444E+02  0.21645596676E+03 -0.48039847709E+02  0.24165067657E+03  0.89153235318E+02 0.  0.
         23    2    4    4    0    0  0.23796417267E+02  0.10201175852E+03 -0.98464788032E+03  0.99445859256E+03  0.91890019848E+02 0.  0.
          4    1    3    3  502    0 -0.28811931738E+02 -0.25243179326E+03 -0.12656995533E+04  0.12909482162E+04  0.00000000000E+00 0. -1.
         -4    1    3    3    0  502  0.40872697915E+02 -0.66035932032E+02 -0.31879852857E+03  0.32812165971E+03  0.00000000000E+00 0.  1.
         15    1    5    5    0    0  0.27190339745E+02  0.93581621640E+02 -0.32096803230E+02  0.10261674810E+03  0.17770000000E+01 0. -1.
        -15    1    5    5    0    0 -0.63047523189E+02  0.12287434512E+03 -0.15943044479E+02  0.13903392847E+03  0.17770000000E+01 0.  1.
          1    1    6    6  503    0  0.28003238280E+02  0.79570246353E+02 -0.37445584668E+03  0.38383953232E+03  0.00000000000E+00 0. -1.
         -1    1    6    6    0  503 -0.42068210129E+01  0.22441512170E+02 -0.61019203364E+03  0.61061906024E+03  0.00000000000E+00 0.  1.
<mgrwt>
<rscale>  0 0.33725174E+03</rscale>
<asrwt>0</asrwt>
<pdfrwt beam="1">  1        1 0.42095110E+00 0.33725174E+03</pdfrwt>
<pdfrwt beam="2">  1       -1 0.18307182E-01 0.33725174E+03</pdfrwt>
<totfact> 0.25179602E+01</totfact>
</mgrwt>
</event>
<event>
12    1  0.8033771E-008  0.6763664E+03  0.7818608E-02  0.9758525E-01
         -2   -1    0    0    0  501 -0.00000000000E+00  0.00000000000E+00  0.57470338199E+03  0.57470338199E+03  0.00000000000E+00 0.  1.
          2   -1    0    0  501    0  0.00000000000E+00 -0.00000000000E+00 -0.12325209310E+04  0.12325209310E+04  0.00000000000E+00 0. -1.
         23    2    1    2    0    0  0.52914246754E+03  0.32495417101E+03 -0.70335357172E+03  0.94262954613E+03  0.90869412758E+02 0.  0.
    5000000    2    1    2    0    0 -0.52914246754E+03 -0.32495417101E+03  0.45536022726E+02  0.86459476685E+03  0.59988633697E+03 0.  0.
         23    2    4    4    0    0  0.44252945742E+02 -0.96649852913E+02  0.17855378430E+03  0.22786040817E+03  0.93484728423E+02 0.  0.
         23    2    4    4    0    0 -0.57339541328E+03 -0.22830431810E+03 -0.13301776158E+03  0.63673435867E+03  0.82654443214E+02 0.  0.
          2    1    3    3  502    0  0.14158736759E+03  0.50770249853E+02 -0.20601774324E+03  0.25508412624E+03  0.00000000000E+00 0. -1.
         -2    1    3    3    0  502  0.38755509995E+03  0.27418392116E+03 -0.49733582848E+03  0.68754541989E+03  0.00000000000E+00 0.  1.
         15    1    5    5    0    0  0.23014357204E+02 -0.41134055053E+02  0.87865920191E+01  0.47979506573E+02  0.17770000000E+01 0.  1.
        -15    1    5    5    0    0  0.21238588538E+02 -0.55515797860E+02  0.16976719228E+03  0.17988090160E+03  0.17770000000E+01 0. -1.
          3    1    6    6  503    0 -0.54970929818E+03 -0.20225124258E+03 -0.13625696945E+03  0.60137495738E+03  0.00000000000E+00 0. -1.
         -3    1    6    6    0  503 -0.23686115100E+02 -0.26053075519E+02  0.32392078717E+01  0.35359401298E+02  0.00000000000E+00 0.  1.
<mgrwt>
<rscale>  0 0.67636639E+03</rscale>
<asrwt>0</asrwt>
<pdfrwt beam="1">  1        2 0.18961860E+00 0.67636639E+03</pdfrwt>
<pdfrwt beam="2">  1       -2 0.88415906E-01 0.67636639E+03</pdfrwt>
<totfact> 0.20512022E+01</totfact>
</mgrwt>
</event>
<event>
12    1  0.8033771E-008  0.9048034E+03  0.7818608E-02  0.9419597E-01
         -2   -1    0    0    0  501 -0.00000000000E+00  0.00000000000E+00  0.26233219944E+03  0.26233219944E+03  0.00000000000E+00 0.  1.
          2   -1    0    0  501    0  0.00000000000E+00 -0.00000000000E+00 -0.43885791109E+04  0.43885791109E+04  0.00000000000E+00 0. -1.
         23    2    1    2    0    0  0.16003300575E+03  0.82769677643E+03 -0.30173682660E+04  0.31342314675E+04  0.90571088294E+02 0.  0.
    5000000    2    1    2    0    0 -0.16003300575E+03 -0.82769677643E+03 -0.11088786454E+04  0.15166798429E+04  0.60001114899E+03 0.  0.
         23    2    4    4    0    0 -0.30473770282E+03 -0.64252806091E+03 -0.55167432931E+03  0.90485597984E+03  0.93340248935E+02 0.  0.
         23    2    4    4    0    0  0.14470469706E+03 -0.18516871553E+03 -0.55720431613E+03  0.61182386306E+03  0.92870269375E+02 0.  0.
          2    1    3    3  502    0  0.57626998836E+02  0.42031229185E+03 -0.13723597333E+04  0.14364381404E+04  0.00000000000E+00 0. -1.
         -2    1    3    3    0  502  0.10240600692E+03  0.40738448458E+03 -0.16450085327E+04  0.16977933270E+04  0.00000000000E+00 0.  1.
         15    1    5    5    0    0 -0.15468657607E+03 -0.24580885995E+03 -0.26272532441E+03  0.39163463363E+03  0.17770000000E+01 0. -1.
        -15    1    5    5    0    0 -0.15005112675E+03 -0.39671920096E+03 -0.28894900490E+03  0.51322134621E+03  0.17770000000E+01 0.  1.
          3    1    6    6  503    0  0.10058477091E+03 -0.57994581008E+02 -0.22031009046E+03  0.24903253507E+03  0.00000000000E+00 0. -1.
         -3    1    6    6    0  503  0.44119926153E+02 -0.12717413452E+03 -0.33689422567E+03  0.36279132799E+03  0.00000000000E+00 0.  1.
<mgrwt>
<rscale>  0 0.90480336E+03</rscale>
<asrwt>0</asrwt>
<pdfrwt beam="1">  1        2 0.67516601E+00 0.90480336E+03</pdfrwt>
<pdfrwt beam="2">  1       -2 0.40358800E-01 0.90480336E+03</pdfrwt>
<totfact> 0.99814638E-01</totfact>
</mgrwt>
</event>
<event>
12    1  0.1060338E-007  0.8446069E+03  0.7818608E-02  0.9497604E-01
         -2   -1    0    0    0  501 -0.00000000000E+00  0.00000000000E+00  0.59178040229E+03  0.59178040229E+03  0.00000000000E+00 0.  1.
          2   -1    0    0  501    0  0.00000000000E+00 -0.00000000000E+00 -0.12615830326E+04  0.12615830326E+04  0.00000000000E+00 0. -1.
         23    2    1    2    0    0 -0.20501474193E+03 -0.72651385163E+03 -0.35369751459E+03  0.83860088569E+03  0.91082888807E+02 0.  0.
    5000000    2    1    2    0    0  0.20501474193E+03  0.72651385163E+03 -0.31610511568E+03  0.10147625492E+04  0.59997263774E+03 0.  0.
         23    2    4    4    0    0  0.25876493533E+03  0.78346977422E+03 -0.32857087111E+03  0.89288794101E+03  0.92227322330E+02 0.  0.
         23    2    4    4    0    0 -0.53750193405E+02 -0.56955922595E+02  0.12465755425E+02  0.12187460816E+03  0.92547094213E+02 0.  0.
          1    1    3    3  502    0 -0.18122296379E+03 -0.48959149120E+03 -0.25162054768E+03  0.57952954271E+03  0.00000000000E+00 0. -1.
         -1    1    3    3    0  502 -0.23791778136E+02 -0.23692236043E+03 -0.10207696691E+03  0.25907134298E+03  0.00000000000E+00 0.  1.
         15    1    5    5    0    0  0.14773135398E+03  0.53922429938E+03 -0.18712047348E+03  0.58958004318E+03  0.17770000000E+01 0. -1.
        -15    1    5    5    0    0  0.11103358136E+03  0.24424547484E+03 -0.14145039762E+03  0.30330789783E+03  0.17770000000E+01 0.  1.
          4    1    6    6  503    0 -0.50741066725E+02 -0.65682976423E+01  0.39477672016E+02  0.64624182580E+02  0.00000000000E+00 0. -1.
         -4    1    6    6    0  503 -0.30091266800E+01 -0.50387624952E+02 -0.27011916591E+02  0.57250425585E+02  0.00000000000E+00 0.  1.
<mgrwt>
<rscale>  0 0.84460686E+03</rscale>
<asrwt>0</asrwt>
<pdfrwt beam="1">  1        2 0.19408970E+00 0.84460686E+03</pdfrwt>
<pdfrwt beam="2">  1       -2 0.91043139E-01 0.84460686E+03</pdfrwt>
<totfact> 0.18089645E+01</totfact>
</mgrwt>
</event>
<event>
12    1  0.8033771E-008  0.1056073E+04  0.7818608E-02  0.9249096E-01
         -1   -1    0    0    0  501 -0.00000000000E+00  0.00000000000E+00  0.36574333790E+03  0.36574333790E+03  0.00000000000E+00 0.  1.
          1   -1    0    0  501    0  0.00000000000E+00 -0.00000000000E+00 -0.39767418138E+04  0.39767418138E+04  0.00000000000E+00 0. -1.
         23    2    1    2    0    0  0.48601528754E+03 -0.86131262045E+03 -0.26781345747E+04  0.28563712527E+04  0.91551314855E+02 0.  0.
    5000000    2    1    2    0    0 -0.48601528754E+03  0.86131262045E+03 -0.93286390114E+03  0.14861138989E+04  0.60019094685E+03 0.  0.
         23    2    4    4    0    0 -0.59235388100E+03  0.72729206550E+03 -0.65585592311E+03  0.11482388330E+04  0.92024762696E+02 0.  0.
         23    2    4    4    0    0  0.10633859345E+03  0.13402055495E+03 -0.27700797803E+03  0.33787506590E+03  0.90314642535E+02 0.  0.
          1    1    3    3  502    0  0.86326160853E+02 -0.10125427346E+03 -0.41382619252E+03  0.43469155911E+03  0.00000000000E+00 0. -1.
         -1    1    3    3    0  502  0.39968912669E+03 -0.76005834699E+03 -0.22643083822E+04  0.24216796936E+04  0.00000000000E+00 0.  1.
         15    1    5    5    0    0 -0.41620456712E+03  0.49764009084E+03 -0.50311639890E+03  0.82097574281E+03  0.17770000000E+01 0.  1.
        -15    1    5    5    0    0 -0.17614931387E+03  0.22965197466E+03 -0.15273952421E+03  0.32726309023E+03  0.17770000000E+01 0. -1.
          4    1    6    6  503    0  0.38941295420E+02  0.87507429844E+01 -0.11778808975E+03  0.12436653118E+03  0.00000000000E+00 0. -1.
         -4    1    6    6    0  503  0.67397298031E+02  0.12526981197E+03 -0.15921988828E+03  0.21350853472E+03  0.00000000000E+00 0.  1.
<mgrwt>
<rscale>  0 0.10560732E+04</rscale>
<asrwt>0</asrwt>
<pdfrwt beam="1">  1        1 0.61180636E+00 0.10560732E+04</pdfrwt>
<pdfrwt beam="2">  1       -1 0.56268213E-01 0.10560732E+04</pdfrwt>
<totfact> 0.33519821E-01</totfact>
</mgrwt>
</event>
<event>
12    1  0.8033771E-008  0.1379519E+04  0.7818608E-02  0.8968779E-01
          2   -1    0    0  501    0  0.00000000000E+00  0.00000000000E+00  0.18087032321E+04  0.18087032321E+04  0.00000000000E+00 0. -1.
         -2   -1    0    0    0  501 -0.00000000000E+00 -0.00000000000E+00 -0.11633449763E+04  0.11633449763E+04  0.00000000000E+00 0.  1.
         23    2    1    2    0    0  0.76757731573E+03 -0.10732030931E+04  0.74528970818E+03  0.15190940447E+04  0.10606673774E+03 0.  0.
    5000000    2    1    2    0    0 -0.76757731573E+03  0.10732030931E+04 -0.99931452381E+02  0.14529541638E+04  0.60012473045E+03 0.  0.
         23    2    4    4    0    0 -0.64593498881E+03  0.11163082414E+04 -0.12704265133E+03  0.12988716232E+04  0.86899704606E+02 0.  0.
         23    2    4    4    0    0 -0.12164232692E+03 -0.43105148304E+02  0.27111198952E+02  0.15408254056E+03  0.79696315389E+02 0.  0.
          1    1    3    3  502    0  0.62098891067E+02 -0.46398561261E+02  0.52412825353E+02  0.93574585333E+02  0.00000000000E+00 0. -1.
         -1    1    3    3    0  502  0.70547842467E+03 -0.10268045319E+04  0.69287688282E+03  0.14255194594E+04  0.00000000000E+00 0.  1.
         15    1    5    5    0    0 -0.13696433460E+03  0.23785550125E+03 -0.62931003409E+02  0.28159889443E+03  0.17770000000E+01 0.  1.
        -15    1    5    5    0    0 -0.50897065421E+03  0.87845274017E+03 -0.64111647924E+02  0.10172727288E+04  0.17770000000E+01 0. -1.
          1    1    6    6  503    0 -0.21052017912E+02  0.18505854890E+02  0.22653473787E+02  0.36039339588E+02  0.00000000000E+00 0. -1.
         -1    1    6    6    0  503 -0.10059030901E+03 -0.61611003194E+02  0.44577251651E+01  0.11804320097E+03  0.00000000000E+00 0.  1.
<mgrwt>
<rscale>  0 0.13795191E+04</rscale>
<asrwt>0</asrwt>
<pdfrwt beam="1">  1        2 0.27826204E+00 0.13795191E+04</pdfrwt>
<pdfrwt beam="2">  1       -2 0.17897615E+00 0.13795191E+04</pdfrwt>
<totfact> 0.14982870E+00</totfact>
</mgrwt>
</event>
<event>
12    1  0.8033771E-008  0.8346377E+03  0.7818608E-02  0.9511191E-01
          1   -1    0    0  501    0  0.00000000000E+00  0.00000000000E+00  0.12780456944E+04  0.12780456944E+04  0.00000000000E+00 0. -1.
         -1   -1    0    0    0  501 -0.00000000000E+00 -0.00000000000E+00 -0.63286307871E+03  0.63286307871E+03  0.00000000000E+00 0.  1.
         23    2    1    2    0    0  0.36253762474E+03  0.65856612315E+03  0.80533726466E+01  0.75740911957E+03  0.91982877162E+02 0.  0.
    5000000    2    1    2    0    0 -0.36253762474E+03 -0.65856612315E+03  0.63712924307E+03  0.11534996536E+04  0.59957060509E+03 0.  0.
         23    2    4    4    0    0 -0.45224517089E+03 -0.32037665999E+03  0.22361877803E+03  0.60442837178E+03  0.90340466417E+02 0.  0.
         23    2    4    4    0    0  0.89707546152E+02 -0.33818946316E+03  0.41351046505E+03  0.54907128179E+03  0.89826560370E+02 0.  0.
          2    1    3    3  502    0  0.25121226266E+03  0.36232490951E+03  0.33796667910E+01  0.44090629743E+03  0.00000000000E+00 0. -1.
         -2    1    3    3    0  502  0.11132536207E+03  0.29624121364E+03  0.46737058556E+01  0.31650282215E+03  0.00000000000E+00 0.  1.
         15    1    5    5    0    0 -0.36623343158E+02  0.13056374533E+00  0.15944352017E+02  0.39983326540E+02  0.17770000000E+01 0. -1.
        -15    1    5    5    0    0 -0.41562182773E+03 -0.32050722373E+03  0.20767442601E+03  0.56444504524E+03  0.17770000000E+01 0.  1.
          2    1    6    6  503    0  0.38801107755E+02 -0.11144321385E+03  0.79943874657E+02  0.14253469392E+03  0.00000000000E+00 0. -1.
         -2    1    6    6    0  503  0.50906438397E+02 -0.22674624931E+03  0.33356659039E+03  0.40653658786E+03  0.00000000000E+00 0.  1.
<mgrwt>
<rscale>  0 0.83463772E+03</rscale>
<asrwt>0</asrwt>
<pdfrwt beam="1">  1        1 0.19662242E+00 0.83463772E+03</pdfrwt>
<pdfrwt beam="2">  1       -1 0.97363550E-01 0.83463772E+03</pdfrwt>
<totfact> 0.97262106E+00</totfact>
</mgrwt>
</event>
<event>
12    1  0.8033771E-008  0.3455779E+03  0.7818608E-02  0.1064445E+00
          2   -1    0    0  501    0  0.00000000000E+00  0.00000000000E+00  0.32481405229E+04  0.32481405229E+04  0.00000000000E+00 0. -1.
         -2   -1    0    0    0  501 -0.00000000000E+00 -0.00000000000E+00 -0.25787521802E+03  0.25787521802E+03  0.00000000000E+00 0.  1.
         23    2    1    2    0    0 -0.84145008805E+02  0.71029091737E+02  0.28833792877E+04  0.28868252470E+04  0.88081642337E+02 0.  0.
    5000000    2    1    2    0    0  0.84145008805E+02 -0.71029091737E+02  0.10688601716E+03  0.61919049388E+03  0.59987226363E+03 0.  0.
         23    2    4    4    0    0 -0.16651255264E+03 -0.19645581471E+03  0.16371140183E+03  0.31871803193E+03  0.91969796499E+02 0.  0.
         23    2    4    4    0    0  0.25065756144E+03  0.12542672297E+03 -0.56825384671E+02  0.30047246196E+03  0.92160187219E+02 0.  0.
          3    1    3    3  502    0 -0.73165537793E+02  0.54018691794E+01  0.16911616503E+04  0.16927522275E+04  0.00000000000E+00 0. -1.
         -3    1    3    3    0  502 -0.10979471013E+02  0.65627222557E+02  0.11922176373E+04  0.11940730195E+04  0.00000000000E+00 0.  1.
         15    1    5    5    0    0 -0.16133533833E+03 -0.15252506672E+03  0.16120285487E+03  0.27437657611E+03  0.17770000000E+01 0.  1.
        -15    1    5    5    0    0 -0.51772143050E+01 -0.43930747987E+02  0.25085469570E+01  0.44341455811E+02  0.17770000000E+01 0. -1.
          3    1    6    6  503    0  0.50355273918E+02  0.35359656426E+01  0.19159694770E+02  0.53993060369E+02  0.00000000000E+00 0. -1.
         -3    1    6    6    0  503  0.20030228752E+03  0.12189075733E+03 -0.75985079441E+02  0.24647940159E+03  0.00000000000E+00 0.  1.
<mgrwt>
<rscale>  0 0.34557786E+03</rscale>
<asrwt>0</asrwt>
<pdfrwt beam="1">  1        2 0.49971390E+00 0.34557786E+03</pdfrwt>
<pdfrwt beam="2">  1       -2 0.39673113E-01 0.34557786E+03</pdfrwt>
<totfact> 0.87074189E+00</totfact>
</mgrwt>
</event>
<event>
12    1  0.8033771E-008  0.8049443E+03  0.7818608E-02  0.9552888E-01
          2   -1    0    0  501    0  0.00000000000E+00  0.00000000000E+00  0.20927025094E+04  0.20927025094E+04  0.00000000000E+00 0. -1.
         -2   -1    0    0    0  501 -0.00000000000E+00 -0.00000000000E+00 -0.57410674831E+03  0.57410674831E+03  0.00000000000E+00 0.  1.
         23    2    1    2    0    0  0.72975490354E+03  0.15846859234E+03  0.15337215341E+04  0.17082341666E+04  0.90042821788E+02 0.  0.
    5000000    2    1    2    0    0 -0.72975490354E+03 -0.15846859234E+03 -0.15125772981E+02  0.95857509115E+03  0.60081852699E+03 0.  0.
         23    2    4    4    0    0  0.94898893137E+01 -0.88420935972E+02 -0.15188053691E+03  0.19815673409E+03  0.91049842702E+02 0.  0.
         23    2    4    4    0    0 -0.73924479285E+03 -0.70047656367E+02  0.13675476393E+03  0.76041835706E+03  0.90247849671E+02 0.  0.
          4    1    3    3  502    0  0.48291721413E+03  0.14670317004E+03  0.10050572294E+04  0.11246647902E+04  0.00000000000E+00 0. -1.
         -4    1    3    3    0  502  0.24683768940E+03  0.11765422299E+02  0.52866430464E+03  0.58356937640E+03  0.00000000000E+00 0.  1.
         15    1    5    5    0    0 -0.28608536285E+02 -0.15174560937E+02 -0.87893963142E+02  0.93686830098E+02  0.17770000000E+01 0.  1.
        -15    1    5    5    0    0  0.38098425599E+02 -0.73246375035E+02 -0.63986573772E+02  0.10446990400E+03  0.17770000000E+01 0. -1.
          2    1    6    6  503    0 -0.72759252416E+03 -0.65482179544E+02  0.14584657937E+03  0.74494967733E+03  0.00000000000E+00 0. -1.
         -2    1    6    6    0  503 -0.11652268694E+02 -0.45654768231E+01 -0.90918154393E+01  0.15468679721E+02  0.00000000000E+00 0.  1.
<mgrwt>
<rscale>  0 0.80494427E+03</rscale>
<asrwt>0</asrwt>
<pdfrwt beam="1">  1        2 0.32195423E+00 0.80494427E+03</pdfrwt>
<pdfrwt beam="2">  1       -2 0.88324116E-01 0.80494427E+03</pdfrwt>
<totfact> 0.67374837E+00</totfact>
</mgrwt>
</event>
<event>
12    1  0.8033771E-008  0.1492877E+04  0.7818608E-02  0.8889204E-01
          1   -1    0    0  501    0  0.00000000000E+00  0.00000000000E+00  0.13237325898E+04  0.13237325898E+04  0.00000000000E+00 0. -1.
         -1   -1    0    0    0  501 -0.00000000000E+00 -0.00000000000E+00 -0.20470683155E+04  0.20470683155E+04  0.00000000000E+00 0.  1.
         23    2    1    2    0    0 -0.74886374318E+03  0.12216522030E+04 -0.10554641847E+04  0.17822134614E+04  0.95127103789E+02 0.  0.
    5000000    2    1    2    0    0  0.74886374318E+03 -0.12216522030E+04  0.33212845907E+03  0.15885874438E+04  0.60005811570E+03 0.  0.
         23    2    4    4    0    0  0.77328639184E+03 -0.12324096675E+04  0.30614221453E+03  0.14900010315E+04  0.97849813850E+02 0.  0.
         23    2    4    4    0    0 -0.24422648654E+02  0.10757464467E+02  0.25986244543E+02  0.98586412272E+02  0.91278732299E+02 0.  0.
          1    1    3    3  502    0 -0.40910557000E+03  0.60273136669E+03 -0.57749022162E+03  0.92959530112E+03  0.00000000000E+00 0. -1.
         -1    1    3    3    0  502 -0.33975817319E+03  0.61892083634E+03 -0.47797396311E+03  0.85261816033E+03  0.00000000000E+00 0.  1.
         15    1    5    5    0    0  0.70731089863E+03 -0.10800178530E+04  0.25247417679E+03  0.13154746815E+04  0.17770000000E+01 0.  1.
        -15    1    5    5    0    0  0.65975493206E+02 -0.15239181455E+03  0.53668037733E+02  0.17452635001E+03  0.17770000000E+01 0. -1.
          2    1    6    6  503    0  0.22286558169E+02  0.35032488963E+02  0.18350284038E+02  0.45394921326E+02  0.00000000000E+00 0. -1.
         -2    1    6    6    0  503 -0.46709206822E+02 -0.24275024495E+02  0.76359605046E+01  0.53191490946E+02  0.00000000000E+00 0.  1.
<mgrwt>
<rscale>  0 0.14928767E+04</rscale>
<asrwt>0</asrwt>
<pdfrwt beam="1">  1        1 0.20365117E+00 0.14928767E+04</pdfrwt>
<pdfrwt beam="2">  1       -1 0.31493359E+00 0.14928767E+04</pdfrwt>
<totfact> 0.21786410E-01</totfact>
</mgrwt>
</event>
<event>
12    1  0.8513982E-008  0.8625831E+03  0.7818608E-02  0.9473602E-01
         -2   -1    0    0    0  501 -0.00000000000E+00  0.00000000000E+00  0.56675698066E+03  0.56675698066E+03  0.00000000000E+00 0.  1.
          2   -1    0    0  501    0  0.00000000000E+00 -0.00000000000E+00 -0.15311274456E+04  0.15311274456E+04  0.00000000000E+00 0. -1.
         23    2    1    2    0    0 -0.63571255754E+03  0.43196390777E+03 -0.79259685790E+03  0.11077632039E+04  0.90588428540E+02 0.  0.
    5000000    2    1    2    0    0  0.63571255754E+03 -0.43196390777E+03 -0.17177360709E+03  0.99012122238E+03  0.60009215083E+03 0.  0.
         23    2    4    4    0    0  0.39152164289E+02 -0.34988903426E+03 -0.98974915227E+02  0.37660570658E+03  0.89892136025E+02 0.  0.
         23    2    4    4    0    0  0.59656039325E+03 -0.82074873513E+02 -0.72798691860E+02  0.61351551581E+03  0.92092621523E+02 0.  0.
          2    1    3    3  502    0 -0.29227348841E+03  0.22668864488E+03 -0.43649321682E+03  0.57213447901E+03  0.00000000000E+00 0. -1.
         -2    1    3    3    0  502 -0.34343906914E+03  0.20527526290E+03 -0.35610364108E+03  0.53562872492E+03  0.00000000000E+00 0.  1.
         15    1    5    5    0    0  0.63424117271E+01 -0.12705749178E+03  0.75356365094E+01  0.12745107277E+03  0.17770000000E+01 0. -1.
        -15    1    5    5    0    0  0.32809752562E+02 -0.22283154248E+03 -0.10651055174E+03  0.24915463381E+03  0.17770000000E+01 0.  1.
          1    1    6    6  503    0  0.13134400671E+03 -0.75747175329E+01  0.20708663903E+02  0.13318210542E+03  0.00000000000E+00 0. -1.
         -1    1    6    6    0  503  0.46521638655E+03 -0.74500155980E+02 -0.93507355763E+02  0.48033341039E+03  0.00000000000E+00 0.  1.
<mgrwt>
<rscale>  0 0.86258306E+03</rscale>
<asrwt>0</asrwt>
<pdfrwt beam="1">  1        2 0.23555807E+00 0.86258306E+03</pdfrwt>
<pdfrwt beam="2">  1       -2 0.87193383E-01 0.86258306E+03</pdfrwt>
<totfact> 0.14010829E+01</totfact>
</mgrwt>
</event>
<event>
12    1  0.8033771E-008  0.8586209E+03  0.7818608E-02  0.9478839E-01
          2   -1    0    0  501    0  0.00000000000E+00  0.00000000000E+00  0.25027522439E+04  0.25027522439E+04  0.00000000000E+00 0. -1.
         -2   -1    0    0    0  501 -0.00000000000E+00 -0.00000000000E+00 -0.53260471330E+03  0.53260471330E+03  0.00000000000E+00 0.  1.
         23    2    1    2    0    0 -0.13420941550E+03 -0.81941407356E+03  0.23518944152E+02  0.83559871975E+03  0.90666909959E+02 0.  0.
    5000000    2    1    2    0    0  0.13420941550E+03  0.81941407356E+03  0.19466285864E+04  0.21997582374E+04  0.60010154011E+03 0.  0.
         23    2    4    4    0    0 -0.34452069069E+02  0.56043536667E+03  0.16989570981E+04  0.17917343815E+04  0.92639772768E+02 0.  0.
         23    2    4    4    0    0  0.16866148457E+03  0.25897870689E+03  0.24767148832E+03  0.40802385588E+03  0.98110314656E+02 0.  0.
          1    1    3    3  502    0 -0.12333921455E+03 -0.48019698217E+03  0.20069645662E+02  0.49618997794E+03  0.00000000000E+00 0. -1.
         -1    1    3    3    0  502 -0.10870200955E+02 -0.33921709139E+03  0.34492984903E+01  0.33940874181E+03  0.00000000000E+00 0.  1.
         15    1    5    5    0    0 -0.44879237246E+02  0.25046939774E+03  0.65544724901E+03  0.70310974898E+03  0.17770000000E+01 0. -1.
        -15    1    5    5    0    0  0.10427168177E+02  0.30996596893E+03  0.10435098491E+04  0.10886246326E+04  0.17770000000E+01 0.  1.
          1    1    6    6  503    0  0.71883745244E+02  0.17549121412E+03  0.18775544687E+03  0.26686428553E+03  0.00000000000E+00 0. -1.
         -1    1    6    6    0  503  0.96777739326E+02  0.83487492770E+02  0.59916041453E+02  0.14115957035E+03  0.00000000000E+00 0.  1.
<mgrwt>
<rscale>  0 0.85862088E+03</rscale>
<asrwt>0</asrwt>
<pdfrwt beam="1">  1        2 0.38503880E+00 0.85862088E+03</pdfrwt>
<pdfrwt beam="2">  1       -2 0.81939188E-01 0.85862088E+03</pdfrwt>
<totfact> 0.46825101E+00</totfact>
</mgrwt>
</event>
<event>
12    1  0.8033771E-008  0.3861058E+03  0.7818608E-02  0.1048700E+00
          1   -1    0    0  501    0  0.00000000000E+00  0.00000000000E+00  0.44638384598E+03  0.44638384598E+03  0.00000000000E+00 0. -1.
         -1   -1    0    0    0  501 -0.00000000000E+00 -0.00000000000E+00 -0.52425285517E+03  0.52425285517E+03  0.00000000000E+00 0.  1.
         23    2    1    2    0    0  0.26023788117E+03  0.12470986530E+03 -0.19661837784E+02  0.30216640223E+03  0.87416482841E+02 0.  0.
    5000000    2    1    2    0    0 -0.26023788117E+03 -0.12470986530E+03 -0.58207171407E+02  0.66847029891E+03  0.60015677987E+03 0.  0.
         23    2    4    4    0    0 -0.41701388480E+02  0.12463301705E+03  0.18824548045E+03  0.24470008717E+03  0.84672173775E+02 0.  0.
         23    2    4    4    0    0 -0.21853649269E+03 -0.24934288235E+03 -0.24645265186E+03  0.42377021174E+03  0.94404508028E+02 0.  0.
          1    1    3    3  502    0  0.17439262908E+03  0.41158201570E+02  0.74710937015E+01  0.17933935395E+03  0.00000000000E+00 0. -1.
         -1    1    3    3    0  502  0.85845252090E+02  0.83551663726E+02 -0.27132931485E+02  0.12282704828E+03  0.00000000000E+00 0.  1.
         15    1    5    5    0    0  0.21670257447E+01  0.40075758663E+01  0.70004050163E+02  0.70174649505E+02  0.17770000000E+01 0. -1.
        -15    1    5    5    0    0 -0.43868414225E+02  0.12062544119E+03  0.11824143029E+03  0.17452543767E+03  0.17770000000E+01 0.  1.
          1    1    6    6  503    0  0.23170801651E+01 -0.25210808917E+02 -0.40296824237E+02  0.47589786618E+02  0.00000000000E+00 0. -1.
         -1    1    6    6    0  503 -0.22085357286E+03 -0.22413207343E+03 -0.20615582762E+03  0.37618042512E+03  0.00000000000E+00 0.  1.
<mgrwt>
<rscale>  0 0.38610579E+03</rscale>
<asrwt>0</asrwt>
<pdfrwt beam="1">  1        1 0.68674438E-01 0.38610579E+03</pdfrwt>
<pdfrwt beam="2">  1       -1 0.80654285E-01 0.38610579E+03</pdfrwt>
<totfact> 0.83704726E+01</totfact>
</mgrwt>
</event>
<event>
12    1  0.8033771E-008  0.1207324E+04  0.7818608E-02  0.9106470E-01
          2   -1    0    0  501    0  0.00000000000E+00  0.00000000000E+00  0.16143504262E+04  0.16143504262E+04  0.00000000000E+00 0.  1.
         -2   -1    0    0    0  501 -0.00000000000E+00 -0.00000000000E+00 -0.93059841584E+03  0.93059841584E+03  0.00000000000E+00 0. -1.
         23    2    1    2    0    0  0.11336149228E+04 -0.15102987921E+03  0.19292037105E+03  0.11633625469E+04  0.91111626126E+02 0.  0.
    5000000    2    1    2    0    0 -0.11336149228E+04  0.15102987921E+03  0.49083163926E+03  0.13815862951E+04  0.59997681213E+03 0.  0.
         23    2    4    4    0    0 -0.39809335929E+03 -0.20291214090E+03  0.78559087380E+02  0.46283279311E+03  0.91602426460E+02 0.  0.
         23    2    4    4    0    0 -0.73552156349E+03  0.35394202011E+03  0.41227255188E+03  0.91875350198E+03  0.88726638603E+02 0.  0.
          2    1    3    3  502    0  0.11092867179E+03 -0.38324801888E+01 -0.60257004258E+01  0.11115829792E+03  0.00000000000E+00 0. -1.
         -2    1    3    3    0  502  0.10226862510E+04 -0.14719739902E+03  0.19894607148E+03  0.10522042490E+04  0.00000000000E+00 0.  1.
         15    1    5    5    0    0 -0.20163814123E+03 -0.58130865076E+02  0.59044365845E+02  0.21800580805E+03  0.17770000000E+01 0. -1.
        -15    1    5    5    0    0 -0.19645521806E+03 -0.14478127582E+03  0.19514721536E+02  0.24482698506E+03  0.17770000000E+01 0.  1.
          4    1    6    6  503    0 -0.54119775235E+03  0.27064861666E+03  0.26210379018E+03  0.65942708291E+03  0.00000000000E+00 0. -1.
         -4    1    6    6    0  503 -0.19432381115E+03  0.83293403442E+02  0.15016876170E+03  0.25932641906E+03  0.00000000000E+00 0.  1.
<mgrwt>
<rscale>  0 0.12073241E+04</rscale>
<asrwt>0</asrwt>
<pdfrwt beam="1">  1        2 0.24836160E+00 0.12073241E+04</pdfrwt>
<pdfrwt beam="2">  1       -2 0.14316899E+00 0.12073241E+04</pdfrwt>
<totfact> 0.36046356E+00</totfact>
</mgrwt>
</event>
<event>
12    1  0.8033771E-008  0.7220190E+03  0.7818608E-02  0.9680301E-01
          2   -1    0    0  501    0  0.00000000000E+00  0.00000000000E+00  0.11653203544E+04  0.11653203544E+04  0.00000000000E+00 0. -1.
         -2   -1    0    0    0  501 -0.00000000000E+00 -0.00000000000E+00 -0.50287529382E+03  0.50287529382E+03  0.00000000000E+00 0.  1.
         23    2    1    2    0    0  0.53932281376E+03 -0.32698360386E+03  0.14076113961E+03  0.65333070643E+03  0.96124600937E+02 0.  0.
    5000000    2    1    2    0    0 -0.53932281376E+03  0.32698360386E+03  0.52168392098E+03  0.10148649418E+04  0.60000780166E+03 0.  0.
         23    2    4    4    0    0 -0.39925470478E+03 -0.53490218465E+02  0.41679843753E+03  0.58676317301E+03  0.91129363666E+02 0.  0.
         23    2    4    4    0    0 -0.14006810898E+03  0.38047382232E+03  0.10488548345E+03  0.42810176878E+03  0.88829922730E+02 0.  0.
          1    1    3    3  502    0  0.34106691465E+03 -0.23605623012E+03  0.52743509461E+02  0.41812804479E+03  0.00000000000E+00 0. -1.
         -1    1    3    3    0  502  0.19825589910E+03 -0.90927373738E+02  0.88017630147E+02  0.23520266164E+03  0.00000000000E+00 0.  1.
         15    1    5    5    0    0 -0.24994152579E+03 -0.99053926582E+01  0.20181780789E+03  0.32140701366E+03  0.17770000000E+01 0. -1.
        -15    1    5    5    0    0 -0.14931317899E+03 -0.43584825807E+02  0.21498062964E+03  0.26535615936E+03  0.17770000000E+01 0.  1.
          4    1    6    6  503    0 -0.96847527775E+02  0.26180081093E+03  0.11389661269E+03  0.30148224926E+03  0.00000000000E+00 0. -1.
         -4    1    6    6    0  503 -0.43220581203E+02  0.11867301139E+03 -0.90111292442E+01  0.12661951952E+03  0.00000000000E+00 0.  1.
<mgrwt>
<rscale>  0 0.72201896E+03</rscale>
<asrwt>0</asrwt>
<pdfrwt beam="1">  1        2 0.17928005E+00 0.72201896E+03</pdfrwt>
<pdfrwt beam="2">  1       -2 0.77365430E-01 0.72201896E+03</pdfrwt>
<totfact> 0.30239672E+01</totfact>
</mgrwt>
</event>
<event>
12    1  0.8033771E-008  0.7106820E+03  0.7818608E-02  0.9699137E-01
          1   -1    0    0  501    0  0.00000000000E+00  0.00000000000E+00  0.43826433309E+03  0.43826433309E+03  0.00000000000E+00 0. -1.
         -1   -1    0    0    0  501 -0.00000000000E+00 -0.00000000000E+00 -0.14127817476E+04  0.14127817476E+04  0.00000000000E+00 0.  1.
         23    2    1    2    0    0  0.11605085907E+03 -0.63763846778E+03 -0.22328845833E+03  0.69152256029E+03  0.91077430145E+02 0.  0.
    5000000    2    1    2    0    0 -0.11605085907E+03  0.63763846778E+03 -0.75122895614E+03  0.11595235204E+04  0.60008268784E+03 0.  0.
         23    2    4    4    0    0 -0.25591468890E+03  0.28377283470E+03 -0.64206715461E+03  0.75266708427E+03  0.90764304716E+02 0.  0.
         23    2    4    4    0    0  0.13986382983E+03  0.35386563308E+03 -0.10916180153E+03  0.40685643609E+03  0.93984485429E+02 0.  0.
          2    1    3    3  502    0  0.22106376438E+02 -0.22624654262E+03 -0.12013295257E+03  0.25711498638E+03  0.00000000000E+00 0. -1.
         -2    1    3    3    0  502  0.93944482634E+02 -0.41139192516E+03 -0.10315550576E+03  0.43440757391E+03  0.00000000000E+00 0.  1.
         15    1    5    5    0    0 -0.18647028006E+03  0.14631475091E+03 -0.42291726600E+03  0.48481062621E+03  0.17770000000E+01 0. -1.
        -15    1    5    5    0    0 -0.69444408842E+02  0.13745808378E+03 -0.21914988861E+03  0.26785645806E+03  0.17770000000E+01 0.  1.
          1    1    6    6  503    0  0.71080847434E+02  0.15315192796E+03 -0.13155786860E+01  0.16884824742E+03  0.00000000000E+00 0. -1.
         -1    1    6    6    0  503  0.68782982392E+02  0.20071370513E+03 -0.10784622284E+03  0.23800818867E+03  0.00000000000E+00 0.  1.
<mgrwt>
<rscale>  0 0.71068196E+03</rscale>
<asrwt>0</asrwt>
<pdfrwt beam="1">  1        1 0.67425281E-01 0.71068196E+03</pdfrwt>
<pdfrwt beam="2">  1       -1 0.21735104E+00 0.71068196E+03</pdfrwt>
<totfact> 0.63350544E+00</totfact>
</mgrwt>
</event>
<event>
12    1  0.8033771E-008  0.4380020E+03  0.7818608E-02  0.1031362E+00
          2   -1    0    0  501    0  0.00000000000E+00  0.00000000000E+00  0.27369195725E+03  0.27369195725E+03  0.00000000000E+00 0.  1.
         -2   -1    0    0    0  501 -0.00000000000E+00 -0.00000000000E+00 -0.81146362815E+03  0.81146362815E+03  0.00000000000E+00 0. -1.
         23    2    1    2    0    0  0.14591753294E+03  0.18662767229E+03 -0.31174003751E+03  0.40169459347E+03  0.89748988619E+02 0.  0.
    5000000    2    1    2    0    0 -0.14591753294E+03 -0.18662767229E+03 -0.22603163339E+03  0.68346099193E+03  0.59992233974E+03 0.  0.
         23    2    4    4    0    0  0.17758705341E+03 -0.22552239903E+03 -0.62852967582E+02  0.30745861387E+03  0.90458773524E+02 0.  0.
         23    2    4    4    0    0 -0.32350458634E+03  0.38894726742E+02 -0.16317866581E+03  0.37600237806E+03  0.92641751826E+02 0.  0.
          3    1    3    3  502    0  0.18085978021E+02  0.93275264395E+02 -0.11399136663E+03  0.14839612264E+03  0.00000000000E+00 0. -1.
         -3    1    3    3    0  502  0.12783155492E+03  0.93352407892E+02 -0.19774867087E+03  0.25329847083E+03  0.00000000000E+00 0.  1.
         15    1    5    5    0    0  0.73113213727E+02 -0.53750201984E+02  0.14735905339E+02  0.91950698040E+02  0.17770000000E+01 0. -1.
        -15    1    5    5    0    0  0.10447383968E+03 -0.17177219705E+03 -0.77588872922E+02  0.21550791583E+03  0.17770000000E+01 0.  1.
          1    1    6    6  503    0 -0.82439551149E+02  0.35595050498E+02 -0.99596467046E+01  0.90346454142E+02  0.00000000000E+00 0. -1.
         -1    1    6    6    0  503 -0.24106503519E+03  0.32996762445E+01 -0.15321901910E+03  0.28565592392E+03  0.00000000000E+00 0.  1.
<mgrwt>
<rscale>  0 0.43800200E+03</rscale>
<asrwt>0</asrwt>
<pdfrwt beam="1">  1        2 0.42106455E-01 0.43800200E+03</pdfrwt>
<pdfrwt beam="2">  1       -2 0.12484056E+00 0.43800200E+03</pdfrwt>
<totfact> 0.60362086E+01</totfact>
</mgrwt>
</event>
<event>
12    1  0.8033771E-008  0.5004802E+03  0.7818608E-02  0.1013654E+00
          1   -1    0    0  501    0  0.00000000000E+00  0.00000000000E+00  0.45226354590E+03  0.45226354590E+03  0.00000000000E+00 0. -1.
         -1   -1    0    0    0  501 -0.00000000000E+00 -0.00000000000E+00 -0.60866815783E+03  0.60866815783E+03  0.00000000000E+00 0.  1.
         23    2    1    2    0    0 -0.25807331902E+02  0.32655811204E+03  0.56887430226E+02  0.34486800858E+03  0.91605374880E+02 0.  0.
    5000000    2    1    2    0    0  0.25807331902E+02 -0.32655811204E+03 -0.21329204215E+03  0.71606369515E+03  0.59995624953E+03 0.  0.
         23    2    4    4    0    0  0.99114498518E+02  0.13690647821E+03 -0.13037211999E+03  0.23094338717E+03  0.88152656312E+02 0.  0.
         23    2    4    4    0    0 -0.73307166615E+02 -0.46346459024E+03 -0.82919922168E+02  0.48512030798E+03  0.91063893164E+02 0.  0.
          1    1    3    3  502    0  0.17051041377E+02  0.24284130788E+03  0.60155766982E+02  0.25076155033E+03  0.00000000000E+00 0. -1.
         -1    1    3    3    0  502 -0.42858373279E+02  0.83716804160E+02 -0.32683367559E+01  0.94106458249E+02  0.00000000000E+00 0.  1.
         15    1    5    5    0    0  0.78754696972E+02  0.37957343843E+02 -0.43360204986E+02  0.97602906474E+02  0.17770000000E+01 0. -1.
        -15    1    5    5    0    0  0.20359801546E+02  0.98949134366E+02 -0.87011915000E+02  0.13334048069E+03  0.17770000000E+01 0.  1.
          2    1    6    6  503    0  0.53745167525E+01 -0.19894764696E+03 -0.61561654060E+02  0.20832399984E+03  0.00000000000E+00 0. -1.
         -2    1    6    6    0  503 -0.78681683368E+02 -0.26451694329E+03 -0.21358268109E+02  0.27679630814E+03  0.00000000000E+00 0.  1.
<mgrwt>
<rscale>  0 0.50048025E+03</rscale>
<asrwt>0</asrwt>
<pdfrwt beam="1">  1        1 0.69579007E-01 0.50048025E+03</pdfrwt>
<pdfrwt beam="2">  1       -1 0.93641255E-01 0.50048025E+03</pdfrwt>
<totfact> 0.58784915E+01</totfact>
</mgrwt>
</event>
<event>
12    1  0.8033771E-008  0.1264269E+04  0.7818608E-02  0.9058390E-01
         -2   -1    0    0    0  501 -0.00000000000E+00  0.00000000000E+00  0.14537024130E+04  0.14537024130E+04  0.00000000000E+00 0.  1.
          2   -1    0    0  501    0  0.00000000000E+00 -0.00000000000E+00 -0.12421857521E+04  0.12421857521E+04  0.00000000000E+00 0. -1.
         23    2    1    2    0    0  0.94633147208E+03 -0.73115369591E+03  0.54449668604E+03  0.13171575212E+04  0.91095072965E+02 0.  0.
    5000000    2    1    2    0    0 -0.94633147208E+03  0.73115369591E+03 -0.33298002517E+03  0.13787306439E+04  0.59991125105E+03 0.  0.
         23    2    4    4    0    0 -0.61914328018E+03  0.11703429511E+03 -0.16497485931E+03  0.65714481837E+03  0.87104422855E+02 0.  0.
         23    2    4    4    0    0 -0.32718819190E+03  0.61411940081E+03 -0.16800516587E+03  0.72158582552E+03  0.90915435814E+02 0.  0.
          3    1    3    3  502    0  0.51308261940E+03 -0.45236475590E+03  0.30117299378E+03  0.74739067354E+03  0.00000000000E+00 0. -1.
         -3    1    3    3    0  502  0.43324885267E+03 -0.27878894001E+03  0.24332369226E+03  0.56976684761E+03  0.00000000000E+00 0.  1.
         15    1    5    5    0    0 -0.29646865009E+03  0.42867268670E+02 -0.12129566673E+03  0.32318270329E+03  0.17770000000E+01 0. -1.
        -15    1    5    5    0    0 -0.32267463009E+03  0.74167026437E+02 -0.43679192579E+02  0.33396211508E+03  0.17770000000E+01 0.  1.
          3    1    6    6  503    0 -0.32413517209E+02  0.29006939678E+02  0.54639032550E+01  0.43839398788E+02  0.00000000000E+00 0.  1.
         -3    1    6    6    0  503 -0.29477467469E+03  0.58511246113E+03 -0.17346906912E+03  0.67774642673E+03  0.00000000000E+00 0. -1.
<mgrwt>
<rscale>  0 0.12642694E+04</rscale>
<asrwt>0</asrwt>
<pdfrwt beam="1">  1        2 0.19110550E+00 0.12642694E+04</pdfrwt>
<pdfrwt beam="2">  1       -2 0.22364652E+00 0.12642694E+04</pdfrwt>
<totfact> 0.16164379E+00</totfact>
</mgrwt>
</event>
<event>
12    1  0.8033771E-008  0.3415504E+03  0.7818608E-02  0.1066138E+00
          1   -1    0    0  501    0  0.00000000000E+00  0.00000000000E+00  0.54527106897E+03  0.54527106897E+03  0.00000000000E+00 0. -1.
         -1   -1    0    0    0  501 -0.00000000000E+00 -0.00000000000E+00 -0.31063092659E+03  0.31063092659E+03  0.00000000000E+00 0.  1.
         23    2    1    2    0    0 -0.89430668071E+02 -0.53864990096E-02 -0.10225386991E+03  0.16320286665E+03  0.90451519337E+02 0.  0.
    5000000    2    1    2    0    0  0.89430668071E+02  0.53864990096E-02  0.33689401229E+03  0.69269912891E+03  0.59861228125E+03 0.  0.
         23    2    4    4    0    0 -0.83332505590E+02  0.23883517037E+03  0.26151288672E+03  0.37483904672E+03  0.90159724563E+02 0.  0.
         23    2    4    4    0    0  0.17276317366E+03 -0.23882978387E+03  0.75381125569E+02  0.31786008219E+03  0.92010531585E+02 0.  0.
          3    1    3    3  502    0 -0.70192622982E+02  0.36315643677E+02 -0.39926556781E+02  0.88543549924E+02  0.00000000000E+00 0. -1.
         -3    1    3    3    0  502 -0.19238045090E+02 -0.36321030176E+02 -0.62327313133E+02  0.74659316728E+02  0.00000000000E+00 0.  1.
         15    1    5    5    0    0 -0.84151660327E+02  0.10699714012E+03  0.14487173081E+03  0.19879855645E+03  0.17770000000E+01 0. -1.
        -15    1    5    5    0    0  0.81915473655E+00  0.13183803024E+03  0.11664115591E+03  0.17604049027E+03  0.17770000000E+01 0.  1.
          3    1    6    6  503    0  0.13584391495E+03 -0.17963848165E+03  0.96426964005E+02  0.24499329114E+03  0.00000000000E+00 0. -1.
         -3    1    6    6    0  503  0.36919258716E+02 -0.59191302215E+02 -0.21045838436E+02  0.72866791047E+02  0.00000000000E+00 0.  1.
<mgrwt>
<rscale>  0 0.34155040E+03</rscale>
<asrwt>0</asrwt>
<pdfrwt beam="1">  1        1 0.83887857E-01 0.34155040E+03</pdfrwt>
<pdfrwt beam="2">  1       -1 0.47789373E-01 0.34155040E+03</pdfrwt>
<totfact> 0.17970529E+02</totfact>
</mgrwt>
</event>
<event>
12    1  0.8033771E-008  0.4322188E+03  0.7818608E-02  0.1033161E+00
          2   -1    0    0  501    0  0.00000000000E+00  0.00000000000E+00  0.23161077583E+04  0.23161077583E+04  0.00000000000E+00 0. -1.
         -2   -1    0    0    0  501 -0.00000000000E+00 -0.00000000000E+00 -0.12111018154E+03  0.12111018154E+03  0.00000000000E+00 0.  1.
         23    2    1    2    0    0  0.31071195017E+03 -0.15247565823E+03  0.60027346222E+03  0.69856558900E+03  0.88740691661E+02 0.  0.
    5000000    2    1    2    0    0 -0.31071195017E+03  0.15247565823E+03  0.15947241145E+04  0.17386523508E+04  0.59998021073E+03 0.  0.
         23    2    4    4    0    0  0.67809557194E+02  0.57357758318E+02  0.10773163758E+04  0.10843606888E+04  0.85670772861E+02 0.  0.
         23    2    4    4    0    0 -0.37852150736E+03  0.95117899911E+02  0.51740773870E+03  0.65429166202E+03  0.89782317331E+02 0.  0.
          3    1    3    3  502    0  0.27647415801E+03 -0.99702512878E+02  0.47989125293E+03  0.56273809695E+03  0.00000000000E+00 0. -1.
         -3    1    3    3    0  502  0.34237792156E+02 -0.52773145350E+02  0.12038220929E+03  0.13582749204E+03  0.00000000000E+00 0.  1.
         15    1    5    5    0    0  0.42849150614E+02 -0.31965328841E+01  0.19849383541E+03  0.20309905947E+03  0.17770000000E+01 0. -1.
        -15    1    5    5    0    0  0.24960406580E+02  0.60554291202E+02  0.87882254042E+03  0.88126162935E+03  0.17770000000E+01 0.  1.
          1    1    6    6  503    0 -0.10461890179E+02 -0.11856925075E+02  0.32927267113E+02  0.36527287579E+02  0.00000000000E+00 0. -1.
         -1    1    6    6    0  503 -0.36805961718E+03  0.10697482499E+03  0.48448047158E+03  0.61776437444E+03  0.00000000000E+00 0.  1.
<mgrwt>
<rscale>  0 0.43221885E+03</rscale>
<asrwt>0</asrwt>
<pdfrwt beam="1">  1        2 0.35632424E+00 0.43221885E+03</pdfrwt>
<pdfrwt beam="2">  1       -2 0.18632337E-01 0.43221885E+03</pdfrwt>
<totfact> 0.11596358E+02</totfact>
</mgrwt>
</event>
<event>
12    1  0.8033771E-008  0.4319366E+03  0.7818608E-02  0.1033250E+00
          1   -1    0    0  501    0  0.00000000000E+00  0.00000000000E+00  0.41935551022E+03  0.41935551022E+03  0.00000000000E+00 0. -1.
         -1   -1    0    0    0  501 -0.00000000000E+00 -0.00000000000E+00 -0.83010730632E+03  0.83010730632E+03  0.00000000000E+00 0.  1.
         23    2    1    2    0    0 -0.40133346905E+03  0.62691319792E+02 -0.30797550112E+03  0.51763950832E+03  0.90016644706E+02 0.  0.
    5000000    2    1    2    0    0  0.40133346905E+03 -0.62691319792E+02 -0.10277629498E+03  0.73182330823E+03  0.60000302724E+03 0.  0.
         23    2    4    4    0    0  0.24071201989E+03 -0.80169429219E+02 -0.33920611994E+03  0.43158636150E+03  0.82683624311E+02 0.  0.
         23    2    4    4    0    0  0.16062144916E+03  0.17478109427E+02  0.23642982496E+03  0.30023694672E+03  0.90213235232E+02 0.  0.
          3    1    3    3  502    0 -0.17424139220E+03  0.70973191784E+02 -0.12491769949E+03  0.22583553386E+03  0.00000000000E+00 0. -1.
         -3    1    3    3    0  502 -0.22709207686E+03 -0.82818719922E+01 -0.18305780163E+03  0.29180397446E+03  0.00000000000E+00 0.  1.
         15    1    5    5    0    0  0.12969866154E+03 -0.48557214190E+01 -0.13523962057E+03  0.18745194994E+03  0.17770000000E+01 0. -1.
        -15    1    5    5    0    0  0.11101335835E+03 -0.75313707800E+02 -0.20396649937E+03  0.24413441156E+03  0.17770000000E+01 0.  1.
          3    1    6    6  503    0  0.13738389673E+03  0.48563535963E+02  0.17710432091E+03  0.22934404852E+03  0.00000000000E+00 0. -1.
         -3    1    6    6    0  503  0.23237552430E+02 -0.31085426536E+02  0.59325504048E+02  0.70892898209E+02  0.00000000000E+00 0.  1.
<mgrwt>
<rscale>  0 0.43193663E+03</rscale>
<asrwt>0</asrwt>
<pdfrwt beam="1">  1        1 0.64516233E-01 0.43193663E+03</pdfrwt>
<pdfrwt beam="2">  1       -1 0.12770882E+00 0.43193663E+03</pdfrwt>
<totfact> 0.31785412E+01</totfact>
</mgrwt>
</event>
<event>
12    1  0.8033771E-008  0.8217749E+03  0.7818608E-02  0.9529023E-01
         -2   -1    0    0    0  501 -0.00000000000E+00  0.00000000000E+00  0.27766208993E+03  0.27766208993E+03  0.00000000000E+00 0.  1.
          2   -1    0    0  501    0  0.00000000000E+00 -0.00000000000E+00 -0.27271578944E+04  0.27271578944E+04  0.00000000000E+00 0. -1.
         23    2    1    2    0    0 -0.18215482247E+03 -0.71036876085E+03 -0.14505945829E+04  0.16279753912E+04  0.90967437564E+02 0.  0.
    5000000    2    1    2    0    0  0.18215482247E+03  0.71036876085E+03 -0.99890122161E+03  0.13768445931E+04  0.60007768447E+03 0.  0.
         23    2    4    4    0    0 -0.13621411745E+03  0.50918339176E+03 -0.42109847864E+03  0.68085884820E+03  0.91775978451E+02 0.  0.
         23    2    4    4    0    0  0.31836893992E+03  0.20118536909E+03 -0.57780274297E+03  0.69598574495E+03  0.93304944945E+02 0.  0.
          1    1    3    3  502    0 -0.78163214721E+02 -0.47620473907E+03 -0.96442476195E+03  0.10784227200E+04  0.00000000000E+00 0. -1.
         -1    1    3    3    0  502 -0.10399160775E+03 -0.23416402178E+03 -0.48616982090E+03  0.54955267112E+03  0.00000000000E+00 0.  1.
         15    1    5    5    0    0 -0.11893417527E+02  0.90114367056E+02 -0.11787132053E+03  0.14885851827E+03  0.17770000000E+01 0. -1.
        -15    1    5    5    0    0 -0.12432069992E+03  0.41906902470E+03 -0.30322715811E+03  0.53200032992E+03  0.17770000000E+01 0.  1.
          2    1    6    6  503    0  0.19169198611E+03  0.12637900909E+03 -0.42991972400E+03  0.48738941367E+03  0.00000000000E+00 0. -1.
         -2    1    6    6    0  503  0.12667695381E+03  0.74806360003E+02 -0.14788301897E+03  0.20859633128E+03  0.00000000000E+00 0.  1.
<mgrwt>
<rscale>  0 0.82177488E+03</rscale>
<asrwt>0</asrwt>
<pdfrwt beam="1">  1        2 0.41956275E+00 0.82177488E+03</pdfrwt>
<pdfrwt beam="2">  1       -2 0.42717245E-01 0.82177488E+03</pdfrwt>
<totfact> 0.13844076E+01</totfact>
</mgrwt>
</event>
<event>
12    1  0.8033771E-008  0.1148961E+04  0.7818608E-02  0.9158742E-01
          2   -1    0    0  501    0  0.00000000000E+00  0.00000000000E+00  0.17614626057E+04  0.17614626057E+04  0.00000000000E+00 0. -1.
         -2   -1    0    0    0  501 -0.00000000000E+00 -0.00000000000E+00 -0.79594739756E+03  0.79594739756E+03  0.00000000000E+00 0.  1.
         23    2    1    2    0    0  0.72990849298E+03 -0.79839728957E+03  0.20374503793E+03  0.11045878114E+04  0.91638161270E+02 0.  0.
    5000000    2    1    2    0    0 -0.72990849298E+03  0.79839728957E+03  0.76177017020E+03  0.14528221918E+04  0.60016155219E+03 0.  0.
         23    2    4    4    0    0 -0.22074548134E+03  0.63199210667E+03  0.54586998376E+03  0.86809255324E+03  0.86417888105E+02 0.  0.
         23    2    4    4    0    0 -0.50916301163E+03  0.16640518289E+03  0.21590018644E+03  0.58472963858E+03  0.91423205040E+02 0.  0.
          2    1    3    3  502    0  0.12119654410E+03 -0.10422877197E+03  0.36182761401E+01  0.15989162308E+03  0.00000000000E+00 0.  1.
         -2    1    3    3    0  502  0.60871194888E+03 -0.69416851760E+03  0.20012676179E+03  0.94469618837E+03  0.00000000000E+00 0. -1.
         15    1    5    5    0    0 -0.12310341208E+03  0.22571845403E+03  0.21201707963E+03  0.33325316253E+03  0.17770000000E+01 0.  1.
        -15    1    5    5    0    0 -0.97642069263E+02  0.40627365264E+03  0.33385290413E+03  0.53483939070E+03  0.17770000000E+01 0. -1.
          1    1    6    6  503    0 -0.26541377236E+03  0.51415750214E+02  0.74741123361E+02  0.28048936780E+03  0.00000000000E+00 0. -1.
         -1    1    6    6    0  503 -0.24374923928E+03  0.11498943268E+03  0.14115906308E+03  0.30424027078E+03  0.00000000000E+00 0.  1.
<mgrwt>
<rscale>  0 0.11489615E+04</rscale>
<asrwt>0</asrwt>
<pdfrwt beam="1">  1        2 0.27099425E+00 0.11489615E+04</pdfrwt>
<pdfrwt beam="2">  1       -2 0.12245345E+00 0.11489615E+04</pdfrwt>
<totfact> 0.44847677E+00</totfact>
</mgrwt>
</event>
<event>
12    1  0.8033771E-008  0.4678827E+03  0.7818608E-02  0.1022520E+00
          2   -1    0    0  501    0  0.00000000000E+00  0.00000000000E+00  0.24869691986E+04  0.24869691986E+04  0.00000000000E+00 0. -1.
         -2   -1    0    0    0  501 -0.00000000000E+00 -0.00000000000E+00 -0.12146362121E+03  0.12146362121E+03  0.00000000000E+00 0.  1.
         23    2    1    2    0    0 -0.15259563234E+03 -0.24329836273E+03  0.14246732926E+04  0.14562041655E+04  0.91416960523E+02 0.  0.
    5000000    2    1    2    0    0  0.15259563234E+03  0.24329836273E+03  0.94083228483E+03  0.11522286543E+04  0.59998830271E+03 0.  0.
         23    2    4    4    0    0  0.25868419854E+03  0.37153329973E+03  0.76433039059E+03  0.89303504770E+03  0.91411941584E+02 0.  0.
         23    2    4    4    0    0 -0.10608856620E+03 -0.12823493700E+03  0.17650189424E+03  0.25919360663E+03  0.91265678682E+02 0.  0.
          3    1    3    3  502    0 -0.95604418378E+02 -0.91318478598E+02  0.79657914587E+03  0.80747607084E+03  0.00000000000E+00 0. -1.
         -3    1    3    3    0  502 -0.56991213964E+02 -0.15197988413E+03  0.62809414673E+03  0.64872809466E+03  0.00000000000E+00 0.  1.
         15    1    5    5    0    0  0.13500124792E+03  0.15224611591E+03  0.26798726956E+03  0.33648856017E+03  0.17770000000E+01 0. -1.
        -15    1    5    5    0    0  0.12368295062E+03  0.21928718382E+03  0.49634312104E+03  0.55654648753E+03  0.17770000000E+01 0.  1.
          1    1    6    6  503    0 -0.21247780040E+02 -0.90799638650E+02  0.62597883808E+02  0.11231445852E+03  0.00000000000E+00 0. -1.
         -1    1    6    6    0  503 -0.84840786158E+02 -0.37435298348E+02  0.11390401043E+03  0.14687914811E+03  0.00000000000E+00 0.  1.
<mgrwt>
<rscale>  0 0.46788271E+03</rscale>
<asrwt>0</asrwt>
<pdfrwt beam="1">  1        2 0.38261061E+00 0.46788271E+03</pdfrwt>
<pdfrwt beam="2">  1       -2 0.18686713E-01 0.46788271E+03</pdfrwt>
<totfact> 0.92228300E+01</totfact>
</mgrwt>
</event>
<event>
12    1  0.8033771E-008  0.3822681E+03  0.7818608E-02  0.1050099E+00
         -2   -1    0    0    0  501 -0.00000000000E+00  0.00000000000E+00  0.33406140900E+03  0.33406140900E+03  0.00000000000E+00 0.  1.
          2   -1    0    0  501    0  0.00000000000E+00 -0.00000000000E+00 -0.17940152450E+04  0.17940152450E+04  0.00000000000E+00 0. -1.
         23    2    1    2    0    0 -0.32652525474E+03 -0.16380382247E+03 -0.13692519237E+04  0.14198217956E+04  0.87135908018E+02 0.  0.
    5000000    2    1    2    0    0  0.32652525474E+03  0.16380382247E+03 -0.90701912277E+02  0.70825485837E+03  0.59995639282E+03 0.  0.
         23    2    4    4    0    0  0.15782598451E+03  0.14430920323E+03  0.23433611541E+03  0.33000147359E+03  0.90848060326E+02 0.  0.
         23    2    4    4    0    0  0.16869927022E+03  0.19494619238E+02 -0.32503802769E+03  0.37825338478E+03  0.92662935950E+02 0.  0.
          2    1    3    3  502    0 -0.27943316464E+03 -0.16722971953E+03 -0.11316556832E+04  0.11775794062E+04  0.00000000000E+00 0. -1.
         -2    1    3    3    0  502 -0.47092090092E+02  0.34258970642E+01 -0.23759624049E+03  0.24224238938E+03  0.00000000000E+00 0.  1.
         15    1    5    5    0    0  0.13630846240E+03  0.10195680837E+03  0.12629425565E+03  0.21196363942E+03  0.17770000000E+01 0. -1.
        -15    1    5    5    0    0  0.21517522109E+02  0.42352394859E+02  0.10804185976E+03  0.11803783418E+03  0.17770000000E+01 0.  1.
          3    1    6    6  503    0  0.12622104430E+03  0.30837504685E+02 -0.15320273987E+03  0.20088251099E+03  0.00000000000E+00 0. -1.
         -3    1    6    6    0  503  0.42478225927E+02 -0.11342885447E+02 -0.17183528782E+03  0.17737087378E+03  0.00000000000E+00 0.  1.
<mgrwt>
<rscale>  0 0.38226814E+03</rscale>
<asrwt>0</asrwt>
<pdfrwt beam="1">  1        2 0.27600234E+00 0.38226814E+03</pdfrwt>
<pdfrwt beam="2">  1       -2 0.51394064E-01 0.38226814E+03</pdfrwt>
<totfact> 0.34052126E+01</totfact>
</mgrwt>
</event>
<event>
12    1  0.8033771E-008  0.6909648E+03  0.7818608E-02  0.9732810E-01
          2   -1    0    0  501    0  0.00000000000E+00  0.00000000000E+00  0.14671190100E+04  0.14671190100E+04  0.00000000000E+00 0. -1.
         -2   -1    0    0    0  501 -0.00000000000E+00 -0.00000000000E+00 -0.50338197648E+03  0.50338197648E+03  0.00000000000E+00 0.  1.
         23    2    1    2    0    0 -0.44593444124E+03  0.45681811914E+03 -0.29896781675E+02  0.64544601062E+03  0.90368220127E+02 0.  0.
    5000000    2    1    2    0    0  0.44593444124E+03 -0.45681811914E+03  0.99363381519E+03  0.13250549759E+04  0.60076801720E+03 0.  0.
         23    2    4    4    0    0  0.47804632821E+03 -0.44922483047E+03  0.10270577065E+04  0.12220921205E+04  0.91270906233E+02 0.  0.
         23    2    4    4    0    0 -0.32111886968E+02 -0.75932886776E+01 -0.33423891269E+02  0.10296285538E+03  0.91626206743E+02 0.  0.
          3    1    3    3  502    0 -0.28934780327E+03  0.25134491098E+03 -0.49061015138E+02  0.38639797973E+03  0.00000000000E+00 0. -1.
         -3    1    3    3    0  502 -0.15658663797E+03  0.20547320817E+03  0.19164233463E+02  0.25904803089E+03  0.00000000000E+00 0.  1.
         15    1    5    5    0    0  0.23348585424E+03 -0.27052528882E+03  0.50759039561E+03  0.62076625510E+03  0.17770000000E+01 0.  1.
        -15    1    5    5    0    0  0.24456047396E+03 -0.17869954165E+03  0.51946731084E+03  0.60132586538E+03  0.17770000000E+01 0. -1.
          2    1    6    6  503    0 -0.55859080284E+02 -0.71725264186E+01 -0.48924903767E+02  0.74601127297E+02  0.00000000000E+00 0.  1.
         -2    1    6    6    0  503  0.23747193315E+02 -0.42076225894E+00  0.15501012498E+02  0.28361728080E+02  0.00000000000E+00 0. -1.
<mgrwt>
<rscale>  0 0.69096476E+03</rscale>
<asrwt>0</asrwt>
<pdfrwt beam="1">  1        2 0.22571062E+00 0.69096476E+03</pdfrwt>
<pdfrwt beam="2">  1       -2 0.77443381E-01 0.69096476E+03</pdfrwt>
<totfact> 0.20310866E+01</totfact>
</mgrwt>
</event>
<event>
12    1  0.8033771E-008  0.4672118E+03  0.7818608E-02  0.1022710E+00
         -1   -1    0    0    0  501 -0.00000000000E+00  0.00000000000E+00  0.28873887747E+03  0.28873887747E+03  0.00000000000E+00 0.  1.
          1   -1    0    0  501    0  0.00000000000E+00 -0.00000000000E+00 -0.11079542476E+04  0.11079542476E+04  0.00000000000E+00 0. -1.
         23    2    1    2    0    0 -0.21177937358E+03  0.16535809501E+03  0.68584603706E+02  0.29199148945E+03  0.91440578426E+02 0.  0.
    5000000    2    1    2    0    0  0.21177937358E+03 -0.16535809501E+03 -0.88779997379E+03  0.11047016356E+04  0.59998592279E+03 0.  0.
         23    2    4    4    0    0  0.26543678966E+03 -0.34407053916E+03 -0.63472278129E+03  0.77476716447E+03  0.92465803485E+02 0.  0.
         23    2    4    4    0    0 -0.53657416086E+02  0.17871244415E+03 -0.25307719250E+03  0.32993447112E+03  0.99957160208E+02 0.  0.
          3    1    3    3  502    0 -0.49839070265E+02  0.83662489869E+02  0.50538882335E+02  0.10971564958E+03  0.00000000000E+00 0. -1.
         -3    1    3    3    0  502 -0.16194030331E+03  0.81695605146E+02  0.18045721371E+02  0.18227583986E+03  0.00000000000E+00 0.  1.
         15    1    5    5    0    0  0.14568370432E+03 -0.11544928983E+03 -0.27995988455E+03  0.33605501769E+03  0.17770000000E+01 0.  1.
        -15    1    5    5    0    0  0.11975308535E+03 -0.22862124934E+03 -0.35476289674E+03  0.43871214678E+03  0.17770000000E+01 0. -1.
          4    1    6    6  503    0 -0.38890883514E+02  0.72258749171E+01 -0.47980302168E+02  0.62183787959E+02  0.00000000000E+00 0. -1.
         -4    1    6    6    0  503 -0.14766532572E+02  0.17148656923E+03 -0.20509689033E+03  0.26775068316E+03  0.00000000000E+00 0.  1.
<mgrwt>
<rscale>  0 0.46721184E+03</rscale>
<asrwt>0</asrwt>
<pdfrwt beam="1">  1        1 0.17045450E+00 0.46721184E+03</pdfrwt>
<pdfrwt beam="2">  1       -1 0.44421366E-01 0.46721184E+03</pdfrwt>
<totfact> 0.66380458E+01</totfact>
</mgrwt>
</event>
<event>
12    1  0.8033771E-008  0.9270376E+03  0.7818608E-02  0.9392400E-01
         -1   -1    0    0    0  501 -0.00000000000E+00  0.00000000000E+00  0.41515301633E+03  0.41515301633E+03  0.00000000000E+00 0.  1.
          1   -1    0    0  501    0  0.00000000000E+00 -0.00000000000E+00 -0.22424528697E+04  0.22424528697E+04  0.00000000000E+00 0. -1.
         23    2    1    2    0    0 -0.69691626623E+03  0.51380383517E+03 -0.72408899106E+03  0.11323827018E+04  0.91099139796E+02 0.  0.
    5000000    2    1    2    0    0  0.69691626623E+03 -0.51380383517E+03 -0.11032108623E+04  0.15252231842E+04  0.59962062318E+03 0.  0.
         23    2    4    4    0    0  0.63146428646E+03 -0.20268614302E+03 -0.94665055506E+03  0.11595211682E+04  0.92267266256E+02 0.  0.
         23    2    4    4    0    0  0.65451979773E+02 -0.31111769215E+03 -0.15656030729E+03  0.36570201605E+03  0.90269899193E+02 0.  0.
          3    1    3    3  502    0 -0.34274088079E+03  0.20630660242E+03 -0.36702122315E+03  0.54289806024E+03  0.00000000000E+00 0. -1.
         -3    1    3    3    0  502 -0.35417538544E+03  0.30749723275E+03 -0.35706776791E+03  0.58948464160E+03  0.00000000000E+00 0.  1.
         15    1    5    5    0    0  0.26174734716E+03 -0.11954859925E+03 -0.46224745630E+03  0.54449922856E+03  0.17770000000E+01 0.  1.
        -15    1    5    5    0    0  0.36971693930E+03 -0.83137543777E+02 -0.48440309877E+03  0.61502193962E+03  0.17770000000E+01 0. -1.
          4    1    6    6  503    0  0.57483741270E+02 -0.29139283816E+03 -0.16832666753E+03  0.34139132039E+03  0.00000000000E+00 0.  1.
         -4    1    6    6    0  503  0.79682385026E+01 -0.19724853989E+02  0.11766360242E+02  0.24310695652E+02  0.00000000000E+00 0. -1.
<mgrwt>
<rscale>  0 0.92703761E+03</rscale>
<asrwt>0</asrwt>
<pdfrwt beam="1">  1        1 0.34499275E+00 0.92703761E+03</pdfrwt>
<pdfrwt beam="2">  1       -1 0.63869695E-01 0.92703761E+03</pdfrwt>
<totfact> 0.51920372E+00</totfact>
</mgrwt>
</event>
<event>
12    1  0.8033771E-008  0.6292298E+03  0.7818608E-02  0.9846553E-01
         -2   -1    0    0    0  501 -0.00000000000E+00  0.00000000000E+00  0.11442584376E+04  0.11442584376E+04  0.00000000000E+00 0.  1.
          2   -1    0    0  501    0  0.00000000000E+00 -0.00000000000E+00 -0.56820394318E+03  0.56820394318E+03  0.00000000000E+00 0. -1.
         23    2    1    2    0    0 -0.35238480467E+03 -0.35192444502E+03 -0.25899786395E+03  0.56997000436E+03  0.98792949034E+02 0.  0.
    5000000    2    1    2    0    0  0.35238480467E+03  0.35192444502E+03  0.83505235836E+03  0.11424923764E+04  0.59995876808E+03 0.  0.
         23    2    4    4    0    0 -0.13492554541E+03  0.17544897429E+03  0.16184769061E+03  0.28896993796E+03  0.91223378076E+02 0.  0.
         23    2    4    4    0    0  0.48731035008E+03  0.17647547073E+03  0.67320466775E+03  0.85352243845E+03  0.81737746494E+02 0.  0.
          3    1    3    3  502    0 -0.12315856643E+03 -0.97966938801E+02 -0.13079141769E+03  0.20462636322E+03  0.00000000000E+00 0. -1.
         -3    1    3    3    0  502 -0.22922623824E+03 -0.25395750621E+03 -0.12820644626E+03  0.36534364114E+03  0.00000000000E+00 0.  1.
         15    1    5    5    0    0 -0.47950677496E+02  0.61145719860E+01  0.24498130521E+02  0.54221504875E+02  0.17770000000E+01 0. -1.
        -15    1    5    5    0    0 -0.86974867910E+02  0.16933440230E+03  0.13734956009E+03  0.23474843309E+03  0.17770000000E+01 0.  1.
          3    1    6    6  503    0  0.24625585901E+03  0.65232352489E+02  0.38523944242E+03  0.46185131363E+03  0.00000000000E+00 0. -1.
         -3    1    6    6    0  503  0.24105449107E+03  0.11124311824E+03  0.28796522533E+03  0.39167112482E+03  0.00000000000E+00 0.  1.
<mgrwt>
<rscale>  0 0.62922979E+03</rscale>
<asrwt>0</asrwt>
<pdfrwt beam="1">  1        2 0.87415992E-01 0.62922979E+03</pdfrwt>
<pdfrwt beam="2">  1       -2 0.17603976E+00 0.62922979E+03</pdfrwt>
<totfact> 0.10547588E+01</totfact>
</mgrwt>
</event>
<event>
12    1  0.8033771E-008  0.5605932E+03  0.7818608E-02  0.9990713E-01
          1   -1    0    0  501    0  0.00000000000E+00  0.00000000000E+00  0.14268342227E+04  0.14268342227E+04  0.00000000000E+00 0. -1.
         -1   -1    0    0    0  501 -0.00000000000E+00 -0.00000000000E+00 -0.31484399957E+03  0.31484399957E+03  0.00000000000E+00 0.  1.
         23    2    1    2    0    0 -0.19644708245E+03 -0.35356102195E+03  0.89305923050E+03  0.98466325699E+03  0.91706532140E+02 0.  0.
    5000000    2    1    2    0    0  0.19644708245E+03  0.35356102195E+03  0.21893099262E+03  0.75701496527E+03  0.60128531138E+03 0.  0.
         23    2    4    4    0    0 -0.19212417020E+03  0.69847353333E+02  0.10290071378E+02  0.22478652884E+03  0.92912584925E+02 0.  0.
         23    2    4    4    0    0  0.38857125265E+03  0.28371366861E+03  0.20864092124E+03  0.53222843643E+03  0.90857087706E+02 0.  0.
          4    1    3    3  502    0 -0.16445057676E+03 -0.34360286748E+03  0.81012283158E+03  0.89521278196E+03  0.00000000000E+00 0. -1.
         -4    1    3    3    0  502 -0.31996505691E+02 -0.99581544644E+01  0.82936398919E+02  0.89450475026E+02  0.00000000000E+00 0.  1.
         15    1    5    5    0    0 -0.44837217127E+02  0.53245131261E+02  0.28903205499E+02  0.75392128633E+02  0.17770000000E+01 0. -1.
        -15    1    5    5    0    0 -0.14728695307E+03  0.16602222073E+02 -0.18613134121E+02  0.14939440021E+03  0.17770000000E+01 0.  1.
          3    1    6    6  503    0  0.10634821742E+03  0.12848789079E+03  0.85183812347E+02  0.18728417796E+03  0.00000000000E+00 0. -1.
         -3    1    6    6    0  503  0.28222303524E+03  0.15522577782E+03  0.12345710889E+03  0.34494425847E+03  0.00000000000E+00 0.  1.
<mgrwt>
<rscale>  0 0.56059324E+03</rscale>
<asrwt>0</asrwt>
<pdfrwt beam="1">  1        1 0.21951295E+00 0.56059324E+03</pdfrwt>
<pdfrwt beam="2">  1       -1 0.48437539E-01 0.56059324E+03</pdfrwt>
<totfact> 0.33178268E+01</totfact>
</mgrwt>
</event>
<event>
12    1  0.8033771E-008  0.3607063E+03  0.7818608E-02  0.1058305E+00
          1   -1    0    0  501    0  0.00000000000E+00  0.00000000000E+00  0.84985105782E+03  0.84985105782E+03  0.00000000000E+00 0. -1.
         -1   -1    0    0    0  501 -0.00000000000E+00 -0.00000000000E+00 -0.21544271746E+03  0.21544271746E+03  0.00000000000E+00 0.  1.
         23    2    1    2    0    0  0.10015280860E+03 -0.16730312856E+03  0.95244004791E+02  0.23538460974E+03  0.91178792263E+02 0.  0.
    5000000    2    1    2    0    0 -0.10015280860E+03  0.16730312856E+03  0.53916433557E+03  0.82990916554E+03  0.60002509982E+03 0.  0.
         23    2    4    4    0    0  0.10232121542E+03  0.26288769515E+03  0.50688212824E+03  0.58608005733E+03  0.83551004091E+02 0.  0.
         23    2    4    4    0    0 -0.20247402402E+03 -0.95584566595E+02  0.32282207324E+02  0.24382910821E+03  0.90985456683E+02 0.  0.
          2    1    3    3  502    0  0.97705713639E+02 -0.13285640286E+03  0.39128053845E+02  0.16949405552E+03  0.00000000000E+00 0.  1.
         -2    1    3    3    0  502  0.24470949582E+01 -0.34446725701E+02  0.56115950946E+02  0.65890554223E+02  0.00000000000E+00 0. -1.
         15    1    5    5    0    0  0.59829344196E+02  0.12387843499E+03  0.32725770393E+03  0.35500166140E+03  0.17770000000E+01 0. -1.
        -15    1    5    5    0    0  0.42491871224E+02  0.13900926016E+03  0.17962442431E+03  0.23107839594E+03  0.17770000000E+01 0.  1.
          2    1    6    6  503    0 -0.10830755110E+03 -0.96173359543E+02  0.37158603537E+02  0.14953461983E+03  0.00000000000E+00 0. -1.
         -2    1    6    6    0  503 -0.94166472914E+02  0.58879294824E+00 -0.48763962132E+01  0.94294488377E+02  0.00000000000E+00 0.  1.
<mgrwt>
<rscale>  0 0.36070626E+03</rscale>
<asrwt>0</asrwt>
<pdfrwt beam="1">  1        1 0.13074631E+00 0.36070626E+03</pdfrwt>
<pdfrwt beam="2">  1       -1 0.33145034E-01 0.36070626E+03</pdfrwt>
<totfact> 0.17980124E+02</totfact>
</mgrwt>
</event>
<event>
12    1  0.8033771E-008  0.7094908E+03  0.7818608E-02  0.9701138E-01
          1   -1    0    0  501    0  0.00000000000E+00  0.00000000000E+00  0.12714706466E+04  0.12714706466E+04  0.00000000000E+00 0. -1.
         -1   -1    0    0    0  501 -0.00000000000E+00 -0.00000000000E+00 -0.58790326979E+03  0.58790326979E+03  0.00000000000E+00 0.  1.
         23    2    1    2    0    0  0.67138079615E+02 -0.65605201440E+03 -0.98326736226E+02  0.67346662811E+03  0.94749062200E+02 0.  0.
    5000000    2    1    2    0    0 -0.67138079615E+02  0.65605201440E+03  0.78189411301E+03  0.11859072883E+04  0.60008826441E+03 0.  0.
         23    2    4    4    0    0 -0.56392907400E+01  0.64821261008E+03  0.83688780298E+03  0.10622720579E+04  0.88483562242E+02 0.  0.
         23    2    4    4    0    0 -0.61498788875E+02  0.78394043145E+01 -0.54993689965E+02  0.12363523035E+03  0.91748607376E+02 0.  0.
          1    1    3    3  502    0  0.79063413832E+02 -0.33980719389E+03 -0.68995154497E+02  0.35564066664E+03  0.00000000000E+00 0. -1.
         -1    1    3    3    0  502 -0.11925334217E+02 -0.31624482051E+03 -0.29331581729E+02  0.31782596147E+03  0.00000000000E+00 0.  1.
         15    1    5    5    0    0  0.35588286499E+01  0.35510962734E+02  0.19530160803E+02  0.40721967605E+02  0.17770000000E+01 0.  1.
        -15    1    5    5    0    0 -0.91981193899E+01  0.61270164735E+03  0.81735764218E+03  0.10215500903E+04  0.17770000000E+01 0. -1.
          1    1    6    6  503    0 -0.30603051028E+02 -0.38652180038E+02 -0.65676788326E+01  0.49736024763E+02  0.00000000000E+00 0. -1.
         -1    1    6    6    0  503 -0.30895737847E+02  0.46491584353E+02 -0.48426011132E+02  0.73899205591E+02  0.00000000000E+00 0.  1.
<mgrwt>
<rscale>  0 0.70949076E+03</rscale>
<asrwt>0</asrwt>
<pdfrwt beam="1">  1        1 0.19561087E+00 0.70949076E+03</pdfrwt>
<pdfrwt beam="2">  1       -1 0.90446657E-01 0.70949076E+03</pdfrwt>
<totfact> 0.11790983E+01</totfact>
</mgrwt>
</event>
<event>
12    1  0.8033771E-008  0.9479058E+03  0.7818608E-02  0.9367602E-01
         -2   -1    0    0    0  501 -0.00000000000E+00  0.00000000000E+00  0.41460011882E+03  0.41460011882E+03  0.00000000000E+00 0.  1.
          2   -1    0    0  501    0  0.00000000000E+00 -0.00000000000E+00 -0.33886182714E+04  0.33886182714E+04  0.00000000000E+00 0. -1.
         23    2    1    2    0    0  0.89116976665E+03  0.30426495490E+03 -0.45889205900E+03  0.10514252373E+04  0.90290597626E+02 0.  0.
    5000000    2    1    2    0    0 -0.89116976665E+03 -0.30426495490E+03 -0.25151260936E+04  0.27517931529E+04  0.59978794100E+03 0.  0.
         23    2    4    4    0    0 -0.28726384971E+03 -0.74661740491E+02 -0.26226550143E+03  0.40636357037E+03  0.90847472390E+02 0.  0.
         23    2    4    4    0    0 -0.60390591694E+03 -0.22960321441E+03 -0.22528605921E+04  0.23454295826E+04  0.90769414093E+02 0.  0.
          4    1    3    3  502    0  0.79349597925E+03  0.29900927152E+03 -0.41825020215E+03  0.94550285306E+03  0.00000000000E+00 0.  1.
         -4    1    3    3    0  502  0.97673787401E+02  0.52556833825E+01 -0.40641856850E+02  0.10592238423E+03  0.00000000000E+00 0. -1.
         15    1    5    5    0    0 -0.16653389612E+03 -0.72590457917E+02 -0.20104612933E+03  0.27097161657E+03  0.17770000000E+01 0.  1.
        -15    1    5    5    0    0 -0.12072995359E+03 -0.20712825735E+01 -0.61219372099E+02  0.13539195380E+03  0.17770000000E+01 0. -1.
          2    1    6    6  503    0 -0.31998699498E+03 -0.14525923029E+03 -0.13629941717E+04  0.14075670617E+04  0.00000000000E+00 0. -1.
         -2    1    6    6    0  503 -0.28391892196E+03 -0.84343984119E+02 -0.88986642043E+03  0.93786252090E+03  0.00000000000E+00 0.  1.
<mgrwt>
<rscale>  0 0.94790581E+03</rscale>
<asrwt>0</asrwt>
<pdfrwt beam="1">  1        2 0.52132591E+00 0.94790581E+03</pdfrwt>
<pdfrwt beam="2">  1       -2 0.63784631E-01 0.94790581E+03</pdfrwt>
<totfact> 0.22994810E+00</totfact>
</mgrwt>
</event>
<event>
12    1  0.8033771E-008  0.1291333E+04  0.7818608E-02  0.9036467E-01
          1   -1    0    0  501    0  0.00000000000E+00  0.00000000000E+00  0.17993256685E+04  0.17993256685E+04  0.00000000000E+00 0. -1.
         -1   -1    0    0    0  501 -0.00000000000E+00 -0.00000000000E+00 -0.13520293115E+04  0.13520293115E+04  0.00000000000E+00 0.  1.
         23    2    1    2    0    0  0.33388099099E+03 -0.11868744849E+04  0.10796006760E+04  0.16413858404E+04  0.91990752076E+02 0.  0.
    5000000    2    1    2    0    0 -0.33388099099E+03  0.11868744849E+04 -0.63230431894E+03  0.15099691396E+04  0.60004207489E+03 0.  0.
         23    2    4    4    0    0 -0.32891770725E+03  0.25130571698E+03 -0.26856314377E+03  0.50208406208E+03  0.92848380030E+02 0.  0.
         23    2    4    4    0    0 -0.49632837398E+01  0.93556876790E+03 -0.36374117517E+03  0.10078850775E+04  0.90615303422E+02 0.  0.
          2    1    3    3  502    0  0.17897671598E+03 -0.65521564701E+03  0.53406140892E+03  0.86403807639E+03  0.00000000000E+00 0. -1.
         -2    1    3    3    0  502  0.15490427501E+03 -0.53165883787E+03  0.54553926708E+03  0.77734776402E+03  0.00000000000E+00 0.  1.
         15    1    5    5    0    0 -0.14888428174E+03  0.11583173473E+03 -0.17761765196E+03  0.25910366292E+03  0.17770000000E+01 0. -1.
        -15    1    5    5    0    0 -0.18003342552E+03  0.13547398225E+03 -0.90945491805E+02  0.24298039917E+03  0.17770000000E+01 0.  1.
          1    1    6    6  503    0  0.57211528194E+01  0.25323586017E+03 -0.14176980637E+03  0.29027540451E+03  0.00000000000E+00 0. -1.
         -1    1    6    6    0  503 -0.10684436559E+02  0.68233290773E+03 -0.22197136880E+03  0.71760967295E+03  0.00000000000E+00 0.  1.
<mgrwt>
<rscale>  0 0.12913329E+04</rscale>
<asrwt>0</asrwt>
<pdfrwt beam="1">  1        1 0.27681933E+00 0.12913329E+04</pdfrwt>
<pdfrwt beam="2">  1       -1 0.20800451E+00 0.12913329E+04</pdfrwt>
<totfact> 0.52413093E-01</totfact>
</mgrwt>
</event>
<event>
12    1  0.8033771E-008  0.5007645E+03  0.7818608E-02  0.1013580E+00
         -1   -1    0    0    0  501 -0.00000000000E+00  0.00000000000E+00  0.22408499889E+04  0.22408499889E+04  0.00000000000E+00 0.  1.
          1   -1    0    0  501    0  0.00000000000E+00 -0.00000000000E+00 -0.22836596690E+03  0.22836596690E+03  0.00000000000E+00 0. -1.
         23    2    1    2    0    0  0.18260962048E+03  0.35205939975E+03  0.15766428883E+04  0.16282048933E+04  0.89197997489E+02 0.  0.
    5000000    2    1    2    0    0 -0.18260962048E+03 -0.35205939975E+03  0.43584113367E+03  0.84101106253E+03  0.60004168109E+03 0.  0.
         23    2    4    4    0    0 -0.18494628545E+03 -0.43153313446E+03  0.10622909945E+03  0.48990023051E+03  0.91058440822E+02 0.  0.
         23    2    4    4    0    0  0.23366649754E+01  0.79473734717E+02  0.32961203423E+03  0.35111083201E+03  0.91176689652E+02 0.  0.
          1    1    3    3  502    0  0.74009052798E+02  0.23323074841E+03  0.89923743280E+03  0.93193448399E+03  0.00000000000E+00 0. -1.
         -1    1    3    3    0  502  0.10860056768E+03  0.11882865133E+03  0.67740545554E+03  0.69627040930E+03  0.00000000000E+00 0.  1.
         15    1    5    5    0    0 -0.99648963846E+02 -0.31837570185E+03  0.99042340182E+02  0.34800222184E+03  0.17770000000E+01 0. -1.
        -15    1    5    5    0    0 -0.85297321609E+02 -0.11315743261E+03  0.71867592638E+01  0.14189800868E+03  0.17770000000E+01 0.  1.
          4    1    6    6  503    0  0.40610223056E+02  0.10977913395E+02  0.12971222076E+03  0.13636335657E+03  0.00000000000E+00 0. -1.
         -4    1    6    6    0  503 -0.38273558081E+02  0.68495821322E+02  0.19989981347E+03  0.21474747545E+03  0.00000000000E+00 0.  1.
<mgrwt>
<rscale>  0 0.50076448E+03</rscale>
<asrwt>0</asrwt>
<pdfrwt beam="1">  1        1 0.35133227E-01 0.50076448E+03</pdfrwt>
<pdfrwt beam="2">  1       -1 0.34474614E+00 0.50076448E+03</pdfrwt>
<totfact> 0.23356263E+00</totfact>
</mgrwt>
</event>
<event>
12    1  0.8033771E-008  0.8424990E+03  0.7818608E-02  0.9500460E-01
          2   -1    0    0  501    0  0.00000000000E+00  0.00000000000E+00  0.25068579568E+04  0.25068579568E+04  0.00000000000E+00 0. -1.
         -2   -1    0    0    0  501 -0.00000000000E+00 -0.00000000000E+00 -0.30788520222E+03  0.30788520222E+03  0.00000000000E+00 0.  1.
         23    2    1    2    0    0  0.72080416277E+03 -0.22057273313E+03  0.72072627283E+03  0.10502560659E+04  0.12401803093E+03 0.  0.
    5000000    2    1    2    0    0 -0.72080416277E+03  0.22057273313E+03  0.14782464818E+04  0.17644870931E+04  0.59999255765E+03 0.  0.
         23    2    4    4    0    0 -0.76659734594E+03  0.11345874766E+03  0.13816991045E+04  0.15867137781E+04  0.89575778525E+02 0.  0.
         23    2    4    4    0    0  0.45793183167E+02  0.10711398546E+03  0.96547377301E+02  0.17777331502E+03  0.93335598576E+02 0.  0.
          2    1    3    3  502    0  0.31746299868E+03 -0.15546732833E+03  0.37119876425E+03  0.51258303551E+03  0.00000000000E+00 0. -1.
         -2    1    3    3    0  502  0.40334116409E+03 -0.65105404799E+02  0.34952750858E+03  0.53767303042E+03  0.00000000000E+00 0.  1.
         15    1    5    5    0    0 -0.35232581920E+03  0.25986542463E+02  0.55521134026E+03  0.65808173758E+03  0.17770000000E+01 0.  1.
        -15    1    5    5    0    0 -0.41427152674E+03  0.87472205202E+02  0.82648776421E+03  0.92863204051E+03  0.17770000000E+01 0. -1.
          4    1    6    6  503    0  0.17866484117E+02 -0.13534617362E+02  0.29186137337E+02  0.36799833349E+02  0.00000000000E+00 0. -1.
         -4    1    6    6    0  503  0.27926699049E+02  0.12064860283E+03  0.67361239964E+02  0.14097348167E+03  0.00000000000E+00 0.  1.
<mgrwt>
<rscale>  0 0.84249899E+03</rscale>
<asrwt>0</asrwt>
<pdfrwt beam="1">  1        2 0.38567044E+00 0.84249899E+03</pdfrwt>
<pdfrwt beam="2">  1       -2 0.47366956E-01 0.84249899E+03</pdfrwt>
<totfact> 0.15049831E+01</totfact>
</mgrwt>
</event>
<event>
12    1  0.8033771E-008  0.4007571E+03  0.7818608E-02  0.1043518E+00
         -2   -1    0    0    0  501 -0.00000000000E+00  0.00000000000E+00  0.17751527377E+03  0.17751527377E+03  0.00000000000E+00 0.  1.
          2   -1    0    0  501    0  0.00000000000E+00 -0.00000000000E+00 -0.12231970571E+04  0.12231970571E+04  0.00000000000E+00 0. -1.
         23    2    1    2    0    0  0.11687902530E+03  0.17488543029E+03 -0.54180884496E+03  0.58828048786E+03  0.90947719209E+02 0.  0.
    5000000    2    1    2    0    0 -0.11687902530E+03 -0.17488543029E+03 -0.50387293838E+03  0.81243184303E+03  0.60159117452E+03 0.  0.
         23    2    4    4    0    0 -0.19381416550E+03 -0.34157775609E+03 -0.21716927413E+03  0.45951383578E+03  0.98748050350E+02 0.  0.
         23    2    4    4    0    0  0.76935140199E+02  0.16669232580E+03 -0.28670366425E+03  0.35291800725E+03  0.92988071634E+02 0.  0.
          2    1    3    3  502    0  0.73116627517E+02  0.60340897666E+02 -0.14742899597E+03  0.17527799064E+03  0.00000000000E+00 0. -1.
         -2    1    3    3    0  502  0.43762397781E+02  0.11454453262E+03 -0.39437984899E+03  0.41300249721E+03  0.00000000000E+00 0.  1.
         15    1    5    5    0    0 -0.19142224687E+03 -0.30109543068E+03 -0.21940798332E+03  0.41886030589E+03  0.17770000000E+01 0. -1.
        -15    1    5    5    0    0 -0.23919186279E+01 -0.40482325405E+02  0.22387091936E+01  0.40653529894E+02  0.17770000000E+01 0.  1.
          1    1    6    6  503    0  0.62412729119E+02  0.95773461228E+02 -0.24251288048E+03  0.26810520664E+03  0.00000000000E+00 0. -1.
         -1    1    6    6    0  503  0.14522411080E+02  0.70918864573E+02 -0.44190783774E+02  0.84812800605E+02  0.00000000000E+00 0.  1.
<mgrwt>
<rscale>  0 0.40075707E+03</rscale>
<asrwt>0</asrwt>
<pdfrwt beam="1">  1        2 0.18818416E+00 0.40075707E+03</pdfrwt>
<pdfrwt beam="2">  1       -2 0.27310042E-01 0.40075707E+03</pdfrwt>
<totfact> 0.23305707E+02</totfact>
</mgrwt>
</event>
<event>
12    1  0.8033771E-008  0.1202568E+04  0.7818608E-02  0.9110612E-01
          2   -1    0    0  501    0  0.00000000000E+00  0.00000000000E+00  0.21361947514E+04  0.21361947514E+04  0.00000000000E+00 0. -1.
         -2   -1    0    0    0  501 -0.00000000000E+00 -0.00000000000E+00 -0.13764501598E+04  0.13764501598E+04  0.00000000000E+00 0.  1.
         23    2    1    2    0    0 -0.11318524961E+04 -0.30964674290E+03  0.15724432889E+04  0.19642459689E+04  0.93344262257E+02 0.  0.
    5000000    2    1    2    0    0  0.11318524961E+04  0.30964674290E+03 -0.81269869730E+03  0.15483989423E+04  0.60007410683E+03 0.  0.
         23    2    4    4    0    0  0.66771597381E+02  0.11466301673E+03  0.40829455690E+02  0.16663079431E+03  0.92155973965E+02 0.  0.
         23    2    4    4    0    0  0.10650808987E+04  0.19498372617E+03 -0.85352815299E+03  0.13817681480E+04  0.91416260285E+02 0.  0.
          3    1    3    3  502    0 -0.40090865939E+03 -0.13518851983E+03  0.50487175602E+03  0.65871023910E+03  0.00000000000E+00 0. -1.
         -3    1    3    3    0  502 -0.73094383667E+03 -0.17445822307E+03  0.10675715329E+04  0.13055357298E+04  0.00000000000E+00 0.  1.
         15    1    5    5    0    0  0.76754251952E+02  0.10860953616E+03  0.97253431894E+01  0.13336036355E+03  0.17770000000E+01 0. -1.
        -15    1    5    5    0    0 -0.99826545710E+01  0.60534805710E+01  0.31104112500E+02  0.33270430757E+02  0.17770000000E+01 0.  1.
          3    1    6    6  503    0  0.82611697009E+03  0.18504016110E+03 -0.68812976138E+03  0.10909773957E+04  0.00000000000E+00 0. -1.
         -3    1    6    6    0  503  0.23896392859E+03  0.99435650682E+01 -0.16539839161E+03  0.29079075226E+03  0.00000000000E+00 0.  1.
<mgrwt>
<rscale>  0 0.12025675E+04</rscale>
<asrwt>0</asrwt>
<pdfrwt beam="1">  1        2 0.32864535E+00 0.12025675E+04</pdfrwt>
<pdfrwt beam="2">  1       -2 0.21176156E+00 0.12025675E+04</pdfrwt>
<totfact> 0.60813131E-01</totfact>
</mgrwt>
</event>
<event>
12    1  0.8033771E-008  0.8117066E+03  0.7818608E-02  0.9543225E-01
          2   -1    0    0  501    0  0.00000000000E+00  0.00000000000E+00  0.39543391970E+04  0.39543391970E+04  0.00000000000E+00 0. -1.
         -2   -1    0    0    0  501 -0.00000000000E+00 -0.00000000000E+00 -0.18077050824E+03  0.18077050824E+03  0.00000000000E+00 0.  1.
         23    2    1    2    0    0 -0.62382490345E+03 -0.37283413759E+03  0.13744863545E+04  0.15575102653E+04  0.91992844379E+02 0.  0.
    5000000    2    1    2    0    0  0.62382490345E+03  0.37283413759E+03  0.23990823343E+04  0.25775994400E+04  0.60021664590E+03 0.  0.
         23    2    4    4    0    0 -0.73988047239E+02  0.65618803109E+02  0.70548097443E+03  0.71803151413E+03  0.89921029520E+02 0.  0.
         23    2    4    4    0    0  0.69781295069E+03  0.30721533448E+03  0.16936013599E+04  0.18595679259E+04  0.91559428079E+02 0.  0.
          2    1    3    3  502    0 -0.21646671055E+03 -0.94638086656E+02  0.38107081370E+03  0.44836276527E+03  0.00000000000E+00 0. -1.
         -2    1    3    3    0  502 -0.40735819290E+03 -0.27819605093E+03  0.99341554077E+03  0.11091475000E+04  0.00000000000E+00 0.  1.
         15    1    5    5    0    0 -0.20808303302E+01  0.54296993691E+02  0.41580731997E+03  0.41934637050E+03  0.17770000000E+01 0.  1.
        -15    1    5    5    0    0 -0.71907216908E+02  0.11321809417E+02  0.28967365445E+03  0.29868514363E+03  0.17770000000E+01 0. -1.
          4    1    6    6  503    0  0.23320188773E+03  0.14486403435E+03  0.65766267858E+03  0.71266324985E+03  0.00000000000E+00 0. -1.
         -4    1    6    6    0  503  0.46461106296E+03  0.16235130012E+03  0.10359386813E+04  0.11469046761E+04  0.00000000000E+00 0.  1.
<mgrwt>
<rscale>  0 0.81170660E+03</rscale>
<asrwt>0</asrwt>
<pdfrwt beam="1">  1        2 0.60835981E+00 0.81170660E+03</pdfrwt>
<pdfrwt beam="2">  1       -2 0.27810850E-01 0.81170660E+03</pdfrwt>
<totfact> 0.47808051E+00</totfact>
</mgrwt>
</event>
<event>
12    1  0.8033771E-008  0.7797178E+03  0.7818608E-02  0.9589848E-01
         -2   -1    0    0    0  501 -0.00000000000E+00  0.00000000000E+00  0.37094073451E+03  0.37094073451E+03  0.00000000000E+00 0.  1.
          2   -1    0    0  501    0  0.00000000000E+00 -0.00000000000E+00 -0.19354732008E+04  0.19354732008E+04  0.00000000000E+00 0. -1.
         23    2    1    2    0    0 -0.18807578139E+03 -0.67942471794E+03 -0.97213822014E+03  0.12072882917E+04  0.12450643885E+03 0.  0.
    5000000    2    1    2    0    0  0.18807578139E+03  0.67942471794E+03 -0.59239424613E+03  0.10991256436E+04  0.60012981150E+03 0.  0.
         23    2    4    4    0    0 -0.15929248732E+03  0.16486717920E+03 -0.34492426075E+03  0.42462071125E+03  0.93673472654E+02 0.  0.
         23    2    4    4    0    0  0.34736826870E+03  0.51455753875E+03 -0.24746998538E+03  0.67450493234E+03  0.91001842303E+02 0.  0.
          3    1    3    3  502    0 -0.12240117728E+03 -0.31424109743E+03 -0.55102000004E+03  0.64602829346E+03  0.00000000000E+00 0. -1.
         -3    1    3    3    0  502 -0.65674604110E+02 -0.36518362051E+03 -0.42111822010E+03  0.56125999824E+03  0.00000000000E+00 0.  1.
         15    1    5    5    0    0 -0.64394889355E+02  0.76089321726E+02 -0.23176230371E+03  0.25229587751E+03  0.17770000000E+01 0.  1.
        -15    1    5    5    0    0 -0.94897597960E+02  0.88777857470E+02 -0.11316195703E+03  0.17232483374E+03  0.17770000000E+01 0. -1.
          3    1    6    6  503    0  0.13899540323E+03  0.18116871494E+03 -0.13633153451E+03  0.26594757508E+03  0.00000000000E+00 0. -1.
         -3    1    6    6    0  503  0.20837286548E+03  0.33338882381E+03 -0.11113845087E+03  0.40855735726E+03  0.00000000000E+00 0.  1.
<mgrwt>
<rscale>  0 0.77971785E+03</rscale>
<asrwt>0</asrwt>
<pdfrwt beam="1">  1        2 0.29776511E+00 0.77971785E+03</pdfrwt>
<pdfrwt beam="2">  1       -2 0.57067806E-01 0.77971785E+03</pdfrwt>
<totfact> 0.21479094E+01</totfact>
</mgrwt>
</event>
<event>
12    1  0.8033771E-008  0.3702300E+03  0.7818608E-02  0.1054605E+00
         -1   -1    0    0    0  501 -0.00000000000E+00  0.00000000000E+00  0.28033599943E+03  0.28033599943E+03  0.00000000000E+00 0.  1.
          1   -1    0    0  501    0  0.00000000000E+00 -0.00000000000E+00 -0.53963473923E+03  0.53963473923E+03  0.00000000000E+00 0. -1.
         23    2    1    2    0    0  0.43586913075E+02 -0.12578080027E+03 -0.24914075581E+02  0.16340948579E+03  0.91440254685E+02 0.  0.
    5000000    2    1    2    0    0 -0.43586913075E+02  0.12578080027E+03 -0.23438466421E+03  0.65656125287E+03  0.59867844394E+03 0.  0.
         23    2    4    4    0    0 -0.23109230300E+03 -0.12071602748E+03 -0.17931494442E+03  0.32943661053E+03  0.91643981090E+02 0.  0.
         23    2    4    4    0    0  0.18750538992E+03  0.24649682775E+03 -0.55069719794E+02  0.32712464234E+03  0.89771377654E+02 0.  0.
          3    1    3    3  502    0  0.67751267197E+02 -0.81918545602E+02 -0.35781255504E+02  0.11216586185E+03  0.00000000000E+00 0. -1.
         -3    1    3    3    0  502 -0.24164354122E+02 -0.43862254670E+02  0.10867179923E+02  0.51243623938E+02  0.00000000000E+00 0.  1.
         15    1    5    5    0    0 -0.20584394545E+03 -0.99706315042E+02 -0.18724948886E+03  0.29559872792E+03  0.17770000000E+01 0.  1.
        -15    1    5    5    0    0 -0.25248357542E+02 -0.21009712441E+02  0.79345444366E+01  0.33837882614E+02  0.17770000000E+01 0. -1.
          4    1    6    6  503    0  0.64499214122E+02  0.25157275491E+02 -0.12240451686E+02  0.70305517493E+02  0.00000000000E+00 0. -1.
         -4    1    6    6    0  503  0.12300617580E+03  0.22133955226E+03 -0.42829268108E+02  0.25681912485E+03  0.00000000000E+00 0.  1.
<mgrwt>
<rscale>  0 0.37023000E+03</rscale>
<asrwt>0</asrwt>
<pdfrwt beam="1">  1        1 0.83020729E-01 0.37023000E+03</pdfrwt>
<pdfrwt beam="2">  1       -1 0.43128615E-01 0.37023000E+03</pdfrwt>
<totfact> 0.21935830E+02</totfact>
</mgrwt>
</event>
<event>
12    1  0.8033771E-008  0.1083835E+04  0.7818608E-02  0.9221092E-01
         -2   -1    0    0    0  501 -0.00000000000E+00  0.00000000000E+00  0.16076961521E+04  0.16076961521E+04  0.00000000000E+00 0.  1.
          2   -1    0    0  501    0  0.00000000000E+00 -0.00000000000E+00 -0.11029138576E+04  0.11029138576E+04  0.00000000000E+00 0. -1.
         23    2    1    2    0    0 -0.89177877626E+03  0.58491511848E+03 -0.44747828532E+03  0.11601089071E+04  0.90668511355E+02 0.  0.
    5000000    2    1    2    0    0  0.89177877626E+03 -0.58491511848E+03  0.95226057986E+03  0.15505011026E+04  0.59988196797E+03 0.  0.
         23    2    4    4    0    0  0.73435427255E+03 -0.54395216997E+03  0.10006835116E+04  0.13582320153E+04  0.90920603515E+02 0.  0.
         23    2    4    4    0    0  0.15742450371E+03 -0.40962948512E+02 -0.48422931768E+02  0.19226908726E+03  0.90344806578E+02 0.  0.
          2    1    3    3  502    0 -0.55015796941E+03  0.41244685501E+03 -0.28199211854E+03  0.74317276217E+03  0.00000000000E+00 0. -1.
         -2    1    3    3    0  502 -0.34162080685E+03  0.17246826347E+03 -0.16548616678E+03  0.41693614496E+03  0.00000000000E+00 0.  1.
         15    1    5    5    0    0  0.31248876766E+03 -0.28719840963E+03  0.47254597416E+03  0.63516534212E+03  0.17770000000E+01 0.  1.
        -15    1    5    5    0    0  0.42186550489E+03 -0.25675376033E+03  0.52813753746E+03  0.72306667318E+03  0.17770000000E+01 0. -1.
          4    1    6    6  503    0  0.41310820834E+01  0.15273811109E+02  0.10149556722E+02  0.18798102209E+02  0.00000000000E+00 0.  1.
         -4    1    6    6    0  503  0.15329342163E+03 -0.56236759622E+02 -0.58572488491E+02  0.17347098505E+03  0.00000000000E+00 0. -1.
<mgrwt>
<rscale>  0 0.10838352E+04</rscale>
<asrwt>0</asrwt>
<pdfrwt beam="1">  1        2 0.16967905E+00 0.10838352E+04</pdfrwt>
<pdfrwt beam="2">  1       -2 0.24733787E+00 0.10838352E+04</pdfrwt>
<totfact> 0.14277259E+00</totfact>
</mgrwt>
</event>
<event>
12    1  0.8033771E-008  0.1294590E+04  0.7818608E-02  0.9033866E-01
          2   -1    0    0  501    0  0.00000000000E+00  0.00000000000E+00  0.21716027655E+04  0.21716027655E+04  0.00000000000E+00 0. -1.
         -2   -1    0    0    0  501 -0.00000000000E+00 -0.00000000000E+00 -0.21117820312E+04  0.21117820312E+04  0.00000000000E+00 0.  1.
         23    2    1    2    0    0  0.81571205048E+03 -0.98376153542E+03  0.16941127610E+04  0.21237180658E+04  0.83591078883E+02 0.  0.
    5000000    2    1    2    0    0 -0.81571205048E+03  0.98376153542E+03 -0.16342920266E+04  0.21596667309E+04  0.60006420695E+03 0.  0.
         23    2    4    4    0    0 -0.72342472273E+03  0.93621623015E+03 -0.16374592670E+04  0.20221993025E+04  0.90404696696E+02 0.  0.
         23    2    4    4    0    0 -0.92287327755E+02  0.47545305269E+02  0.31672404060E+01  0.13746742832E+03  0.90054181026E+02 0.  0.
          4    1    3    3  502    0  0.57699731537E+03 -0.64327311100E+03  0.11767762554E+04  0.14599755315E+04  0.00000000000E+00 0. -1.
         -4    1    3    3    0  502  0.23871473511E+03 -0.34048842442E+03  0.51733650556E+03  0.66374253435E+03  0.00000000000E+00 0.  1.
         15    1    5    5    0    0 -0.24960694058E+02  0.63787110298E+02 -0.81516801990E+02  0.10648933479E+03  0.17770000000E+01 0.  1.
        -15    1    5    5    0    0 -0.69846402867E+03  0.87242911985E+03 -0.15559424650E+04  0.19157099678E+04  0.17770000000E+01 0. -1.
          4    1    6    6  503    0 -0.10285763871E+03  0.44810943271E+02  0.23277659021E+02  0.11458430908E+03  0.00000000000E+00 0. -1.
         -4    1    6    6    0  503  0.10570310957E+02  0.27343619979E+01 -0.20110418615E+02  0.22883119240E+02  0.00000000000E+00 0.  1.
<mgrwt>
<rscale>  0 0.12945903E+04</rscale>
<asrwt>0</asrwt>
<pdfrwt beam="1">  1        2 0.33409273E+00 0.12945903E+04</pdfrwt>
<pdfrwt beam="2">  1       -2 0.32488954E+00 0.12945903E+04</pdfrwt>
<totfact> 0.11554991E-01</totfact>
</mgrwt>
</event>
<event>
12    1  0.8033771E-008  0.2296943E+04  0.7818608E-02  0.8479127E-01
         -2   -1    0    0    0  501 -0.00000000000E+00  0.00000000000E+00  0.32384014837E+04  0.32384014837E+04  0.00000000000E+00 0.  1.
          2   -1    0    0  501    0  0.00000000000E+00 -0.00000000000E+00 -0.18236199639E+04  0.18236199639E+04  0.00000000000E+00 0. -1.
         23    2    1    2    0    0 -0.22478571051E+04  0.32443927416E+03 -0.85761872285E+02  0.22745894985E+04  0.90993847940E+02 0.  0.
    5000000    2    1    2    0    0  0.22478571051E+04 -0.32443927416E+03  0.15005433922E+04  0.27874319491E+04  0.60001999291E+03 0.  0.
         23    2    4    4    0    0  0.14971717195E+03 -0.12510833381E+03  0.34105180724E+02  0.21827803347E+03  0.91732272287E+02 0.  0.
         23    2    4    4    0    0  0.20981399331E+04 -0.19933094035E+03  0.14664382115E+04  0.25691539157E+04  0.90481001828E+02 0.  0.
          1    1    3    3  502    0 -0.19456565223E+04  0.30034519028E+03 -0.98479569465E+02  0.19711633016E+04  0.00000000000E+00 0. -1.
         -1    1    3    3    0  502 -0.30220058276E+03  0.24094083879E+02  0.12717697180E+02  0.30342619682E+03  0.00000000000E+00 0.  1.
         15    1    5    5    0    0 -0.71498085128E+01 -0.25800292633E+02 -0.77955261881E+01  0.27941059738E+02  0.17770000000E+01 0. -1.
        -15    1    5    5    0    0  0.15686698046E+03 -0.99308041174E+02  0.41900706912E+02  0.19033697373E+03  0.17770000000E+01 0.  1.
          2    1    6    6  503    0  0.18066079546E+04 -0.14005641497E+03  0.12581182260E+04  0.22059713442E+04  0.00000000000E+00 0. -1.
         -2    1    6    6    0  503  0.29153197856E+03 -0.59274525386E+02  0.20831998543E+03  0.36318257146E+03  0.00000000000E+00 0.  1.
<mgrwt>
<rscale>  0 0.22969431E+04</rscale>
<asrwt>0</asrwt>
<pdfrwt beam="1">  1        2 0.28055692E+00 0.22969431E+04</pdfrwt>
<pdfrwt beam="2">  1       -2 0.49821561E+00 0.22969431E+04</pdfrwt>
<totfact> 0.12112321E-02</totfact>
</mgrwt>
</event>
<event>
12    1  0.8033771E-008  0.6463665E+03  0.7818608E-02  0.9813621E-01
         -2   -1    0    0    0  501 -0.00000000000E+00  0.00000000000E+00  0.24911435455E+03  0.24911435455E+03  0.00000000000E+00 0.  1.
          2   -1    0    0  501    0  0.00000000000E+00 -0.00000000000E+00 -0.23662183333E+04  0.23662183333E+04  0.00000000000E+00 0. -1.
         23    2    1    2    0    0  0.45251912998E+03  0.42231143405E+03 -0.12207986738E+04  0.13716570575E+04  0.89292614952E+02 0.  0.
    5000000    2    1    2    0    0 -0.45251912998E+03 -0.42231143405E+03 -0.89630530490E+03  0.12436756303E+04  0.60020443476E+03 0.  0.
         23    2    4    4    0    0 -0.38161091859E+03 -0.21313968767E+03 -0.16745568300E+03  0.47669261225E+03  0.90216523756E+02 0.  0.
         23    2    4    4    0    0 -0.70908211387E+02 -0.20917174637E+03 -0.72884962190E+03  0.76698301805E+03  0.90886658634E+02 0.  0.
          1    1    3    3  502    0  0.19917314114E+03  0.22447335268E+03 -0.66550773667E+03  0.73004025491E+03  0.00000000000E+00 0. -1.
         -1    1    3    3    0  502  0.25334598883E+03  0.19783808136E+03 -0.55529093713E+03  0.64161680258E+03  0.00000000000E+00 0.  1.
         15    1    5    5    0    0 -0.16852747988E+03 -0.78882607314E+02 -0.11706127539E+03  0.21984193671E+03  0.17770000000E+01 0. -1.
        -15    1    5    5    0    0 -0.21308343871E+03 -0.13425708036E+03 -0.50394407611E+02  0.25685067554E+03  0.17770000000E+01 0.  1.
          3    1    6    6  503    0 -0.68308683813E+02 -0.84963291797E+02 -0.42398880324E+03  0.43778001611E+03  0.00000000000E+00 0. -1.
         -3    1    6    6    0  503 -0.25995275740E+01 -0.12420845458E+03 -0.30486081866E+03  0.32920300194E+03  0.00000000000E+00 0.  1.
<mgrwt>
<rscale>  0 0.64636653E+03</rscale>
<asrwt>0</asrwt>
<pdfrwt beam="1">  1        2 0.36403357E+00 0.64636653E+03</pdfrwt>
<pdfrwt beam="2">  1       -2 0.38325287E-01 0.64636653E+03</pdfrwt>
<totfact> 0.28260272E+01</totfact>
</mgrwt>
</event>
<event>
12    1  0.8033771E-008  0.1174226E+04  0.7818608E-02  0.9135720E-01
         -2   -1    0    0    0  501 -0.00000000000E+00  0.00000000000E+00  0.52900224508E+03  0.52900224508E+03  0.00000000000E+00 0.  1.
          2   -1    0    0  501    0  0.00000000000E+00 -0.00000000000E+00 -0.32136434173E+04  0.32136434173E+04  0.00000000000E+00 0. -1.
         23    2    1    2    0    0  0.40086529574E+03  0.10800820938E+04 -0.19028250008E+04  0.22265100509E+04  0.96611119630E+02 0.  0.
    5000000    2    1    2    0    0 -0.40086529574E+03 -0.10800820938E+04 -0.78181617145E+03  0.15161356115E+04  0.60013361169E+03 0.  0.
         23    2    4    4    0    0 -0.30049086793E+03 -0.43179468607E+03 -0.61982710606E+02  0.53798632970E+03  0.94053292873E+02 0.  0.
         23    2    4    4    0    0 -0.10037442781E+03 -0.64828740772E+03 -0.71983346085E+03  0.97814928181E+03  0.90907741058E+02 0.  0.
          1    1    3    3  502    0  0.79405959782E+02  0.29952211539E+03 -0.45325580678E+03  0.54905339489E+03  0.00000000000E+00 0. -1.
         -1    1    3    3    0  502  0.32145933596E+03  0.78055997840E+03 -0.14495691940E+04  0.16774566560E+04  0.00000000000E+00 0.  1.
         15    1    5    5    0    0 -0.10170910679E+03 -0.22746490182E+03 -0.22480501502E+02  0.25018703931E+03  0.17770000000E+01 0.  1.
        -15    1    5    5    0    0 -0.19878176113E+03 -0.20432978425E+03 -0.39502209105E+02  0.28779929038E+03  0.17770000000E+01 0. -1.
          3    1    6    6  503    0 -0.80581705589E+02 -0.28033955578E+03 -0.35706355017E+03  0.46106187944E+03  0.00000000000E+00 0. -1.
         -3    1    6    6    0  503 -0.19792722223E+02 -0.36794785194E+03 -0.36276991068E+03  0.51708740237E+03  0.00000000000E+00 0.  1.
<mgrwt>
<rscale>  0 0.11742263E+04</rscale>
<asrwt>0</asrwt>
<pdfrwt beam="1">  1        2 0.49440668E+00 0.11742263E+04</pdfrwt>
<pdfrwt beam="2">  1       -2 0.81384961E-01 0.11742263E+04</pdfrwt>
<totfact> 0.16905052E+00</totfact>
</mgrwt>
</event>
<event>
12    1  0.8033771E-008  0.1225371E+04  0.7818608E-02  0.9090935E-01
          2   -1    0    0  501    0  0.00000000000E+00  0.00000000000E+00  0.34934768914E+04  0.34934768914E+04  0.00000000000E+00 0. -1.
         -2   -1    0    0    0  501 -0.00000000000E+00 -0.00000000000E+00 -0.55633183532E+03  0.55633183532E+03  0.00000000000E+00 0.  1.
         23    2    1    2    0    0 -0.68130600919E+03  0.95626210248E+03  0.50135955656E+03  0.12800315855E+04  0.92219131396E+02 0.  0.
    5000000    2    1    2    0    0  0.68130600919E+03 -0.95626210248E+03  0.24357854996E+04  0.27697771412E+04  0.59999943784E+03 0.  0.
         23    2    4    4    0    0 -0.10197397955E+02 -0.32066048904E+03  0.36962671163E+03  0.49820916558E+03  0.93066269719E+02 0.  0.
         23    2    4    4    0    0  0.69150340714E+03 -0.63560161344E+03  0.20661587879E+04  0.22715679756E+04  0.94034876323E+02 0.  0.
          1    1    3    3  502    0 -0.30823285544E+03  0.51148170756E+03  0.26037638444E+03  0.65147286353E+03  0.00000000000E+00 0. -1.
         -1    1    3    3    0  502 -0.37307315375E+03  0.44478039492E+03  0.24098317212E+03  0.62855872200E+03  0.00000000000E+00 0.  1.
         15    1    5    5    0    0  0.40814543714E+02 -0.16418576248E+03  0.19731470613E+03  0.25992122376E+03  0.17770000000E+01 0.  1.
        -15    1    5    5    0    0 -0.51011941670E+02 -0.15647472656E+03  0.17231200551E+03  0.23828794182E+03  0.17770000000E+01 0. -1.
          4    1    6    6  503    0  0.91497320956E+02 -0.86758571574E+02  0.36228418845E+03  0.38359958640E+03  0.00000000000E+00 0. -1.
         -4    1    6    6    0  503  0.60000608619E+03 -0.54884304187E+03  0.17038745995E+04  0.18879683893E+04  0.00000000000E+00 0.  1.
<mgrwt>
<rscale>  0 0.12253711E+04</rscale>
<asrwt>0</asrwt>
<pdfrwt beam="1">  1        2 0.53745797E+00 0.12253711E+04</pdfrwt>
<pdfrwt beam="2">  1       -2 0.85589515E-01 0.12253711E+04</pdfrwt>
<totfact> 0.97330173E-01</totfact>
</mgrwt>
</event>
<event>
12    1  0.8033771E-008  0.6295328E+03  0.7818608E-02  0.9845961E-01
         -2   -1    0    0    0  501 -0.00000000000E+00  0.00000000000E+00  0.16468098276E+03  0.16468098276E+03  0.00000000000E+00 0.  1.
          2   -1    0    0  501    0  0.00000000000E+00 -0.00000000000E+00 -0.38051932026E+04  0.38051932026E+04  0.00000000000E+00 0. -1.
         23    2    1    2    0    0  0.48197864737E+03  0.26123477186E+03 -0.57647583644E+03  0.79986189233E+03  0.83112178752E+02 0.  0.
    5000000    2    1    2    0    0 -0.48197864737E+03 -0.26123477186E+03 -0.30640363834E+04  0.31700122930E+04  0.60009328996E+03 0.  0.
         23    2    4    4    0    0  0.37201517358E+02 -0.14967828665E+03 -0.15950936469E+04  0.16051319201E+04  0.91308248639E+02 0.  0.
         23    2    4    4    0    0 -0.51918016473E+03 -0.11155648520E+03 -0.14689427366E+04  0.15648803730E+04  0.95209902557E+02 0.  0.
          1    1    3    3  502    0  0.35120858843E+03  0.21754691718E+03 -0.46928041278E+03  0.62521855346E+03  0.00000000000E+00 0. -1.
         -1    1    3    3    0  502  0.13077005894E+03  0.43687854680E+02 -0.10719542366E+03  0.17464333888E+03  0.00000000000E+00 0.  1.
         15    1    5    5    0    0  0.63815467552E+02 -0.84318048095E+02 -0.10920410563E+04  0.10971502967E+04  0.17770000000E+01 0. -1.
        -15    1    5    5    0    0 -0.26613950194E+02 -0.65360238556E+02 -0.50305259052E+03  0.50798162338E+03  0.17770000000E+01 0.  1.
          3    1    6    6  503    0 -0.17508843948E+03 -0.50676280885E+02 -0.38424126061E+03  0.42528272177E+03  0.00000000000E+00 0. -1.
         -3    1    6    6    0  503 -0.34409172525E+03 -0.60880204320E+02 -0.10847014759E+04  0.11395976512E+04  0.00000000000E+00 0.  1.
<mgrwt>
<rscale>  0 0.62953281E+03</rscale>
<asrwt>0</asrwt>
<pdfrwt beam="1">  1        2 0.58541435E+00 0.62953281E+03</pdfrwt>
<pdfrwt beam="2">  1       -2 0.25335535E-01 0.62953281E+03</pdfrwt>
<totfact> 0.76509489E+00</totfact>
</mgrwt>
</event>
<event>
12    1  0.8033771E-008  0.4601611E+03  0.7818608E-02  0.1024735E+00
          1   -1    0    0  501    0  0.00000000000E+00  0.00000000000E+00  0.16684011699E+04  0.16684011699E+04  0.00000000000E+00 0. -1.
         -1   -1    0    0    0  501 -0.00000000000E+00 -0.00000000000E+00 -0.27863042038E+03  0.27863042038E+03  0.00000000000E+00 0.  1.
         23    2    1    2    0    0 -0.21121256252E+03  0.37240150977E+03  0.81288104406E+02  0.44512861719E+03  0.90763973434E+02 0.  0.
    5000000    2    1    2    0    0  0.21121256252E+03 -0.37240150977E+03  0.13084826451E+04  0.15019029731E+04  0.60024334811E+03 0.  0.
         23    2    4    4    0    0 -0.15353292717E+02 -0.16936180182E+03  0.43810846867E+02  0.19798867060E+03  0.91438393849E+02 0.  0.
         23    2    4    4    0    0  0.22656585524E+03 -0.20303970795E+03  0.12646717982E+04  0.13039143025E+04  0.90777426599E+02 0.  0.
          4    1    3    3  502    0 -0.20328356992E+03  0.28685053861E+03  0.69895624079E+02  0.35845897891E+03  0.00000000000E+00 0. -1.
         -4    1    3    3    0  502 -0.79289926074E+01  0.85550971161E+02  0.11392480327E+02  0.86669638273E+02  0.00000000000E+00 0.  1.
         15    1    5    5    0    0 -0.24014095873E+02 -0.34357904654E+02 -0.22181836070E+02  0.47458760975E+02  0.17770000000E+01 0. -1.
        -15    1    5    5    0    0  0.86608031567E+01 -0.13500389717E+03  0.65992682937E+02  0.15052990963E+03  0.17770000000E+01 0.  1.
          3    1    6    6  503    0  0.12054449807E+03 -0.12704588051E+03  0.89313554127E+03  0.91014434397E+03  0.00000000000E+00 0. -1.
         -3    1    6    6    0  503  0.10602135717E+03 -0.75993827439E+02  0.37153625696E+03  0.39376995850E+03  0.00000000000E+00 0.  1.
<mgrwt>
<rscale>  0 0.46016107E+03</rscale>
<asrwt>0</asrwt>
<pdfrwt beam="1">  1        1 0.25667710E+00 0.46016107E+03</pdfrwt>
<pdfrwt beam="2">  1       -1 0.42866220E-01 0.46016107E+03</pdfrwt>
<totfact> 0.29109426E+01</totfact>
</mgrwt>
</event>
<event>
12    1  0.8033771E-008  0.1132830E+04  0.7818608E-02  0.9173771E-01
          2   -1    0    0  501    0  0.00000000000E+00  0.00000000000E+00  0.21649927974E+04  0.21649927974E+04  0.00000000000E+00 0. -1.
         -2   -1    0    0    0  501 -0.00000000000E+00 -0.00000000000E+00 -0.70401137168E+03  0.70401137168E+03  0.00000000000E+00 0.  1.
         23    2    1    2    0    0 -0.10999635338E+04 -0.18740049222E+03  0.10554606250E+04  0.15387285162E+04  0.93003201338E+02 0.  0.
    5000000    2    1    2    0    0  0.10999635338E+04  0.18740049222E+03  0.40552080075E+03  0.13302756529E+04  0.60012288135E+03 0.  0.
         23    2    4    4    0    0  0.58802335179E+03  0.22359313172E+03 -0.50842843682E+02  0.63785002437E+03  0.92207960814E+02 0.  0.
         23    2    4    4    0    0  0.51194018201E+03 -0.36192639502E+02  0.45636364443E+03  0.69242562854E+03  0.88276939166E+02 0.  0.
          4    1    3    3  502    0 -0.84666548873E+03 -0.11035251189E+03  0.83407361452E+03  0.11936075239E+04  0.00000000000E+00 0.  1.
         -4    1    3    3    0  502 -0.25329804507E+03 -0.77047980336E+02  0.22138701045E+03  0.34512099227E+03  0.00000000000E+00 0. -1.
         15    1    5    5    0    0  0.34525280345E+03  0.15292363150E+03 -0.70881776393E+02  0.38420374714E+03  0.17770000000E+01 0. -1.
        -15    1    5    5    0    0  0.24277054833E+03  0.70669500222E+02  0.20038932711E+02  0.25364627723E+03  0.17770000000E+01 0.  1.
          3    1    6    6  503    0  0.42216474774E+03 -0.52343390909E+02  0.40686470524E+03  0.58864402926E+03  0.00000000000E+00 0. -1.
         -3    1    6    6    0  503  0.89775434267E+02  0.16150751408E+02  0.49498939196E+02  0.10378159929E+03  0.00000000000E+00 0.  1.
<mgrwt>
<rscale>  0 0.11328300E+04</rscale>
<asrwt>0</asrwt>
<pdfrwt beam="1">  1        2 0.33307581E+00 0.11328300E+04</pdfrwt>
<pdfrwt beam="2">  1       -2 0.10830944E+00 0.11328300E+04</pdfrwt>
<totfact> 0.36348775E+00</totfact>
</mgrwt>
</event>
<event>
12    1  0.8033771E-008  0.1099953E+04  0.7818608E-02  0.9205238E-01
          1   -1    0    0  501    0  0.00000000000E+00  0.00000000000E+00  0.69719318764E+03  0.69719318764E+03  0.00000000000E+00 0. -1.
         -1   -1    0    0    0  501 -0.00000000000E+00 -0.00000000000E+00 -0.20194707866E+04  0.20194707866E+04  0.00000000000E+00 0.  1.
         23    2    1    2    0    0 -0.10511447437E+04  0.12878429210E+03 -0.24206404172E+03  0.10893025192E+04  0.80587294245E+02 0.  0.
    5000000    2    1    2    0    0  0.10511447437E+04 -0.12878429210E+03 -0.10802135573E+04  0.16273614551E+04  0.59996109053E+03 0.  0.
         23    2    4    4    0    0  0.48358063279E+03  0.14005623690E+03 -0.21671900126E+03  0.55569322278E+03  0.91443176020E+02 0.  0.
         23    2    4    4    0    0  0.56756411088E+03 -0.26884052899E+03 -0.86349455601E+03  0.10716682323E+04  0.91900499871E+02 0.  0.
          4    1    3    3  502    0 -0.42759858598E+03  0.91155742966E+02 -0.10951146634E+03  0.45071352483E+03  0.00000000000E+00 0. -1.
         -4    1    3    3    0  502 -0.62354615768E+03  0.37628549132E+02 -0.13255257538E+03  0.63858899435E+03  0.00000000000E+00 0.  1.
         15    1    5    5    0    0  0.30395472274E+03  0.53014735065E+02 -0.99432366872E+02  0.32417431873E+03  0.17770000000E+01 0. -1.
        -15    1    5    5    0    0  0.17962591004E+03  0.87041501831E+02 -0.11728663439E+03  0.23151890406E+03  0.17770000000E+01 0.  1.
          2    1    6    6  503    0  0.36660053308E+03 -0.19883263372E+03 -0.50704219881E+03  0.65652277833E+03  0.00000000000E+00 0. -1.
         -2    1    6    6    0  503  0.20096357780E+03 -0.70007895269E+02 -0.35645235720E+03  0.41514545398E+03  0.00000000000E+00 0.  1.
<mgrwt>
<rscale>  0 0.10999529E+04</rscale>
<asrwt>0</asrwt>
<pdfrwt beam="1">  1        1 0.10726049E+00 0.10999529E+04</pdfrwt>
<pdfrwt beam="2">  1       -1 0.31068781E+00 0.10999529E+04</pdfrwt>
<totfact> 0.77255772E-01</totfact>
</mgrwt>
</event>
<event>
12    1  0.8033771E-008  0.2623898E+04  0.7818608E-02  0.8360129E-01
         -1   -1    0    0    0  501 -0.00000000000E+00  0.00000000000E+00  0.30755186227E+04  0.30755186227E+04  0.00000000000E+00 0.  1.
          1   -1    0    0  501    0  0.00000000000E+00 -0.00000000000E+00 -0.30774940990E+04  0.30774940990E+04  0.00000000000E+00 0. -1.
         23    2    1    2    0    0  0.39932849329E+03  0.25597917146E+04  0.16018789868E+04  0.30475439786E+04  0.97525101660E+02 0.  0.
    5000000    2    1    2    0    0 -0.39932849329E+03 -0.25597917146E+04 -0.16038544631E+04  0.31054687431E+04  0.59965832549E+03 0.  0.
         23    2    4    4    0    0 -0.42686447038E+03 -0.93977378659E+03 -0.60617104522E+03  0.12003630222E+04  0.89666063190E+02 0.  0.
         23    2    4    4    0    0  0.27535977093E+02 -0.16200179280E+04 -0.99768341791E+03  0.19051057209E+04  0.94017488604E+02 0.  0.
          2    1    3    3  502    0  0.15797735300E+03  0.11930955799E+04  0.79092673562E+03  0.14401385377E+04  0.00000000000E+00 0. -1.
         -2    1    3    3    0  502  0.24135114029E+03  0.13666961348E+04  0.81095225117E+03  0.16074054409E+04  0.00000000000E+00 0.  1.
         15    1    5    5    0    0 -0.83369588769E+02 -0.25952352034E+03 -0.13246417624E+03  0.30307237033E+03  0.17770000000E+01 0.  1.
        -15    1    5    5    0    0 -0.34349488162E+03 -0.68025026624E+03 -0.47370686898E+03  0.89729065183E+03  0.17770000000E+01 0. -1.
          2    1    6    6  503    0  0.51618664196E+02 -0.11573727492E+04 -0.67952846925E+03  0.13431065139E+04  0.00000000000E+00 0.  1.
         -2    1    6    6    0  503 -0.24082687103E+02 -0.46264517880E+03 -0.31815494867E+03  0.56199920698E+03  0.00000000000E+00 0. -1.
<mgrwt>
<rscale>  0 0.26238982E+04</rscale>
<asrwt>0</asrwt>
<pdfrwt beam="1">  1        1 0.47346063E+00 0.26238982E+04</pdfrwt>
<pdfrwt beam="2">  1       -1 0.47315671E+00 0.26238982E+04</pdfrwt>
<totfact> 0.96191039E-04</totfact>
</mgrwt>
</event>
<event>
12    1  0.8033771E-008  0.8558101E+03  0.7818608E-02  0.9482572E-01
          1   -1    0    0  501    0  0.00000000000E+00  0.00000000000E+00  0.81007282824E+03  0.81007282824E+03  0.00000000000E+00 0. -1.
         -1   -1    0    0    0  501 -0.00000000000E+00 -0.00000000000E+00 -0.10769148673E+04  0.10769148673E+04  0.00000000000E+00 0.  1.
         23    2    1    2    0    0 -0.53036861238E+03  0.64385675709E+03 -0.85760985532E+02  0.84356482399E+03  0.91674843738E+02 0.  0.
    5000000    2    1    2    0    0  0.53036861238E+03 -0.64385675709E+03 -0.18108105351E+03  0.10434228715E+04  0.60008212126E+03 0.  0.
         23    2    4    4    0    0  0.17136437001E+03 -0.85421182097E+02 -0.29677766728E+03  0.36383591843E+03  0.87390308868E+02 0.  0.
         23    2    4    4    0    0  0.35900424238E+03 -0.55843557499E+03  0.11569661377E+03  0.67958695311E+03  0.87854327909E+02 0.  0.
          3    1    3    3  502    0 -0.32501253932E+02  0.82093835096E+02 -0.25036132598E+01  0.88328915691E+02  0.00000000000E+00 0. -1.
         -3    1    3    3    0  502 -0.49786735845E+03  0.56176292199E+03 -0.83257372272E+02  0.75523590830E+03  0.00000000000E+00 0.  1.
         15    1    5    5    0    0  0.17615617142E+03 -0.91587482468E+02 -0.29506107062E+03  0.35564512762E+03  0.17770000000E+01 0. -1.
        -15    1    5    5    0    0 -0.47918014128E+01  0.61663003709E+01 -0.17165966633E+01  0.81907908134E+01  0.17770000000E+01 0.  1.
          3    1    6    6  503    0  0.27356971930E+03 -0.37924018458E+03  0.49056970800E+02  0.47018091763E+03  0.00000000000E+00 0. -1.
         -3    1    6    6    0  503  0.85434523072E+02 -0.17919539042E+03  0.66639642974E+02  0.20940603548E+03  0.00000000000E+00 0.  1.
<mgrwt>
<rscale>  0 0.85581009E+03</rscale>
<asrwt>0</asrwt>
<pdfrwt beam="1">  1        1 0.12462659E+00 0.85581009E+03</pdfrwt>
<pdfrwt beam="2">  1       -1 0.16567921E+00 0.85581009E+03</pdfrwt>
<totfact> 0.58524460E+00</totfact>
</mgrwt>
</event>
<event>
12    1  0.8033771E-008  0.8139380E+03  0.7818608E-02  0.9540059E-01
          2   -1    0    0  501    0  0.00000000000E+00  0.00000000000E+00  0.12257550953E+04  0.12257550953E+04  0.00000000000E+00 0. -1.
         -2   -1    0    0    0  501 -0.00000000000E+00 -0.00000000000E+00 -0.63747101928E+03  0.63747101928E+03  0.00000000000E+00 0.  1.
         23    2    1    2    0    0  0.41640686918E+03 -0.60116377436E+03 -0.21577892045E+02  0.73764104479E+03  0.94107073228E+02 0.  0.
    5000000    2    1    2    0    0 -0.41640686918E+03  0.60116377436E+03  0.60986196808E+03  0.11255850698E+04  0.60018127675E+03 0.  0.
         23    2    4    4    0    0 -0.46847224672E+03  0.62505334935E+03  0.39257871178E+03  0.87890810547E+03  0.90573050238E+02 0.  0.
         23    2    4    4    0    0  0.52065377538E+02 -0.23889574997E+02  0.21728325630E+03  0.24667696434E+03  0.10176441389E+03 0.  0.
          4    1    3    3  502    0  0.24725331060E+03 -0.41954138284E+03  0.12374162466E+02  0.48713683028E+03  0.00000000000E+00 0. -1.
         -4    1    3    3    0  502  0.16915355859E+03 -0.18162239152E+03 -0.33952054511E+02  0.25050421451E+03  0.00000000000E+00 0.  1.
         15    1    5    5    0    0 -0.43065563240E+03  0.54259364932E+03  0.37024033212E+03  0.78546368678E+03  0.17770000000E+01 0.  1.
        -15    1    5    5    0    0 -0.37816614322E+02  0.82459700038E+02  0.22338379665E+02  0.93444418689E+02  0.17770000000E+01 0. -1.
          3    1    6    6  503    0  0.77528854231E+02 -0.52973844820E+01  0.18887984877E+03  0.20424099195E+03  0.00000000000E+00 0. -1.
         -3    1    6    6    0  503 -0.25463476693E+02 -0.18592190515E+02  0.28403407534E+02  0.42435972393E+02  0.00000000000E+00 0.  1.
<mgrwt>
<rscale>  0 0.81393804E+03</rscale>
<asrwt>0</asrwt>
<pdfrwt beam="1">  1        2 0.18857771E+00 0.81393804E+03</pdfrwt>
<pdfrwt beam="2">  1       -2 0.98072465E-01 0.81393804E+03</pdfrwt>
<totfact> 0.16008458E+01</totfact>
</mgrwt>
</event>
<event>
12    1  0.8033771E-008  0.5769070E+03  0.7818608E-02  0.9954510E-01
         -2   -1    0    0    0  501 -0.00000000000E+00  0.00000000000E+00  0.95143094056E+03  0.95143094056E+03  0.00000000000E+00 0.  1.
          2   -1    0    0  501    0  0.00000000000E+00 -0.00000000000E+00 -0.50330109403E+03  0.50330109403E+03  0.00000000000E+00 0. -1.
         23    2    1    2    0    0  0.41321534776E+03  0.29629694450E+03 -0.57518303373E+02  0.51969728288E+03  0.90764021823E+02 0.  0.
    5000000    2    1    2    0    0 -0.41321534776E+03 -0.29629694450E+03  0.50564814990E+03  0.93503475172E+03  0.60005927413E+03 0.  0.
         23    2    4    4    0    0 -0.44388631623E+02 -0.25185382643E+03  0.47886306091E+03  0.55130810056E+03  0.96073358086E+02 0.  0.
         23    2    4    4    0    0 -0.36882671614E+03 -0.44443118069E+02  0.26785088991E+02  0.38372665116E+03  0.92305820687E+02 0.  0.
          3    1    3    3  502    0  0.20745147235E+03  0.96271102773E+02 -0.40221506463E+02  0.23221112848E+03  0.00000000000E+00 0. -1.
         -3    1    3    3    0  502  0.20576387542E+03  0.20002584173E+03 -0.17296796910E+02  0.28748615439E+03  0.00000000000E+00 0.  1.
         15    1    5    5    0    0 -0.44177677930E+02 -0.25552725848E+03  0.42907417686E+03  0.50135182659E+03  0.17770000000E+01 0. -1.
        -15    1    5    5    0    0 -0.21095369248E+00  0.36734320477E+01  0.49788884055E+02  0.49956273970E+02  0.17770000000E+01 0.  1.
          1    1    6    6  503    0 -0.25748383008E+03 -0.53651864837E+02 -0.17387272109E+02  0.26358824440E+03  0.00000000000E+00 0. -1.
         -1    1    6    6    0  503 -0.11134288606E+03  0.92087467682E+01  0.44172361101E+02  0.12013840676E+03  0.00000000000E+00 0.  1.
<mgrwt>
<rscale>  0 0.57690700E+03</rscale>
<asrwt>0</asrwt>
<pdfrwt beam="1">  1        2 0.77430938E-01 0.57690700E+03</pdfrwt>
<pdfrwt beam="2">  1       -2 0.14637399E+00 0.57690700E+03</pdfrwt>
<totfact> 0.20137996E+01</totfact>
</mgrwt>
</event>
<event>
12    1  0.8033771E-008  0.4460219E+03  0.7818608E-02  0.1028915E+00
         -2   -1    0    0    0  501 -0.00000000000E+00  0.00000000000E+00  0.11570734667E+03  0.11570734667E+03  0.00000000000E+00 0.  1.
          2   -1    0    0  501    0  0.00000000000E+00 -0.00000000000E+00 -0.28161561766E+04  0.28161561766E+04  0.00000000000E+00 0. -1.
         23    2    1    2    0    0  0.17658048499E+03  0.36472628610E+03 -0.10198411728E+04  0.11019085158E+04  0.99601345523E+02 0.  0.
    5000000    2    1    2    0    0 -0.17658048499E+03 -0.36472628610E+03 -0.16806076571E+04  0.18299550074E+04  0.60007274611E+03 0.  0.
         23    2    4    4    0    0 -0.23291759853E+03 -0.29248398812E+03 -0.44856692202E+03  0.59119363646E+03  0.92196210600E+02 0.  0.
         23    2    4    4    0    0  0.56337113540E+02 -0.72242297981E+02 -0.12320407350E+04  0.12387613709E+04  0.90623072721E+02 0.  0.
          1    1    3    3  502    0  0.17645339107E+03  0.31119711248E+03 -0.81252092655E+03  0.88778921942E+03  0.00000000000E+00 0. -1.
         -1    1    3    3    0  502  0.12709391557E+00  0.53529173617E+02 -0.20732024629E+03  0.21411929643E+03  0.00000000000E+00 0.  1.
         15    1    5    5    0    0 -0.12062201092E+02 -0.14843962746E+02  0.99463231750E-01  0.19209569155E+02  0.17770000000E+01 0. -1.
        -15    1    5    5    0    0 -0.22085539744E+03 -0.27764002537E+03 -0.44866638525E+03  0.57198406730E+03  0.17770000000E+01 0.  1.
          3    1    6    6  503    0  0.67463656859E+02 -0.63369110188E+02 -0.65105916244E+03  0.65760552166E+03  0.00000000000E+00 0. -1.
         -3    1    6    6    0  503 -0.11126543319E+02 -0.88731877922E+01 -0.58098157261E+03  0.58115584927E+03  0.00000000000E+00 0.  1.
<mgrwt>
<rscale>  0 0.44602188E+03</rscale>
<asrwt>0</asrwt>
<pdfrwt beam="1">  1        2 0.43325475E+00 0.44602188E+03</pdfrwt>
<pdfrwt beam="2">  1       -2 0.17801132E-01 0.44602188E+03</pdfrwt>
<totfact> 0.65389789E+01</totfact>
</mgrwt>
</event>
<event>
12    1  0.8033771E-008  0.1112189E+04  0.7818608E-02  0.9193393E-01
          2   -1    0    0  501    0  0.00000000000E+00  0.00000000000E+00  0.22420696454E+04  0.22420696454E+04  0.00000000000E+00 0. -1.
         -2   -1    0    0    0  501 -0.00000000000E+00 -0.00000000000E+00 -0.61841020982E+03  0.61841020982E+03  0.00000000000E+00 0.  1.
         23    2    1    2    0    0  0.10341163635E+04 -0.39838125838E+02  0.12087699342E+04  0.15939171089E+04  0.91996014261E+02 0.  0.
    5000000    2    1    2    0    0 -0.10341163635E+04  0.39838125838E+02  0.41488950137E+03  0.12665627464E+04  0.60088614786E+03 0.  0.
         23    2    4    4    0    0 -0.11588929438E+02  0.13309277810E+03  0.88458959702E+02  0.18526764116E+03  0.93011399533E+02 0.  0.
         23    2    4    4    0    0 -0.10225274340E+04 -0.93254652259E+02  0.32643054166E+03  0.10812951052E+04  0.91561031594E+02 0.  0.
          1    1    3    3  502    0  0.18135835518E+03  0.15475571553E+01  0.26685575991E+03  0.32265344338E+03  0.00000000000E+00 0. -1.
         -1    1    3    3    0  502  0.85275800827E+03 -0.41385682993E+02  0.94191417429E+03  0.12712636655E+04  0.00000000000E+00 0.  1.
         15    1    5    5    0    0 -0.51829662107E+02  0.67664850790E+02  0.37937204966E+02  0.93312566979E+02  0.17770000000E+01 0.  1.
        -15    1    5    5    0    0  0.40240732669E+02  0.65427927307E+02  0.50521754736E+02  0.91955074183E+02  0.17770000000E+01 0. -1.
          3    1    6    6  503    0 -0.77331068981E+03 -0.82778517007E+02  0.20736893199E+03  0.80489973276E+03  0.00000000000E+00 0. -1.
         -3    1    6    6    0  503 -0.24921674421E+03 -0.10476135253E+02  0.11906160968E+03  0.27639537243E+03  0.00000000000E+00 0.  1.
<mgrwt>
<rscale>  0 0.11121887E+04</rscale>
<asrwt>0</asrwt>
<pdfrwt beam="1">  1        2 0.34493379E+00 0.11121887E+04</pdfrwt>
<pdfrwt beam="2">  1       -2 0.95140033E-01 0.11121887E+04</pdfrwt>
<totfact> 0.44999702E+00</totfact>
</mgrwt>
</event>
<event>
12    1  0.8033771E-008  0.5414787E+03  0.7818608E-02  0.1003486E+00
         -1   -1    0    0    0  501 -0.00000000000E+00  0.00000000000E+00  0.14586522376E+04  0.14586522376E+04  0.00000000000E+00 0.  1.
          1   -1    0    0  501    0  0.00000000000E+00 -0.00000000000E+00 -0.26119397703E+03  0.26119397703E+03  0.00000000000E+00 0. -1.
         23    2    1    2    0    0 -0.39747348428E+03  0.17711858118E+03  0.22829593388E+03  0.49969479954E+03  0.90662543295E+02 0.  0.
    5000000    2    1    2    0    0  0.39747348428E+03 -0.17711858118E+03  0.96916232672E+03  0.12201514151E+04  0.60011473717E+03 0.  0.
         23    2    4    4    0    0  0.47681262510E+03 -0.19570850449E+03  0.95356515718E+03  0.10879114202E+04  0.92804370185E+02 0.  0.
         23    2    4    4    0    0 -0.79339140816E+02  0.18589923311E+02  0.15597169538E+02  0.13223999487E+03  0.10297504568E+03 0.  0.
          3    1    3    3  502    0 -0.15314760651E+03  0.22216611837E+02  0.68889379115E+02  0.16939159890E+03  0.00000000000E+00 0. -1.
         -3    1    3    3    0  502 -0.24432587777E+03  0.15490196934E+03  0.15940655477E+03  0.33030320065E+03  0.00000000000E+00 0.  1.
         15    1    5    5    0    0  0.85932367514E+02 -0.10477928304E+02  0.21835585797E+03  0.23489699276E+03  0.17770000000E+01 0. -1.
        -15    1    5    5    0    0  0.39088025758E+03 -0.18523057619E+03  0.73520929921E+03  0.85301442748E+03  0.17770000000E+01 0.  1.
          4    1    6    6  503    0 -0.69966757496E+02  0.50649081673E+02 -0.14133304368E+02  0.87523864867E+02  0.00000000000E+00 0. -1.
         -4    1    6    6    0  503 -0.93723833199E+01 -0.32059158362E+02  0.29730473906E+02  0.44716130006E+02  0.00000000000E+00 0.  1.
<mgrwt>
<rscale>  0 0.54147871E+03</rscale>
<asrwt>0</asrwt>
<pdfrwt beam="1">  1        1 0.40183689E-01 0.54147871E+03</pdfrwt>
<pdfrwt beam="2">  1       -1 0.22440803E+00 0.54147871E+03</pdfrwt>
<totfact> 0.11468115E+01</totfact>
</mgrwt>
</event>
<event>
12    1  0.8033771E-008  0.4953713E+03  0.7818608E-02  0.1014994E+00
         -2   -1    0    0    0  501 -0.00000000000E+00  0.00000000000E+00  0.19186539909E+03  0.19186539909E+03  0.00000000000E+00 0.  1.
          2   -1    0    0  501    0  0.00000000000E+00 -0.00000000000E+00 -0.24037047309E+04  0.24037047309E+04  0.00000000000E+00 0. -1.
         23    2    1    2    0    0  0.22810749794E+03 -0.22697163090E+03 -0.17284766758E+04  0.17605280620E+04  0.90985089421E+02 0.  0.
    5000000    2    1    2    0    0 -0.22810749794E+03  0.22697163090E+03 -0.48336265603E+03  0.83504206799E+03  0.60008886527E+03 0.  0.
         23    2    4    4    0    0 -0.39285386842E+03  0.26711418645E+03 -0.30467394976E+03  0.57224383598E+03  0.94618399963E+02 0.  0.
         23    2    4    4    0    0  0.16474637048E+03 -0.40142555558E+02 -0.17868870627E+03  0.26279823201E+03  0.91544883245E+02 0.  0.
          4    1    3    3  502    0  0.14146927522E+03 -0.18956533730E+03 -0.11127789051E+04  0.11376403055E+04  0.00000000000E+00 0. -1.
         -4    1    3    3    0  502  0.86638222720E+02 -0.37406293601E+02 -0.61569777067E+03  0.62288775654E+03  0.00000000000E+00 0.  1.
         15    1    5    5    0    0 -0.35214350065E+03  0.26160981865E+03 -0.29862201517E+03  0.53068164462E+03  0.17770000000E+01 0.  1.
        -15    1    5    5    0    0 -0.40710367775E+02  0.55043678004E+01 -0.60519345968E+01  0.41562191360E+02  0.17770000000E+01 0. -1.
          1    1    6    6  503    0  0.11930282559E+03 -0.56143701725E+02 -0.83380903392E+02  0.15600530275E+03  0.00000000000E+00 0. -1.
         -1    1    6    6    0  503  0.45443544893E+02  0.16001146167E+02 -0.95307802873E+02  0.10679292926E+03  0.00000000000E+00 0.  1.
<mgrwt>
<rscale>  0 0.49537132E+03</rscale>
<asrwt>0</asrwt>
<pdfrwt beam="1">  1        2 0.36980072E+00 0.49537132E+03</pdfrwt>
<pdfrwt beam="2">  1       -2 0.29517755E-01 0.49537132E+03</pdfrwt>
<totfact> 0.45291574E+01</totfact>
</mgrwt>
</event>
<event>
12    1  0.8033771E-008  0.9985082E+03  0.7818608E-02  0.9310183E-01
         -2   -1    0    0    0  501 -0.00000000000E+00  0.00000000000E+00  0.26972294813E+04  0.26972294813E+04  0.00000000000E+00 0.  1.
          2   -1    0    0  501    0  0.00000000000E+00 -0.00000000000E+00 -0.48058880143E+03  0.48058880143E+03  0.00000000000E+00 0. -1.
         23    2    1    2    0    0 -0.96767797108E+03  0.85694980335E+02  0.45038964233E+03  0.10746404529E+04  0.90867968390E+02 0.  0.
    5000000    2    1    2    0    0  0.96767797108E+03 -0.85694980335E+02  0.17662510375E+04  0.21031778298E+04  0.59997497526E+03 0.  0.
         23    2    4    4    0    0  0.18736615361E+03 -0.11124991401E+03  0.91382256402E+03  0.94389859449E+03  0.91598358520E+02 0.  0.
         23    2    4    4    0    0  0.78031181747E+03  0.25554933677E+02  0.85242847349E+03  0.11592792353E+04  0.88059388536E+02 0.  0.
          1    1    3    3  502    0 -0.39374273849E+03  0.79171148921E+02  0.19335280106E+03  0.44574288622E+03  0.00000000000E+00 0. -1.
         -1    1    3    3    0  502 -0.57393523260E+03  0.65238314137E+01  0.25703684127E+03  0.62889756667E+03  0.00000000000E+00 0.  1.
         15    1    5    5    0    0  0.19695976600E+03 -0.98239406259E+02  0.85241196725E+03  0.88037120012E+03  0.17770000000E+01 0.  1.
        -15    1    5    5    0    0 -0.95936123886E+01 -0.13010507752E+02  0.61410596769E+02  0.63527394367E+02  0.17770000000E+01 0. -1.
          2    1    6    6  503    0  0.24465834571E+03  0.46276738531E+02  0.29222034208E+03  0.38391661983E+03  0.00000000000E+00 0. -1.
         -2    1    6    6    0  503  0.53565347176E+03 -0.20721804854E+02  0.56020813141E+03  0.77536261549E+03  0.00000000000E+00 0.  1.
<mgrwt>
<rscale>  0 0.99850816E+03</rscale>
<asrwt>0</asrwt>
<pdfrwt beam="1">  1        2 0.73936740E-01 0.99850816E+03</pdfrwt>
<pdfrwt beam="2">  1       -2 0.41495837E+00 0.99850816E+03</pdfrwt>
<totfact> 0.38989587E-01</totfact>
</mgrwt>
</event>
<event>
12    1  0.8033771E-008  0.5902985E+03  0.7818608E-02  0.9925741E-01
          2   -1    0    0  501    0  0.00000000000E+00  0.00000000000E+00  0.25142378477E+04  0.25142378477E+04  0.00000000000E+00 0. -1.
         -2   -1    0    0    0  501 -0.00000000000E+00 -0.00000000000E+00 -0.69560347367E+03  0.69560347367E+03  0.00000000000E+00 0.  1.
         23    2    1    2    0    0 -0.53928648064E+03 -0.11968130798E+03  0.22282030970E+04  0.22970764455E+04  0.80731847997E+02 0.  0.
    5000000    2    1    2    0    0  0.53928648064E+03  0.11968130798E+03 -0.40956872297E+03  0.91276487587E+03  0.60019968019E+03 0.  0.
         23    2    4    4    0    0  0.46693355569E+03  0.19096487669E+03 -0.52509880907E+03  0.73390779520E+03  0.91637126854E+02 0.  0.
         23    2    4    4    0    0  0.72352924953E+02 -0.71283568701E+02  0.11553008610E+03  0.17885708067E+03  0.91248899152E+02 0.  0.
          1    1    3    3  502    0 -0.34321410613E+03 -0.36938032383E+02  0.14123785874E+04  0.14539510360E+04  0.00000000000E+00 0. -1.
         -1    1    3    3    0  502 -0.19607237451E+03 -0.82743275602E+02  0.81582450963E+03  0.84312540954E+03  0.00000000000E+00 0.  1.
         15    1    5    5    0    0  0.10235373031E+03  0.82556599408E+02 -0.15389974567E+03  0.20243558892E+03  0.17770000000E+01 0. -1.
        -15    1    5    5    0    0  0.36457982538E+03  0.10840827728E+03 -0.37119906339E+03  0.53147220628E+03  0.17770000000E+01 0.  1.
          2    1    6    6  503    0  0.48644988911E+01  0.62512021794E+01  0.62858241476E+02  0.63355342313E+02  0.00000000000E+00 0. -1.
         -2    1    6    6    0  503  0.67488426062E+02 -0.77534770880E+02  0.52671844620E+02  0.11550173836E+03  0.00000000000E+00 0.  1.
<mgrwt>
<rscale>  0 0.59029848E+03</rscale>
<asrwt>0</asrwt>
<pdfrwt beam="1">  1        2 0.38680582E+00 0.59029848E+03</pdfrwt>
<pdfrwt beam="2">  1       -2 0.10701592E+00 0.59029848E+03</pdfrwt>
<totfact> 0.26103189E+00</totfact>
</mgrwt>
</event>
<event>
12    1  0.8033771E-008  0.3892198E+03  0.7818608E-02  0.1047578E+00
          1   -1    0    0  501    0  0.00000000000E+00  0.00000000000E+00  0.47714180208E+03  0.47714180208E+03  0.00000000000E+00 0. -1.
         -1   -1    0    0    0  501 -0.00000000000E+00 -0.00000000000E+00 -0.58597106065E+03  0.58597106065E+03  0.00000000000E+00 0.  1.
         23    2    1    2    0    0  0.11137692668E+03  0.20975963401E+03 -0.29751779796E+03  0.39111539740E+03  0.89724523550E+02 0.  0.
    5000000    2    1    2    0    0 -0.11137692668E+03 -0.20975963401E+03  0.18868853938E+03  0.67199746532E+03  0.59964431511E+03 0.  0.
         23    2    4    4    0    0 -0.10213172205E+03  0.12713099053E+03  0.25422735171E+03  0.31706107802E+03  0.96452078440E+02 0.  0.
         23    2    4    4    0    0 -0.92452046380E+01 -0.33689062454E+03 -0.65538812323E+02  0.35493638731E+03  0.90020755399E+02 0.  0.
          4    1    3    3  502    0  0.83894727497E+02  0.20856737044E+03 -0.25002076091E+03  0.33622768208E+03  0.00000000000E+00 0.  1.
         -4    1    3    3    0  502  0.27482199188E+02  0.11922635716E+01 -0.47497037049E+02  0.54887715320E+02  0.00000000000E+00 0. -1.
         15    1    5    5    0    0 -0.75363088881E+02  0.21865680800E+02  0.13167362121E+03  0.15329319429E+03  0.17770000000E+01 0. -1.
        -15    1    5    5    0    0 -0.26768633165E+02  0.10526530973E+03  0.12255373049E+03  0.16376788373E+03  0.17770000000E+01 0.  1.
          1    1    6    6  503    0 -0.22803747552E+02 -0.25270738839E+03 -0.84781958120E+02  0.26752385963E+03  0.00000000000E+00 0. -1.
         -1    1    6    6    0  503  0.13558542914E+02 -0.84183236145E+02  0.19243145797E+02  0.87412527672E+02  0.00000000000E+00 0.  1.
<mgrwt>
<rscale>  0 0.38921985E+03</rscale>
<asrwt>0</asrwt>
<pdfrwt beam="1">  1        1 0.73406431E-01 0.38921985E+03</pdfrwt>
<pdfrwt beam="2">  1       -1 0.90149394E-01 0.38921985E+03</pdfrwt>
<totfact> 0.60372928E+01</totfact>
</mgrwt>
</event>
<event>
12    1  0.8033771E-008  0.9134035E+03  0.7818608E-02  0.9408980E-01
          2   -1    0    0  501    0  0.00000000000E+00  0.00000000000E+00  0.25549708265E+03  0.25549708265E+03  0.00000000000E+00 0. -1.
         -2   -1    0    0    0  501 -0.00000000000E+00 -0.00000000000E+00 -0.39199202512E+04  0.39199202512E+04  0.00000000000E+00 0.  1.
         23    2    1    2    0    0  0.71479983563E+03 -0.48282493359E+03 -0.22641897223E+04  0.24247694716E+04  0.94303605110E+02 0.  0.
    5000000    2    1    2    0    0 -0.71479983563E+03  0.48282493359E+03 -0.14002334463E+04  0.17506478623E+04  0.60004625853E+03 0.  0.
         23    2    4    4    0    0 -0.44181596969E+03  0.51900973341E+03 -0.65036470529E+03  0.94660563823E+03  0.92279629404E+02 0.  0.
         23    2    4    4    0    0 -0.27298386594E+03 -0.36184799825E+02 -0.74986874097E+03  0.80404222410E+03  0.91385111755E+02 0.  0.
          3    1    3    3  502    0  0.27972825149E+03 -0.21136271052E+03 -0.80294330895E+03  0.87615069907E+03  0.00000000000E+00 0. -1.
         -3    1    3    3    0  502  0.43507158414E+03 -0.27146222307E+03 -0.14612464134E+04  0.15486187725E+04  0.00000000000E+00 0.  1.
         15    1    5    5    0    0 -0.30470214599E+03  0.28900938545E+03 -0.40375798450E+03  0.58257487968E+03  0.17770000000E+01 0. -1.
        -15    1    5    5    0    0 -0.13711382370E+03  0.23000034796E+03 -0.24660672078E+03  0.36403075856E+03  0.17770000000E+01 0.  1.
          3    1    6    6  503    0 -0.10980542548E+03 -0.20652654288E+02 -0.43428989001E+03  0.44843223809E+03  0.00000000000E+00 0.  1.
         -3    1    6    6    0  503 -0.16317844046E+03 -0.15532145537E+02 -0.31557885096E+03  0.35560998601E+03  0.00000000000E+00 0. -1.
<mgrwt>
<rscale>  0 0.91340349E+03</rscale>
<asrwt>0</asrwt>
<pdfrwt beam="1">  1        2 0.39307244E-01 0.91340349E+03</pdfrwt>
<pdfrwt beam="2">  1       -2 0.60306465E+00 0.91340349E+03</pdfrwt>
<totfact> 0.64612160E-02</totfact>
</mgrwt>
</event>
<event>
12    1  0.8033771E-008  0.6216781E+03  0.7818608E-02  0.9861424E-01
          2   -1    0    0  501    0  0.00000000000E+00  0.00000000000E+00  0.20548601507E+04  0.20548601507E+04  0.00000000000E+00 0. -1.
         -2   -1    0    0    0  501 -0.00000000000E+00 -0.00000000000E+00 -0.31937324010E+03  0.31937324010E+03  0.00000000000E+00 0.  1.
         23    2    1    2    0    0  0.51091418960E+03  0.82856678809E+02  0.14305256355E+04  0.15252524137E+04  0.10996723701E+03 0.  0.
    5000000    2    1    2    0    0 -0.51091418960E+03 -0.82856678809E+02  0.30496127503E+03  0.84898097707E+03  0.59989064153E+03 0.  0.
         23    2    4    4    0    0 -0.13081350416E+03 -0.24960645747E+03 -0.44519203833E+02  0.29902650371E+03  0.89550733833E+02 0.  0.
         23    2    4    4    0    0 -0.38010068544E+03  0.16674977866E+03  0.34948047887E+03  0.54995447335E+03  0.89617508901E+02 0.  0.
          4    1    3    3  502    0  0.29137101341E+03 -0.81183866972E+01  0.78295243775E+03  0.83545047456E+03  0.00000000000E+00 0. -1.
         -4    1    3    3    0  502  0.21954317619E+03  0.90975065506E+02  0.64757319779E+03  0.68980193915E+03  0.00000000000E+00 0.  1.
         15    1    5    5    0    0 -0.57607317296E+01 -0.10210639118E+03 -0.17253890409E+02  0.10372924184E+03  0.17770000000E+01 0.  1.
        -15    1    5    5    0    0 -0.12505277243E+03 -0.14750006629E+03 -0.27265313423E+02  0.19529726187E+03  0.17770000000E+01 0. -1.
          3    1    6    6  503    0 -0.33465621005E+03  0.16489383664E+03  0.27812708541E+03  0.46533797601E+03  0.00000000000E+00 0. -1.
         -3    1    6    6    0  503 -0.45444475391E+02  0.18559420247E+01  0.71353393457E+02  0.84616497341E+02  0.00000000000E+00 0.  1.
<mgrwt>
<rscale>  0 0.62167807E+03</rscale>
<asrwt>0</asrwt>
<pdfrwt beam="1">  1        2 0.31613232E+00 0.62167807E+03</pdfrwt>
<pdfrwt beam="2">  1       -2 0.49134346E-01 0.62167807E+03</pdfrwt>
<totfact> 0.25747107E+01</totfact>
</mgrwt>
</event>
<event>
12    1  0.8033771E-008  0.8713411E+03  0.7818608E-02  0.9462133E-01
          1   -1    0    0  501    0  0.00000000000E+00  0.00000000000E+00  0.13607719405E+04  0.13607719405E+04  0.00000000000E+00 0. -1.
         -1   -1    0    0    0  501 -0.00000000000E+00 -0.00000000000E+00 -0.81690037601E+03  0.81690037601E+03  0.00000000000E+00 0.  1.
         23    2    1    2    0    0 -0.47943256065E+03 -0.63815674742E+03 -0.31292790558E+03  0.86239647528E+03  0.93296259277E+02 0.  0.
    5000000    2    1    2    0    0  0.47943256065E+03  0.63815674742E+03  0.85679947010E+03  0.13152758413E+04  0.59895374794E+03 0.  0.
         23    2    4    4    0    0  0.25813534949E+03  0.65073816662E+03  0.80381856669E+03  0.10698723529E+04  0.91698109001E+02 0.  0.
         23    2    4    4    0    0  0.22129721115E+03 -0.12581419202E+02  0.52980903412E+02  0.24540348837E+03  0.91022789466E+02 0.  0.
          4    1    3    3  502    0 -0.38123981812E+03 -0.43953456176E+03 -0.23547563460E+03  0.62768081410E+03  0.00000000000E+00 0. -1.
         -4    1    3    3    0  502 -0.98192742530E+02 -0.19862218566E+03 -0.77452270977E+02  0.23471566118E+03  0.00000000000E+00 0.  1.
         15    1    5    5    0    0  0.44620765019E+02  0.16033268453E+03  0.24636849264E+03  0.29731830467E+03  0.17770000000E+01 0. -1.
        -15    1    5    5    0    0  0.21351458447E+03  0.49040548209E+03  0.55745007406E+03  0.77255404823E+03  0.17770000000E+01 0.  1.
          4    1    6    6  503    0  0.14722805516E+02 -0.27145385841E+02 -0.25913232615E+01  0.30989480973E+02  0.00000000000E+00 0. -1.
         -4    1    6    6    0  503  0.20657440564E+03  0.14563966639E+02  0.55572226673E+02  0.21441400739E+03  0.00000000000E+00 0.  1.
<mgrwt>
<rscale>  0 0.87134107E+03</rscale>
<asrwt>0</asrwt>
<pdfrwt beam="1">  1        1 0.20934953E+00 0.87134107E+03</pdfrwt>
<pdfrwt beam="2">  1       -1 0.12567698E+00 0.87134107E+03</pdfrwt>
<totfact> 0.46174411E+00</totfact>
</mgrwt>
</event>
<event>
12    1  0.8033771E-008  0.6056975E+03  0.7818608E-02  0.9893656E-01
          2   -1    0    0  501    0  0.00000000000E+00  0.00000000000E+00  0.14054469933E+04  0.14054469933E+04  0.00000000000E+00 0. -1.
         -2   -1    0    0    0  501 -0.00000000000E+00 -0.00000000000E+00 -0.87144242670E+03  0.87144242670E+03  0.00000000000E+00 0.  1.
         23    2    1    2    0    0  0.27000506576E+03 -0.37666019342E+03 -0.69044479385E+03  0.83679109755E+03  0.93432814041E+02 0.  0.
    5000000    2    1    2    0    0 -0.27000506576E+03  0.37666019342E+03  0.12244493604E+04  0.14400983224E+04  0.59985940448E+03 0.  0.
         23    2    4    4    0    0  0.10741575544E+03 -0.72188874692E+02  0.33053183840E+03  0.36645160654E+03  0.91028048390E+02 0.  0.
         23    2    4    4    0    0 -0.37742082119E+03  0.44884906811E+03  0.89391752203E+03  0.10736467159E+04  0.98573688755E+02 0.  0.
          3    1    3    3  502    0  0.12554368860E+03 -0.17587619228E+03 -0.40534538318E+03  0.45934576565E+03  0.00000000000E+00 0. -1.
         -3    1    3    3    0  502  0.14446137716E+03 -0.20078400115E+03 -0.28509941067E+03  0.37744533190E+03  0.00000000000E+00 0.  1.
         15    1    5    5    0    0  0.65919277648E+02 -0.90248296799E+02  0.21408324389E+03  0.24150548500E+03  0.17770000000E+01 0. -1.
        -15    1    5    5    0    0  0.41496477790E+02  0.18059422107E+02  0.11644859451E+03  0.12494612154E+03  0.17770000000E+01 0.  1.
          4    1    6    6  503    0 -0.23522993719E+03  0.22378761168E+03  0.55072376433E+03  0.63930484363E+03  0.00000000000E+00 0. -1.
         -4    1    6    6    0  503 -0.14219088401E+03  0.22506145644E+03  0.34319375770E+03  0.43434187225E+03  0.00000000000E+00 0.  1.
<mgrwt>
<rscale>  0 0.60569749E+03</rscale>
<asrwt>0</asrwt>
<pdfrwt beam="1">  1        2 0.21622261E+00 0.60569749E+03</pdfrwt>
<pdfrwt beam="2">  1       -2 0.13406807E+00 0.60569749E+03</pdfrwt>
<totfact> 0.60453007E+00</totfact>
</mgrwt>
</event>
<event>
12    1  0.8033771E-008  0.1273392E+04  0.7818608E-02  0.9050936E-01
         -2   -1    0    0    0  501 -0.00000000000E+00  0.00000000000E+00  0.70244649095E+03  0.70244649095E+03  0.00000000000E+00 0.  1.
          2   -1    0    0  501    0  0.00000000000E+00 -0.00000000000E+00 -0.34587703592E+04  0.34587703592E+04  0.00000000000E+00 0. -1.
         23    2    1    2    0    0  0.42728368111E+03  0.11523772077E+04 -0.24749873962E+04  0.27648483156E+04  0.90989143167E+02 0.  0.
    5000000    2    1    2    0    0 -0.42728368111E+03 -0.11523772077E+04 -0.28133647204E+03  0.13963685345E+04  0.60012523745E+03 0.  0.
         23    2    4    4    0    0 -0.48181405123E+03 -0.11118870318E+04 -0.14936899602E+03  0.12243212715E+04  0.90630719860E+02 0.  0.
         23    2    4    4    0    0  0.54530370116E+02 -0.40490175930E+02 -0.13196747602E+03  0.17204726303E+03  0.87016265014E+02 0.  0.
          3    1    3    3  502    0  0.28714868773E+03  0.70711534671E+03 -0.16185404484E+04  0.17894523368E+04  0.00000000000E+00 0.  1.
         -3    1    3    3    0  502  0.14013499338E+03  0.44526186100E+03 -0.85644694778E+03  0.97539597887E+03  0.00000000000E+00 0. -1.
         15    1    5    5    0    0 -0.13535724325E+03 -0.33059744978E+03 -0.85166067236E+02  0.36725015158E+03  0.17770000000E+01 0.  1.
        -15    1    5    5    0    0 -0.34645680797E+03 -0.78128958200E+03 -0.64202928782E+02  0.85707111987E+03  0.17770000000E+01 0. -1.
          2    1    6    6  503    0 -0.22194724426E+01  0.21058868324E+02 -0.52535044374E+02  0.56642147561E+02  0.00000000000E+00 0. -1.
         -2    1    6    6    0  503  0.56749842559E+02 -0.61549044254E+02 -0.79432431648E+02  0.11540511547E+03  0.00000000000E+00 0.  1.
<mgrwt>
<rscale>  0 0.12733920E+04</rscale>
<asrwt>0</asrwt>
<pdfrwt beam="1">  1        2 0.53211852E+00 0.12733920E+04</pdfrwt>
<pdfrwt beam="2">  1       -2 0.10806869E+00 0.12733920E+04</pdfrwt>
<totfact> 0.58845401E-01</totfact>
</mgrwt>
</event>
<event>
12    1  0.8033771E-008  0.5892715E+03  0.7818608E-02  0.9927918E-01
          2   -1    0    0  501    0  0.00000000000E+00  0.00000000000E+00  0.44289379379E+03  0.44289379379E+03  0.00000000000E+00 0. -1.
         -2   -1    0    0    0  501 -0.00000000000E+00 -0.00000000000E+00 -0.11818976511E+04  0.11818976511E+04  0.00000000000E+00 0.  1.
         23    2    1    2    0    0  0.11067608206E+03  0.52347917476E+03 -0.15244850653E+02  0.54304774330E+03  0.91590417001E+02 0.  0.
    5000000    2    1    2    0    0 -0.11067608206E+03 -0.52347917476E+03 -0.72375900665E+03  0.10817437016E+04  0.60005224328E+03 0.  0.
         23    2    4    4    0    0 -0.22252814309E+03 -0.40552269663E+03 -0.76272702361E+03  0.89637725342E+03  0.88160285619E+02 0.  0.
         23    2    4    4    0    0  0.11185206103E+03 -0.11795647812E+03  0.38968016962E+02  0.18536644816E+03  0.80109921152E+02 0.  0.
          2    1    3    3  502    0  0.10612328848E+03  0.37225038307E+03 -0.42173380399E+02  0.38937269302E+03  0.00000000000E+00 0. -1.
         -2    1    3    3    0  502  0.45527935762E+01  0.15122879169E+03  0.26928529745E+02  0.15367505028E+03  0.00000000000E+00 0.  1.
         15    1    5    5    0    0 -0.51643158284E+02 -0.12074443109E+03 -0.14956209395E+03  0.19904323930E+03  0.17770000000E+01 0. -1.
        -15    1    5    5    0    0 -0.17088498481E+03 -0.28477826555E+03 -0.61316492965E+03  0.69733401412E+03  0.17770000000E+01 0.  1.
          3    1    6    6  503    0  0.34754603886E+02  0.12094433996E+01  0.24834851798E+02  0.42733068091E+02  0.00000000000E+00 0. -1.
         -3    1    6    6    0  503  0.77097457149E+02 -0.11916592152E+03  0.14133165164E+02  0.14263338007E+03  0.00000000000E+00 0.  1.
<mgrwt>
<rscale>  0 0.58927153E+03</rscale>
<asrwt>0</asrwt>
<pdfrwt beam="1">  1        2 0.68137507E-01 0.58927153E+03</pdfrwt>
<pdfrwt beam="2">  1       -2 0.18183041E+00 0.58927153E+03</pdfrwt>
<totfact> 0.12904147E+01</totfact>
</mgrwt>
</event>
<event>
12    1  0.8033771E-008  0.1148083E+04  0.7818608E-02  0.9159554E-01
         -1   -1    0    0    0  501 -0.00000000000E+00  0.00000000000E+00  0.10147725566E+04  0.10147725566E+04  0.00000000000E+00 0.  1.
          1   -1    0    0  501    0  0.00000000000E+00 -0.00000000000E+00 -0.23296340945E+04  0.23296340945E+04  0.00000000000E+00 0. -1.
         23    2    1    2    0    0 -0.10596823153E+04  0.19883368627E+03 -0.17325195847E+04  0.20417552900E+04  0.68404012094E+02 0.  0.
    5000000    2    1    2    0    0  0.10596823153E+04 -0.19883368627E+03  0.41765804679E+03  0.13026513611E+04  0.60000073375E+03 0.  0.
         23    2    4    4    0    0  0.10344530704E+04 -0.30029622825E+02  0.33302139502E+03  0.10913705819E+04  0.95872646941E+02 0.  0.
         23    2    4    4    0    0  0.25229244864E+02 -0.16880406344E+03  0.84636651768E+02  0.21128077920E+03  0.91350304905E+02 0.  0.
          1    1    3    3  502    0 -0.73026127384E+03  0.11524502390E+03 -0.12305739992E+04  0.14355749061E+04  0.00000000000E+00 0. -1.
         -1    1    3    3    0  502 -0.32942104142E+03  0.83588662374E+02 -0.50194558556E+03  0.60618038394E+03  0.00000000000E+00 0.  1.
         15    1    5    5    0    0  0.62451950899E+03  0.21950881718E+02  0.17479974749E+03  0.64889488191E+03  0.17770000000E+01 0. -1.
        -15    1    5    5    0    0  0.40993356140E+03 -0.51980504543E+02  0.15822164753E+03  0.44247570000E+03  0.17770000000E+01 0.  1.
          1    1    6    6  503    0 -0.16572315283E+02 -0.62261966063E+02  0.71234438880E+02  0.96049671183E+02  0.00000000000E+00 0. -1.
         -1    1    6    6    0  503  0.41801560147E+02 -0.10654209738E+03  0.13402212888E+02  0.11523110802E+03  0.00000000000E+00 0.  1.
<mgrwt>
<rscale>  0 0.11480830E+04</rscale>
<asrwt>0</asrwt>
<pdfrwt beam="1">  1        1 0.35840524E+00 0.11480830E+04</pdfrwt>
<pdfrwt beam="2">  1       -1 0.15611886E+00 0.11480830E+04</pdfrwt>
<totfact> 0.55143890E-01</totfact>
</mgrwt>
</event>
<event>
12    1  0.8033771E-008  0.8378526E+03  0.7818608E-02  0.9506787E-01
          2   -1    0    0  501    0  0.00000000000E+00  0.00000000000E+00  0.93391556754E+03  0.93391556754E+03  0.00000000000E+00 0. -1.
         -2   -1    0    0    0  501 -0.00000000000E+00 -0.00000000000E+00 -0.93193718175E+03  0.93193718175E+03  0.00000000000E+00 0.  1.
         23    2    1    2    0    0  0.79864654664E+03  0.18207580587E+03 -0.15399678922E+03  0.83855279205E+03  0.92021021690E+02 0.  0.
    5000000    2    1    2    0    0 -0.79864654664E+03 -0.18207580587E+03  0.15597517501E+03  0.10272999572E+04  0.60002420065E+03 0.  0.
         23    2    4    4    0    0 -0.21112162214E+03  0.24140598151E+02  0.30343671423E+03  0.38136643436E+03  0.90616830128E+02 0.  0.
         23    2    4    4    0    0 -0.58752492450E+03 -0.20621640402E+03 -0.14746153922E+03  0.64593352287E+03  0.88172944909E+02 0.  0.
          4    1    3    3  502    0  0.26784108377E+03  0.43634499877E+02 -0.10698417835E+02  0.27158290056E+03  0.00000000000E+00 0.  1.
         -4    1    3    3    0  502  0.53080546287E+03  0.13844130600E+03 -0.14329837139E+03  0.56696989149E+03  0.00000000000E+00 0. -1.
         15    1    5    5    0    0 -0.90007969712E+02  0.55303088023E+02  0.14842876363E+03  0.18219254034E+03  0.17770000000E+01 0.  1.
        -15    1    5    5    0    0 -0.12111365242E+03 -0.31162489872E+02  0.15500795060E+03  0.19917389402E+03  0.17770000000E+01 0. -1.
          2    1    6    6  503    0 -0.20702266764E+03 -0.10051241536E+03 -0.88882805288E+02  0.24670079779E+03  0.00000000000E+00 0. -1.
         -2    1    6    6    0  503 -0.38050225686E+03 -0.10570398867E+03 -0.58578733932E+02  0.39923272507E+03  0.00000000000E+00 0.  1.
<mgrwt>
<rscale>  0 0.83785258E+03</rscale>
<asrwt>0</asrwt>
<pdfrwt beam="1">  1        2 0.14367932E+00 0.83785258E+03</pdfrwt>
<pdfrwt beam="2">  1       -2 0.14337495E+00 0.83785258E+03</pdfrwt>
<totfact> 0.94588694E+00</totfact>
</mgrwt>
</event>
<event>
12    1  0.8033771E-008  0.1181695E+04  0.7818608E-02  0.9129031E-01
          2   -1    0    0  501    0  0.00000000000E+00  0.00000000000E+00  0.25120583563E+04  0.25120583563E+04  0.00000000000E+00 0. -1.
         -2   -1    0    0    0  501 -0.00000000000E+00 -0.00000000000E+00 -0.64017102866E+03  0.64017102866E+03  0.00000000000E+00 0.  1.
         23    2    1    2    0    0 -0.21755322696E+03  0.11315542364E+04  0.12798590114E+04  0.17245378112E+04  0.90813967236E+02 0.  0.
    5000000    2    1    2    0    0  0.21755322696E+03 -0.11315542364E+04  0.59202831625E+03  0.14276915738E+04  0.60005108626E+03 0.  0.
         23    2    4    4    0    0  0.20383975859E+03 -0.23577629541E+03 -0.41299697899E+02  0.32682525598E+03  0.89263510127E+02 0.  0.
         23    2    4    4    0    0  0.13713468374E+02 -0.89577794100E+03  0.63332801415E+03  0.11008663178E+04  0.90532300247E+02 0.  0.
          4    1    3    3  502    0 -0.16001572924E+03  0.64103861384E+03  0.77208487525E+03  0.10161941707E+04  0.00000000000E+00 0.  1.
         -4    1    3    3    0  502 -0.57537497718E+02  0.49051562257E+03  0.50777413619E+03  0.70834364048E+03  0.00000000000E+00 0. -1.
         15    1    5    5    0    0  0.62603095195E+02 -0.76685932991E+02  0.28315081664E+02  0.10297951945E+03  0.17770000000E+01 0. -1.
        -15    1    5    5    0    0  0.14123666339E+03 -0.15909036242E+03 -0.69614779563E+02  0.22384573653E+03  0.17770000000E+01 0.  1.
          4    1    6    6  503    0  0.30331656703E+02 -0.65085227472E+03  0.50157087341E+03  0.82225423925E+03  0.00000000000E+00 0. -1.
         -4    1    6    6    0  503 -0.16618188329E+02 -0.24492566628E+03  0.13175714074E+03  0.27861207856E+03  0.00000000000E+00 0.  1.
<mgrwt>
<rscale>  0 0.11816952E+04</rscale>
<asrwt>0</asrwt>
<pdfrwt beam="1">  1        2 0.38647051E+00 0.11816952E+04</pdfrwt>
<pdfrwt beam="2">  1       -2 0.98487851E-01 0.11816952E+04</pdfrwt>
<totfact> 0.28916929E+00</totfact>
</mgrwt>
</event>
<event>
12    1  0.8033771E-008  0.6406030E+03  0.7818608E-02  0.9824574E-01
         -2   -1    0    0    0  501 -0.00000000000E+00  0.00000000000E+00  0.47098914110E+03  0.47098914110E+03  0.00000000000E+00 0.  1.
          2   -1    0    0  501    0  0.00000000000E+00 -0.00000000000E+00 -0.11096197548E+04  0.11096197548E+04  0.00000000000E+00 0. -1.
         23    2    1    2    0    0  0.36736179054E+03  0.46630398061E+03 -0.29609975163E+03  0.66970854026E+03  0.91871532550E+02 0.  0.
    5000000    2    1    2    0    0 -0.36736179054E+03 -0.46630398061E+03 -0.34253086203E+03  0.91090035561E+03  0.60001498225E+03 0.  0.
         23    2    4    4    0    0 -0.30942039622E+03 -0.49461170948E+03 -0.43111200655E+02  0.59206184533E+03  0.91087476197E+02 0.  0.
         23    2    4    4    0    0 -0.57941394320E+02  0.28307728872E+02 -0.29941966138E+03  0.31883851028E+03  0.88585152975E+02 0.  0.
          3    1    3    3  502    0  0.18886567159E+03  0.26489490674E+03 -0.11381756329E+03  0.34466504208E+03  0.00000000000E+00 0. -1.
         -3    1    3    3    0  502  0.17849611895E+03  0.20140907388E+03 -0.18228218834E+03  0.32504349817E+03  0.00000000000E+00 0.  1.
         15    1    5    5    0    0 -0.28586092732E+03 -0.43419482989E+03 -0.64310771954E+02  0.52381356721E+03  0.17770000000E+01 0. -1.
        -15    1    5    5    0    0 -0.23559468900E+02 -0.60416879594E+02  0.21199571300E+02  0.68248278125E+02  0.17770000000E+01 0.  1.
          1    1    6    6  503    0 -0.12516663906E+02 -0.27416460672E+02 -0.15031522160E+03  0.15330686558E+03  0.00000000000E+00 0. -1.
         -1    1    6    6    0  503 -0.45424730414E+02  0.55724189543E+02 -0.14910443978E+03  0.16553164470E+03  0.00000000000E+00 0.  1.
<mgrwt>
<rscale>  0 0.64060298E+03</rscale>
<asrwt>0</asrwt>
<pdfrwt beam="1">  1        2 0.17071073E+00 0.64060298E+03</pdfrwt>
<pdfrwt beam="2">  1       -2 0.72459870E-01 0.64060298E+03</pdfrwt>
<totfact> 0.38100966E+01</totfact>
</mgrwt>
</event>
<event>
12    1  0.8033771E-008  0.7628489E+03  0.7818608E-02  0.9615405E-01
         -2   -1    0    0    0  501 -0.00000000000E+00  0.00000000000E+00  0.16827042487E+03  0.16827042487E+03  0.00000000000E+00 0.  1.
          2   -1    0    0  501    0  0.00000000000E+00 -0.00000000000E+00 -0.41915823535E+04  0.41915823535E+04  0.00000000000E+00 0. -1.
         23    2    1    2    0    0  0.19601260126E+03  0.66158233874E+03 -0.11446181748E+04  0.13394081710E+04  0.88041760914E+02 0.  0.
    5000000    2    1    2    0    0 -0.19601260126E+03 -0.66158233874E+03 -0.28786937538E+04  0.30204446073E+04  0.60007980052E+03 0.  0.
         23    2    4    4    0    0 -0.25850425697E+03 -0.67583944404E+03 -0.27772384887E+04  0.28713745963E+04  0.90305281752E+02 0.  0.
         23    2    4    4    0    0  0.62491655710E+02  0.14257105295E+02 -0.10145526505E+03  0.14907001103E+03  0.88432037727E+02 0.  0.
          2    1    3    3  502    0  0.20697196773E+02  0.21108385912E+03 -0.35945296926E+03  0.41736220079E+03  0.00000000000E+00 0. -1.
         -2    1    3    3    0  502  0.17531540449E+03  0.45049847962E+03 -0.78516520553E+03  0.92204597020E+03  0.00000000000E+00 0.  1.
         15    1    5    5    0    0 -0.79575429929E+02 -0.11417248637E+03 -0.57534368080E+03  0.59193843807E+03  0.17770000000E+01 0.  1.
        -15    1    5    5    0    0 -0.17892882704E+03 -0.56166695767E+03 -0.22018948079E+04  0.22794361582E+04  0.17770000000E+01 0. -1.
          1    1    6    6  503    0  0.64782379210E+02 -0.19534107018E+02 -0.39200290965E+02  0.78198470604E+02  0.00000000000E+00 0. -1.
         -1    1    6    6    0  503 -0.22907234999E+01  0.33791212312E+02 -0.62254974084E+02  0.70871540423E+02  0.00000000000E+00 0.  1.
<mgrwt>
<rscale>  0 0.76284892E+03</rscale>
<asrwt>0</asrwt>
<pdfrwt beam="1">  1        2 0.64485881E+00 0.76284892E+03</pdfrwt>
<pdfrwt beam="2">  1       -2 0.25887758E-01 0.76284892E+03</pdfrwt>
<totfact> 0.35378374E+00</totfact>
</mgrwt>
</event>
<event>
12    1  0.8033771E-008  0.7064253E+03  0.7818608E-02  0.9706307E-01
          1   -1    0    0  501    0  0.00000000000E+00  0.00000000000E+00  0.80190920016E+03  0.80190920016E+03  0.00000000000E+00 0. -1.
         -1   -1    0    0    0  501 -0.00000000000E+00 -0.00000000000E+00 -0.67849648486E+03  0.67849648486E+03  0.00000000000E+00 0.  1.
         23    2    1    2    0    0 -0.11256057609E+03 -0.59628884494E+03  0.12788464277E+03  0.62667470484E+03  0.90202183668E+02 0.  0.
    5000000    2    1    2    0    0  0.11256057609E+03  0.59628884494E+03 -0.44719274755E+01  0.85373098018E+03  0.60050505284E+03 0.  0.
         23    2    4    4    0    0  0.30556778108E+03  0.23800566091E+03  0.12617752168E+03  0.41746565696E+03  0.91315082575E+02 0.  0.
         23    2    4    4    0    0 -0.19300720499E+03  0.35828318403E+03 -0.13064944916E+03  0.43626532322E+03  0.87404419432E+02 0.  0.
          2    1    3    3  502    0 -0.48955124956E+02 -0.45909816762E+03  0.84644279517E+02  0.46939576673E+03  0.00000000000E+00 0. -1.
         -2    1    3    3    0  502 -0.63605451135E+02 -0.13719067732E+03  0.43240363254E+02  0.15727893811E+03  0.00000000000E+00 0.  1.
         15    1    5    5    0    0  0.20229312735E+03  0.11826310957E+03  0.41145767244E+02  0.23791764194E+03  0.17770000000E+01 0. -1.
        -15    1    5    5    0    0  0.10327465373E+03  0.11974255134E+03  0.85031754437E+02  0.17954801502E+03  0.17770000000E+01 0.  1.
          3    1    6    6  503    0 -0.31300028228E+02  0.43726454861E+02 -0.50153981824E+02  0.73533098089E+02  0.00000000000E+00 0. -1.
         -3    1    6    6    0  503 -0.16170717676E+03  0.31455672917E+03 -0.80495467333E+02  0.36273222513E+03  0.00000000000E+00 0.  1.
<mgrwt>
<rscale>  0 0.70642526E+03</rscale>
<asrwt>0</asrwt>
<pdfrwt beam="1">  1        1 0.12337065E+00 0.70642526E+03</pdfrwt>
<pdfrwt beam="2">  1       -1 0.10438407E+00 0.70642526E+03</pdfrwt>
<totfact> 0.19637972E+01</totfact>
</mgrwt>
</event>
<event>
12    1  0.8033771E-008  0.5398690E+03  0.7818608E-02  0.1003866E+00
         -1   -1    0    0    0  501 -0.00000000000E+00  0.00000000000E+00  0.73197593008E+03  0.73197593008E+03  0.00000000000E+00 0.  1.
          1   -1    0    0  501    0  0.00000000000E+00 -0.00000000000E+00 -0.48680296200E+03  0.48680296200E+03  0.00000000000E+00 0. -1.
         23    2    1    2    0    0  0.41162089716E+03 -0.67089049935E+02  0.23314844281E+03  0.48786788070E+03  0.98611201365E+02 0.  0.
    5000000    2    1    2    0    0 -0.41162089716E+03  0.67089049935E+02  0.12024525271E+02  0.73091101139E+03  0.60012799781E+03 0.  0.
         23    2    4    4    0    0 -0.23238650003E+03 -0.21416698086E+03 -0.13391028015E+03  0.35526543319E+03  0.91709235118E+02 0.  0.
         23    2    4    4    0    0 -0.17923439714E+03  0.28125603080E+03  0.14593480542E+03  0.37564557819E+03  0.92642911249E+02 0.  0.
          4    1    3    3  502    0  0.30755031860E+03 -0.61046190356E+02  0.21947042632E+03  0.38272849888E+03  0.00000000000E+00 0.  1.
         -4    1    3    3    0  502  0.10407057856E+03 -0.60428595796E+01  0.13678016487E+02  0.10513938182E+03  0.00000000000E+00 0. -1.
         15    1    5    5    0    0 -0.10119193598E+03 -0.37293643342E+02 -0.57008602993E+02  0.12199902575E+03  0.17770000000E+01 0. -1.
        -15    1    5    5    0    0 -0.13119456405E+03 -0.17687333752E+03 -0.76901677160E+02  0.23326640744E+03  0.17770000000E+01 0.  1.
          4    1    6    6  503    0 -0.68472825431E+02  0.12136021269E+03  0.11070893514E+03  0.17796993388E+03  0.00000000000E+00 0. -1.
         -4    1    6    6    0  503 -0.11076157171E+03  0.15989581811E+03  0.35225870280E+02  0.19767564431E+03  0.00000000000E+00 0.  1.
<mgrwt>
<rscale>  0 0.53986895E+03</rscale>
<asrwt>0</asrwt>
<pdfrwt beam="1">  1        1 0.74892763E-01 0.53986895E+03</pdfrwt>
<pdfrwt beam="2">  1       -1 0.11261168E+00 0.53986895E+03</pdfrwt>
<totfact> 0.34755196E+01</totfact>
</mgrwt>
</event>
<event>
12    1  0.8033771E-008  0.1091091E+04  0.7818608E-02  0.9213919E-01
         -1   -1    0    0    0  501 -0.00000000000E+00  0.00000000000E+00  0.30812474389E+04  0.30812474389E+04  0.00000000000E+00 0.  1.
          1   -1    0    0  501    0  0.00000000000E+00 -0.00000000000E+00 -0.39563971174E+03  0.39563971174E+03  0.00000000000E+00 0. -1.
         23    2    1    2    0    0  0.98372501595E+03 -0.22999915992E+03  0.10147322904E+04  0.14342182055E+04  0.81766247530E+02 0.  0.
    5000000    2    1    2    0    0 -0.98372501595E+03  0.22999915992E+03  0.16708754367E+04  0.20426689451E+04  0.60004764283E+03 0.  0.
         23    2    4    4    0    0 -0.21629303308E+03  0.31947985383E+03  0.53852346576E+03  0.66851615418E+03  0.89756738226E+02 0.  0.
         23    2    4    4    0    0 -0.76743198287E+03 -0.89480693907E+02  0.11323519710E+04  0.13741527909E+04  0.95479127288E+02 0.  0.
          3    1    3    3  502    0  0.38673678980E+03 -0.12105130464E+03  0.44444068411E+03  0.60145347670E+03  0.00000000000E+00 0. -1.
         -3    1    3    3    0  502  0.59698822615E+03 -0.10894785529E+03  0.57029160630E+03  0.83276472881E+03  0.00000000000E+00 0.  1.
         15    1    5    5    0    0 -0.18233715441E+03  0.19678301622E+03  0.38086326039E+03  0.46586518887E+03  0.17770000000E+01 0. -1.
        -15    1    5    5    0    0 -0.33955878673E+02  0.12269683761E+03  0.15766020537E+03  0.20265096531E+03  0.17770000000E+01 0.  1.
          1    1    6    6  503    0 -0.32968548149E+03 -0.11715761364E+02  0.41426148575E+03  0.52956808283E+03  0.00000000000E+00 0. -1.
         -1    1    6    6    0  503 -0.43774650138E+03 -0.77764932543E+02  0.71809048523E+03  0.84458470811E+03  0.00000000000E+00 0.  1.
<mgrwt>
<rscale>  0 0.10910905E+04</rscale>
<asrwt>0</asrwt>
<pdfrwt beam="1">  1        1 0.60867650E-01 0.10910905E+04</pdfrwt>
<pdfrwt beam="2">  1       -1 0.47403805E+00 0.10910905E+04</pdfrwt>
<totfact> 0.13637160E-01</totfact>
</mgrwt>
</event>
<event>
12    1  0.8033771E-008  0.7985339E+03  0.7818608E-02  0.9562142E-01
         -2   -1    0    0    0  501 -0.00000000000E+00  0.00000000000E+00  0.17578903133E+03  0.17578903133E+03  0.00000000000E+00 0.  1.
          2   -1    0    0  501    0  0.00000000000E+00 -0.00000000000E+00 -0.40975425015E+04  0.40975425015E+04  0.00000000000E+00 0. -1.
         23    2    1    2    0    0 -0.41755421635E+03  0.59194904680E+03 -0.20887969384E+04  0.22130866489E+04  0.99622630104E+02 0.  0.
    5000000    2    1    2    0    0  0.41755421635E+03 -0.59194904680E+03 -0.18329565318E+04  0.20602448839E+04  0.60010343814E+03 0.  0.
         23    2    4    4    0    0 -0.15953889787E+01  0.67149600563E+02 -0.87729521944E+02  0.14583834992E+03  0.95187925523E+02 0.  0.
         23    2    4    4    0    0  0.41914960533E+03 -0.65909864736E+03 -0.17452270099E+04  0.19144065340E+04  0.95066517269E+02 0.  0.
          4    1    3    3  502    0 -0.20951884886E+03  0.21465951295E+03 -0.89415762042E+03  0.94313026920E+03  0.00000000000E+00 0. -1.
         -4    1    3    3    0  502 -0.20803536749E+03  0.37728953385E+03 -0.11946393179E+04  0.12699563797E+04  0.00000000000E+00 0.  1.
         15    1    5    5    0    0  0.21537504657E+02  0.12618543995E+02 -0.82654662703E+02  0.86359960369E+02  0.17770000000E+01 0.  1.
        -15    1    5    5    0    0 -0.23132893636E+02  0.54531056568E+02 -0.50748592417E+01  0.59478389552E+02  0.17770000000E+01 0. -1.
          3    1    6    6  503    0  0.24476179723E+03 -0.41859529125E+03 -0.11829337227E+04  0.12784610074E+04  0.00000000000E+00 0. -1.
         -3    1    6    6    0  503  0.17438780810E+03 -0.24050335612E+03 -0.56229328723E+03  0.63594552658E+03  0.00000000000E+00 0.  1.
<mgrwt>
<rscale>  0 0.79853391E+03</rscale>
<asrwt>0</asrwt>
<pdfrwt beam="1">  1        2 0.63039103E+00 0.79853391E+03</pdfrwt>
<pdfrwt beam="2">  1       -2 0.27044471E-01 0.79853391E+03</pdfrwt>
<totfact> 0.38797396E+00</totfact>
</mgrwt>
</event>
<event>
12    1  0.8033771E-008  0.5481014E+03  0.7818608E-02  0.1001934E+00
          2   -1    0    0  501    0  0.00000000000E+00  0.00000000000E+00  0.25384149831E+04  0.25384149831E+04  0.00000000000E+00 0. -1.
         -2   -1    0    0    0  501 -0.00000000000E+00 -0.00000000000E+00 -0.12089221190E+03  0.12089221190E+03  0.00000000000E+00 0.  1.
         23    2    1    2    0    0  0.30064227813E+03 -0.24190396404E+03  0.83381537722E+03  0.92234885409E+03  0.81092651495E+02 0.  0.
    5000000    2    1    2    0    0 -0.30064227813E+03  0.24190396404E+03  0.15837073939E+04  0.17369583409E+04  0.59999321753E+03 0.  0.
         23    2    4    4    0    0 -0.46850852497E+03  0.16010569612E+03  0.11241403837E+04  0.12324688269E+04  0.10076574300E+03 0.  0.
         23    2    4    4    0    0  0.16786624684E+03  0.81798267920E+02  0.45956701020E+03  0.50448951400E+03  0.91857495108E+02 0.  0.
          2    1    3    3  502    0  0.75103363847E+02 -0.10929523510E+03  0.27280983272E+03  0.30333342794E+03  0.00000000000E+00 0. -1.
         -2    1    3    3    0  502  0.22553891428E+03 -0.13260872894E+03  0.56100554451E+03  0.61901542615E+03  0.00000000000E+00 0.  1.
         15    1    5    5    0    0 -0.10380251756E+03  0.49447968305E+02  0.17218477861E+03  0.20705269845E+03  0.17770000000E+01 0. -1.
        -15    1    5    5    0    0 -0.36470600741E+03  0.11065772782E+03  0.95195560512E+03  0.10254161284E+04  0.17770000000E+01 0.  1.
          3    1    6    6  503    0  0.12786905258E+03  0.16044085640E+02  0.25049175463E+03  0.28169846722E+03  0.00000000000E+00 0. -1.
         -3    1    6    6    0  503  0.39997194251E+02  0.65754182279E+02  0.20907525557E+03  0.22279104678E+03  0.00000000000E+00 0.  1.
<mgrwt>
<rscale>  0 0.54810143E+03</rscale>
<asrwt>0</asrwt>
<pdfrwt beam="1">  1        2 0.39052534E+00 0.54810143E+03</pdfrwt>
<pdfrwt beam="2">  1       -2 0.18598804E-01 0.54810143E+03</pdfrwt>
<totfact> 0.85750441E+01</totfact>
</mgrwt>
</event>
<event>
12    1  0.8033771E-008  0.9951458E+03  0.7818608E-02  0.9313885E-01
          1   -1    0    0  501    0  0.00000000000E+00  0.00000000000E+00  0.13758909100E+04  0.13758909100E+04  0.00000000000E+00 0. -1.
         -1   -1    0    0    0  501 -0.00000000000E+00 -0.00000000000E+00 -0.78967303230E+03  0.78967303230E+03  0.00000000000E+00 0.  1.
         23    2    1    2    0    0  0.55478856982E+03 -0.77569060760E+03  0.29996170436E+03  0.10030643314E+04  0.81699161588E+02 0.  0.
    5000000    2    1    2    0    0 -0.55478856982E+03  0.77569060760E+03  0.28625617332E+03  0.11624996108E+04  0.59998039344E+03 0.  0.
         23    2    4    4    0    0 -0.14977243826E+02 -0.26970183205E+02 -0.78128124386E+02  0.12483851461E+03  0.92352272822E+02 0.  0.
         23    2    4    4    0    0 -0.53981132599E+03  0.80266079081E+03  0.36438429771E+03  0.10376610962E+04  0.91126403652E+02 0.  0.
          3    1    3    3  502    0  0.37669479957E+03 -0.47197741006E+03  0.21373305654E+03  0.64058057033E+03  0.00000000000E+00 0. -1.
         -3    1    3    3    0  502  0.17809377025E+03 -0.30371319754E+03  0.86228647820E+02  0.36248376111E+03  0.00000000000E+00 0.  1.
         15    1    5    5    0    0 -0.14175402528E+02  0.15793862868E+02 -0.79203340089E+02  0.82016552911E+02  0.17770000000E+01 0. -1.
        -15    1    5    5    0    0 -0.80184129833E+00 -0.42764046073E+02  0.10752157029E+01  0.42821961700E+02  0.17770000000E+01 0.  1.
          3    1    6    6  503    0 -0.10485960052E+03  0.21408428019E+03  0.11327016315E+03  0.26392753685E+03  0.00000000000E+00 0. -1.
         -3    1    6    6    0  503 -0.43495172547E+03  0.58857651062E+03  0.25111413456E+03  0.77373355938E+03  0.00000000000E+00 0.  1.
<mgrwt>
<rscale>  0 0.99514579E+03</rscale>
<asrwt>0</asrwt>
<pdfrwt beam="1">  1        1 0.21167553E+00 0.99514579E+03</pdfrwt>
<pdfrwt beam="2">  1       -1 0.12148816E+00 0.99514579E+03</pdfrwt>
<totfact> 0.48224556E+00</totfact>
</mgrwt>
</event>
<event>
12    1  0.8033771E-008  0.1032129E+04  0.7818608E-02  0.9273992E-01
         -2   -1    0    0    0  501 -0.00000000000E+00  0.00000000000E+00  0.11989713854E+04  0.11989713854E+04  0.00000000000E+00 0.  1.
          2   -1    0    0  501    0  0.00000000000E+00 -0.00000000000E+00 -0.16194338226E+04  0.16194338226E+04  0.00000000000E+00 0. -1.
         23    2    1    2    0    0 -0.15430159250E+03  0.98883392432E+03 -0.10823463572E+04  0.14769171957E+04  0.90604937106E+02 0.  0.
    5000000    2    1    2    0    0  0.15430159250E+03 -0.98883392432E+03  0.66188392001E+03  0.13414880123E+04  0.59991520415E+03 0.  0.
         23    2    4    4    0    0 -0.83964598255E+02 -0.55633644573E+03  0.61308505147E+03  0.83704847966E+03  0.90645365880E+02 0.  0.
         23    2    4    4    0    0  0.23826619076E+03 -0.43249747859E+03  0.48798868544E+02  0.50443953262E+03  0.90846386010E+02 0.  0.
          2    1    3    3  502    0 -0.14039914932E+03  0.68011315627E+03 -0.78451159814E+03  0.10477233767E+04  0.00000000000E+00 0.  1.
         -2    1    3    3    0  502 -0.13902443184E+02  0.30872076804E+03 -0.29783475903E+03  0.42919381896E+03  0.00000000000E+00 0. -1.
         15    1    5    5    0    0  0.13731635804E+01 -0.21727278063E+03  0.19424613454E+03  0.29145165172E+03  0.17770000000E+01 0.  1.
        -15    1    5    5    0    0 -0.85337761835E+02 -0.33906366510E+03  0.41883891693E+03  0.54559682793E+03  0.17770000000E+01 0. -1.
          1    1    6    6  503    0  0.16319045641E+03 -0.28887756706E+03 -0.10289546060E+02  0.33194464685E+03  0.00000000000E+00 0. -1.
         -1    1    6    6    0  503  0.75075734349E+02 -0.14361991153E+03  0.59088414604E+02  0.17249488577E+03  0.00000000000E+00 0.  1.
<mgrwt>
<rscale>  0 0.10321290E+04</rscale>
<asrwt>0</asrwt>
<pdfrwt beam="1">  1        2 0.24914367E+00 0.10321290E+04</pdfrwt>
<pdfrwt beam="2">  1       -2 0.18445714E+00 0.10321290E+04</pdfrwt>
<totfact> 0.18188611E+00</totfact>
</mgrwt>
</event>
<event>
12    1  0.8033771E-008  0.3578808E+03  0.7818608E-02  0.1059426E+00
          1   -1    0    0  501    0  0.00000000000E+00  0.00000000000E+00  0.69060822947E+03  0.69060822947E+03  0.00000000000E+00 0. -1.
         -1   -1    0    0    0  501 -0.00000000000E+00 -0.00000000000E+00 -0.26126086255E+03  0.26126086255E+03  0.00000000000E+00 0.  1.
         23    2    1    2    0    0  0.11021942631E+03 -0.15662472704E+03  0.53008689999E+02  0.21811684486E+03  0.89918906471E+02 0.  0.
    5000000    2    1    2    0    0 -0.11021942631E+03  0.15662472704E+03  0.37633867692E+03  0.73375224716E+03  0.60006827396E+03 0.  0.
         23    2    4    4    0    0  0.14753333273E+03 -0.52175410341E+02  0.34291867477E+03  0.38748732653E+03  0.89804526622E+02 0.  0.
         23    2    4    4    0    0 -0.25775275904E+03  0.20880013738E+03  0.33420002146E+02  0.34626492063E+03  0.93533504965E+02 0.  0.
          2    1    3    3  502    0  0.23444623839E+02 -0.80195959256E+02 -0.13627583708E+02  0.84656679037E+02  0.00000000000E+00 0. -1.
         -2    1    3    3    0  502  0.86774802467E+02 -0.76428767788E+02  0.66636273706E+02  0.13346016583E+03  0.00000000000E+00 0.  1.
         15    1    5    5    0    0  0.64027937795E+02  0.20091166661E+02  0.16422497180E+03  0.17741541897E+03  0.17770000000E+01 0.  1.
        -15    1    5    5    0    0  0.83505394940E+02 -0.72266577002E+02  0.17869370297E+03  0.21007190756E+03  0.17770000000E+01 0. -1.
          4    1    6    6  503    0 -0.19204935343E+03  0.11298780446E+03  0.51486935909E+02  0.22869215701E+03  0.00000000000E+00 0. -1.
         -4    1    6    6    0  503 -0.65703405611E+02  0.95812332925E+02 -0.18066933763E+02  0.11757276362E+03  0.00000000000E+00 0.  1.
<mgrwt>
<rscale>  0 0.35788082E+03</rscale>
<asrwt>0</asrwt>
<pdfrwt beam="1">  1        1 0.10624742E+00 0.35788082E+03</pdfrwt>
<pdfrwt beam="2">  1       -1 0.40193979E-01 0.35788082E+03</pdfrwt>
<totfact> 0.17585581E+02</totfact>
</mgrwt>
</event>
<event>
12    1  0.8033771E-008  0.9361491E+03  0.7818608E-02  0.9381488E-01
          2   -1    0    0  501    0  0.00000000000E+00  0.00000000000E+00  0.24966081386E+04  0.24966081386E+04  0.00000000000E+00 0. -1.
         -2   -1    0    0    0  501 -0.00000000000E+00 -0.00000000000E+00 -0.45418790488E+03  0.45418790488E+03  0.00000000000E+00 0.  1.
         23    2    1    2    0    0  0.51563559895E+03  0.73493146906E+03  0.14799752761E+04  0.17333418186E+04  0.90236951006E+02 0.  0.
    5000000    2    1    2    0    0 -0.51563559895E+03 -0.73493146906E+03  0.56244495766E+03  0.12174542249E+04  0.59987175641E+03 0.  0.
         23    2    4    4    0    0 -0.47135448751E+03 -0.74208288971E+03  0.63960132140E+03  0.10910231531E+04  0.91540166549E+02 0.  0.
         23    2    4    4    0    0 -0.44281111442E+02  0.71514206495E+01 -0.77156363738E+02  0.12643107181E+03  0.89553066977E+02 0.  0.
          3    1    3    3  502    0  0.16241686958E+03  0.20538189177E+03  0.36064123949E+03  0.44567147610E+03  0.00000000000E+00 0. -1.
         -3    1    3    3    0  502  0.35321872937E+03  0.52954957730E+03  0.11193340366E+04  0.12876703425E+04  0.00000000000E+00 0.  1.
         15    1    5    5    0    0 -0.15043840942E+03 -0.27212623592E+03  0.17813917660E+03  0.35835893636E+03  0.17770000000E+01 0. -1.
        -15    1    5    5    0    0 -0.32091607809E+03 -0.46995665379E+03  0.46146214481E+03  0.73266421670E+03  0.17770000000E+01 0.  1.
          3    1    6    6  503    0 -0.28085182693E+02 -0.37236186590E+02 -0.60369673835E+02  0.76287670023E+02  0.00000000000E+00 0.  1.
         -3    1    6    6    0  503 -0.16195928749E+02  0.44387607239E+02 -0.16786689903E+02  0.50143401783E+02  0.00000000000E+00 0. -1.
<mgrwt>
<rscale>  0 0.93614910E+03</rscale>
<asrwt>0</asrwt>
<pdfrwt beam="1">  1        2 0.38409355E+00 0.93614910E+03</pdfrwt>
<pdfrwt beam="2">  1       -2 0.69875064E-01 0.93614910E+03</pdfrwt>
<totfact> 0.66541444E+00</totfact>
</mgrwt>
</event>
<event>
12    1  0.8033771E-008  0.4318171E+03  0.7818608E-02  0.1033287E+00
          1   -1    0    0  501    0  0.00000000000E+00  0.00000000000E+00  0.15558729771E+04  0.15558729771E+04  0.00000000000E+00 0. -1.
         -1   -1    0    0    0  501 -0.00000000000E+00 -0.00000000000E+00 -0.29797349217E+03  0.29797349217E+03  0.00000000000E+00 0.  1.
         23    2    1    2    0    0  0.24342466456E+03  0.49268056087E+02 -0.14918804094E+03  0.30417509651E+03  0.92641832401E+02 0.  0.
    5000000    2    1    2    0    0 -0.24342466456E+03 -0.49268056087E+02  0.14070875259E+04  0.15496713728E+04  0.59991928577E+03 0.  0.
         23    2    4    4    0    0 -0.39746537558E+03 -0.13362091996E+03  0.11270178918E+04  0.12060675864E+04  0.92716878070E+02 0.  0.
         23    2    4    4    0    0  0.15404071102E+03  0.84352863877E+02  0.28006963408E+03  0.34360378637E+03  0.93704940002E+02 0.  0.
          2    1    3    3  502    0  0.15394577876E+03  0.15726680268E+01 -0.12884969571E+03  0.20075861169E+03  0.00000000000E+00 0.  1.
         -2    1    3    3    0  502  0.89478885795E+02  0.47695388060E+02 -0.20338345229E+02  0.10341648482E+03  0.00000000000E+00 0. -1.
         15    1    5    5    0    0 -0.19765175171E+03 -0.41299344470E+02  0.42863931324E+03  0.47382134755E+03  0.17770000000E+01 0.  1.
        -15    1    5    5    0    0 -0.19981362387E+03 -0.92321575493E+02  0.69837857857E+03  0.73224623886E+03  0.17770000000E+01 0. -1.
          3    1    6    6  503    0  0.95196988600E+02  0.84655140828E+02  0.24210316549E+03  0.27357430846E+03  0.00000000000E+00 0. -1.
         -3    1    6    6    0  503  0.58843722425E+02 -0.30227695111E+00  0.37966468583E+02  0.70029477914E+02  0.00000000000E+00 0.  1.
<mgrwt>
<rscale>  0 0.43181714E+03</rscale>
<asrwt>0</asrwt>
<pdfrwt beam="1">  1        1 0.23936507E+00 0.43181714E+03</pdfrwt>
<pdfrwt beam="2">  1       -1 0.45842077E-01 0.43181714E+03</pdfrwt>
<totfact> 0.30784078E+01</totfact>
</mgrwt>
</event>
<event>
12    1  0.8033771E-008  0.1632089E+04  0.7818608E-02  0.8801073E-01
          1   -1    0    0  501    0  0.00000000000E+00  0.00000000000E+00  0.11653009812E+04  0.11653009812E+04  0.00000000000E+00 0.  1.
         -1   -1    0    0    0  501 -0.00000000000E+00 -0.00000000000E+00 -0.23808909744E+04  0.23808909744E+04  0.00000000000E+00 0. -1.
         23    2    1    2    0    0 -0.15308105697E+04  0.48408334708E+03 -0.45473613505E+03  0.16709164294E+04  0.86365932941E+02 0.  0.
    5000000    2    1    2    0    0  0.15308105697E+04 -0.48408334708E+03 -0.76085385821E+03  0.18752755262E+04  0.60003501422E+03 0.  0.
         23    2    4    4    0    0  0.35574757631E+03 -0.30094098802E+03 -0.28352204801E+02  0.47549256713E+03  0.90374319150E+02 0.  0.
         23    2    4    4    0    0  0.11750629934E+04 -0.18314235907E+03 -0.73250165341E+03  0.13997829590E+04  0.92301127097E+02 0.  0.
          1    1    3    3  502    0 -0.78138527652E+03  0.21037541529E+03 -0.25524304198E+03  0.84851032769E+03  0.00000000000E+00 0. -1.
         -1    1    3    3    0  502 -0.74942529317E+03  0.27370793179E+03 -0.19949309307E+03  0.82240610172E+03  0.00000000000E+00 0.  1.
         15    1    5    5    0    0  0.15018144011E+03 -0.15086512943E+03  0.28257974288E+02  0.21474734706E+03  0.17770000000E+01 0. -1.
        -15    1    5    5    0    0  0.20556613620E+03 -0.15007585859E+03 -0.56610179089E+02  0.26074522007E+03  0.17770000000E+01 0.  1.
          1    1    6    6  503    0  0.78544092155E+03 -0.13832605376E+03 -0.44290891915E+03  0.91226084485E+03  0.00000000000E+00 0. -1.
         -1    1    6    6    0  503  0.38962207184E+03 -0.44816305307E+02 -0.28959273427E+03  0.48752211419E+03  0.00000000000E+00 0.  1.
<mgrwt>
<rscale>  0 0.16320894E+04</rscale>
<asrwt>0</asrwt>
<pdfrwt beam="1">  1        1 0.17927708E+00 0.16320894E+04</pdfrwt>
<pdfrwt beam="2">  1       -1 0.36629092E+00 0.16320894E+04</pdfrwt>
<totfact> 0.12835277E-01</totfact>
</mgrwt>
</event>
<event>
12    1  0.8033771E-008  0.8576042E+03  0.7818608E-02  0.9480187E-01
          2   -1    0    0  501    0  0.00000000000E+00  0.00000000000E+00  0.27851499221E+04  0.27851499221E+04  0.00000000000E+00 0. -1.
         -2   -1    0    0    0  501 -0.00000000000E+00 -0.00000000000E+00 -0.28732834223E+03  0.28732834223E+03  0.00000000000E+00 0.  1.
         23    2    1    2    0    0 -0.49620824398E+03  0.60333533045E+03  0.13233066278E+04  0.15394657919E+04  0.92619388016E+02 0.  0.
    5000000    2    1    2    0    0  0.49620824398E+03 -0.60333533045E+03  0.11745149521E+04  0.15330124724E+04  0.60033800933E+03 0.  0.
         23    2    4    4    0    0  0.57054963021E+03 -0.57171710527E+03  0.80729412127E+03  0.11459032547E+04  0.94779438655E+02 0.  0.
         23    2    4    4    0    0 -0.74341386230E+02 -0.31618225185E+02  0.36722083081E+03  0.38710921764E+03  0.92065487197E+02 0.  0.
          4    1    3    3  502    0 -0.35308333405E+03  0.46500666285E+03  0.10491360875E+04  0.12006604713E+04  0.00000000000E+00 0. -1.
         -4    1    3    3    0  502 -0.14312490993E+03  0.13832866760E+03  0.27417054030E+03  0.33880532063E+03  0.00000000000E+00 0.  1.
         15    1    5    5    0    0  0.17221957067E+03 -0.22340592790E+03  0.24289062387E+03  0.37224830696E+03  0.17770000000E+01 0.  1.
        -15    1    5    5    0    0  0.39833005954E+03 -0.34831117737E+03  0.56440349740E+03  0.77365494777E+03  0.17770000000E+01 0. -1.
          3    1    6    6  503    0 -0.40262269476E+02 -0.62982959851E+02  0.19719668114E+03  0.21088962665E+03  0.00000000000E+00 0.  1.
         -3    1    6    6    0  503 -0.34079116754E+02  0.31364734666E+02  0.17002414967E+03  0.17621959100E+03  0.00000000000E+00 0. -1.
<mgrwt>
<rscale>  0 0.85760415E+03</rscale>
<asrwt>0</asrwt>
<pdfrwt beam="1">  1        2 0.42848459E+00 0.85760415E+03</pdfrwt>
<pdfrwt beam="2">  1       -2 0.44204362E-01 0.85760415E+03</pdfrwt>
<totfact> 0.11892487E+01</totfact>
</mgrwt>
</event>
<event>
12    1  0.8033771E-008  0.7663222E+03  0.7818608E-02  0.9610086E-01
          1   -1    0    0  501    0  0.00000000000E+00  0.00000000000E+00  0.32700007127E+04  0.32700007127E+04  0.00000000000E+00 0. -1.
         -1   -1    0    0    0  501 -0.00000000000E+00 -0.00000000000E+00 -0.19455204311E+03  0.19455204311E+03  0.00000000000E+00 0.  1.
         23    2    1    2    0    0  0.49265546123E+03 -0.47054197279E+03  0.13305202503E+04  0.14975763046E+04  0.91277051794E+02 0.  0.
    5000000    2    1    2    0    0 -0.49265546123E+03  0.47054197279E+03  0.17449284193E+04  0.19669764512E+04  0.60008501004E+03 0.  0.
         23    2    4    4    0    0 -0.57639899920E+02  0.38850795129E+03  0.11578124619E+04  0.12260640477E+04  0.91883435940E+02 0.  0.
         23    2    4    4    0    0 -0.43501556131E+03  0.82034021496E+02  0.58711595738E+03  0.74091240346E+03  0.90983091400E+02 0.  0.
          3    1    3    3  502    0  0.80722785635E+02 -0.10692429919E+03  0.32900631786E+03  0.35523813291E+03  0.00000000000E+00 0. -1.
         -3    1    3    3    0  502  0.41193267559E+03 -0.36361767360E+03  0.10015139324E+04  0.11423381717E+04  0.00000000000E+00 0.  1.
         15    1    5    5    0    0  0.17239635695E+02  0.19087778211E+03  0.52501378538E+03  0.55890443307E+03  0.17770000000E+01 0. -1.
        -15    1    5    5    0    0 -0.74879535615E+02  0.19763016918E+03  0.63279867656E+03  0.66715961465E+03  0.17770000000E+01 0.  1.
          2    1    6    6  503    0 -0.16990942849E+03  0.44231951242E+01  0.16822362379E+03  0.23914005550E+03  0.00000000000E+00 0. -1.
         -2    1    6    6    0  503 -0.26510613281E+03  0.77610826372E+02  0.41889233360E+03  0.50177234795E+03  0.00000000000E+00 0.  1.
<mgrwt>
<rscale>  0 0.76632219E+03</rscale>
<asrwt>0</asrwt>
<pdfrwt beam="1">  1        1 0.50307699E+00 0.76632219E+03</pdfrwt>
<pdfrwt beam="2">  1       -1 0.29931086E-01 0.76632219E+03</pdfrwt>
<totfact> 0.41311228E+00</totfact>
</mgrwt>
</event>
<event>
12    1  0.8033771E-008  0.9481720E+03  0.7818608E-02  0.9367290E-01
         -1   -1    0    0    0  501 -0.00000000000E+00  0.00000000000E+00  0.68965187778E+03  0.68965187778E+03  0.00000000000E+00 0.  1.
          1   -1    0    0  501    0  0.00000000000E+00 -0.00000000000E+00 -0.17087991390E+04  0.17087991390E+04  0.00000000000E+00 0. -1.
         23    2    1    2    0    0  0.43138079702E+03 -0.73937738378E+03 -0.10435315820E+04  0.13527266475E+04  0.90238088006E+02 0.  0.
    5000000    2    1    2    0    0 -0.43138079702E+03  0.73937738378E+03  0.24384320733E+02  0.10457243693E+04  0.60014711013E+03 0.  0.
         23    2    4    4    0    0 -0.38292434539E+03  0.11398870292E+03 -0.14500153356E+02  0.41048991875E+03  0.93098014286E+02 0.  0.
         23    2    4    4    0    0 -0.48456451628E+02  0.62538868086E+03  0.38884474089E+02  0.63523445056E+03  0.92475807642E+02 0.  0.
          2    1    3    3  502    0  0.13833983784E+03 -0.29070319050E+03 -0.44650172001E+03  0.55046347896E+03  0.00000000000E+00 0. -1.
         -2    1    3    3    0  502  0.29304095918E+03 -0.44867419328E+03 -0.59702986195E+03  0.80226316850E+03  0.00000000000E+00 0.  1.
         15    1    5    5    0    0 -0.13696847863E+03 -0.76201475745E+00  0.13452078639E+02  0.13764105838E+03  0.17770000000E+01 0. -1.
        -15    1    5    5    0    0 -0.24595586676E+03  0.11475071768E+03 -0.27952231994E+02  0.27284886037E+03  0.17770000000E+01 0.  1.
          3    1    6    6  503    0 -0.59422143422E+02  0.39302859227E+03 -0.96242643830E+01  0.39761173515E+03  0.00000000000E+00 0. -1.
         -3    1    6    6    0  503  0.10965691794E+02  0.23236008860E+03  0.48508738472E+02  0.23762271541E+03  0.00000000000E+00 0.  1.
<mgrwt>
<rscale>  0 0.94817197E+03</rscale>
<asrwt>0</asrwt>
<pdfrwt beam="1">  1        1 0.26289217E+00 0.94817197E+03</pdfrwt>
<pdfrwt beam="2">  1       -1 0.10610029E+00 0.94817197E+03</pdfrwt>
<totfact> 0.39624998E+00</totfact>
</mgrwt>
</event>
<event>
12    1  0.1148249E-007  0.1237278E+04  0.7818608E-02  0.9080839E-01
         -1   -1    0    0    0  501 -0.00000000000E+00  0.00000000000E+00  0.84289475727E+03  0.84289475727E+03  0.00000000000E+00 0.  1.
          1   -1    0    0  501    0  0.00000000000E+00 -0.00000000000E+00 -0.19287199735E+04  0.19287199735E+04  0.00000000000E+00 0. -1.
         23    2    1    2    0    0  0.89568722084E+03  0.75873231038E+03 -0.22941061939E+03  0.11995879570E+04  0.91933225803E+02 0.  0.
    5000000    2    1    2    0    0 -0.89568722084E+03 -0.75873231038E+03 -0.85641459682E+03  0.15720267737E+04  0.59990990923E+03 0.  0.
         23    2    4    4    0    0 -0.93898065462E+03 -0.62602775145E+03 -0.64266918754E+03  0.13018004382E+04  0.89806909146E+02 0.  0.
         23    2    4    4    0    0  0.43293433779E+02 -0.13270455893E+03 -0.21374540928E+03  0.27022633551E+03  0.88602206771E+02 0.  0.
          3    1    3    3  502    0  0.23803116181E+03  0.25524692468E+03 -0.58499349875E+02  0.35388133673E+03  0.00000000000E+00 0. -1.
         -3    1    3    3    0  502  0.65765605903E+03  0.50348538569E+03 -0.17091126951E+03  0.84570662031E+03  0.00000000000E+00 0.  1.
         15    1    5    5    0    0 -0.39792253743E+03 -0.31894804733E+03 -0.28853337725E+03  0.58593930590E+03  0.17770000000E+01 0. -1.
        -15    1    5    5    0    0 -0.54105811719E+03 -0.30707970412E+03 -0.35413581029E+03  0.71586113229E+03  0.17770000000E+01 0.  1.
          2    1    6    6  503    0  0.43355399772E+02 -0.12697457834E+02 -0.63674887374E+02  0.78073090159E+02  0.00000000000E+00 0.  1.
         -2    1    6    6    0  503 -0.61965993252E-01 -0.12000710109E+03 -0.15007052191E+03  0.19215324535E+03  0.00000000000E+00 0. -1.
<mgrwt>
<rscale>  0 0.12372781E+04</rscale>
<asrwt>0</asrwt>
<pdfrwt beam="1">  1        1 0.29672615E+00 0.12372781E+04</pdfrwt>
<pdfrwt beam="2">  1       -1 0.12967612E+00 0.12372781E+04</pdfrwt>
<totfact> 0.16647228E+00</totfact>
</mgrwt>
</event>
<event>
12    1  0.8033771E-008  0.4546601E+03  0.7818608E-02  0.1026341E+00
         -1   -1    0    0    0  501 -0.00000000000E+00  0.00000000000E+00  0.19074612125E+03  0.19074612125E+03  0.00000000000E+00 0.  1.
          1   -1    0    0  501    0  0.00000000000E+00 -0.00000000000E+00 -0.12117523123E+04  0.12117523123E+04  0.00000000000E+00 0. -1.
         23    2    1    2    0    0  0.20364524100E+03 -0.19776683816E+03 -0.32928274052E+03  0.44382167412E+03  0.89260566624E+02 0.  0.
    5000000    2    1    2    0    0 -0.20364524100E+03  0.19776683816E+03 -0.69172345055E+03  0.95867675945E+03  0.59999724217E+03 0.  0.
         23    2    4    4    0    0  0.40842065093E+02  0.33297067925E+03 -0.24273774694E+03  0.42218369384E+03  0.82340209081E+02 0.  0.
         23    2    4    4    0    0 -0.24448730610E+03 -0.13520384109E+03 -0.44898570361E+03  0.53649306562E+03  0.90457315439E+02 0.  0.
          2    1    3    3  502    0  0.13584585113E+03 -0.17369996609E+03 -0.20992129315E+03  0.30445479600E+03  0.00000000000E+00 0.  1.
         -2    1    3    3    0  502  0.67799389870E+02 -0.24066872068E+02 -0.11936144737E+03  0.13936687812E+03  0.00000000000E+00 0. -1.
         15    1    5    5    0    0  0.41149659102E+02  0.18802761379E+03 -0.18237559946E+03  0.26516352502E+03  0.17770000000E+01 0. -1.
        -15    1    5    5    0    0 -0.30759400898E+00  0.14494306546E+03 -0.60362147476E+02  0.15702016882E+03  0.17770000000E+01 0.  1.
          4    1    6    6  503    0 -0.15431200526E+03 -0.87987939768E+02 -0.35937506948E+03  0.40087967406E+03  0.00000000000E+00 0. -1.
         -4    1    6    6    0  503 -0.90175300836E+02 -0.47215901326E+02 -0.89610634130E+02  0.13561339155E+03  0.00000000000E+00 0.  1.
<mgrwt>
<rscale>  0 0.45466013E+03</rscale>
<asrwt>0</asrwt>
<pdfrwt beam="1">  1        1 0.18642343E+00 0.45466013E+03</pdfrwt>
<pdfrwt beam="2">  1       -1 0.29345557E-01 0.45466013E+03</pdfrwt>
<totfact> 0.11679632E+02</totfact>
</mgrwt>
</event>
<event>
12    1  0.8033771E-008  0.5147757E+03  0.7818608E-02  0.1009993E+00
          1   -1    0    0  501    0  0.00000000000E+00  0.00000000000E+00  0.13268491424E+04  0.13268491424E+04  0.00000000000E+00 0. -1.
         -1   -1    0    0    0  501 -0.00000000000E+00 -0.00000000000E+00 -0.32107167675E+03  0.32107167675E+03  0.00000000000E+00 0.  1.
         23    2    1    2    0    0  0.40853935150E+03 -0.20641369965E+03  0.68212269282E+03  0.82671363821E+03  0.93021795356E+02 0.  0.
    5000000    2    1    2    0    0 -0.40853935150E+03  0.20641369965E+03  0.32365477279E+03  0.82120718091E+03  0.60009816272E+03 0.  0.
         23    2    4    4    0    0  0.31618566469E+02  0.74057668348E+02  0.32944286835E+03  0.35232462458E+03  0.95476518530E+02 0.  0.
         23    2    4    4    0    0 -0.44015791797E+03  0.13235603130E+03 -0.57880955541E+01  0.46888255633E+03  0.92521553242E+02 0.  0.
          3    1    3    3  502    0  0.52649415527E+02 -0.30258828205E+02  0.15711719355E+03  0.16844396739E+03  0.00000000000E+00 0. -1.
         -3    1    3    3    0  502  0.35588993597E+03 -0.17615487145E+03  0.52500549928E+03  0.65826967082E+03  0.00000000000E+00 0.  1.
         15    1    5    5    0    0 -0.18109829750E+02  0.36220987076E+02  0.23880347656E+03  0.24221928904E+03  0.17770000000E+01 0. -1.
        -15    1    5    5    0    0  0.49728396220E+02  0.37836681272E+02  0.90639391791E+02  0.11010533554E+03  0.17770000000E+01 0.  1.
          3    1    6    6  503    0 -0.16555111890E+03  0.96817161140E+02 -0.85192029265E+01  0.19197216590E+03  0.00000000000E+00 0. -1.
         -3    1    6    6    0  503 -0.27460679906E+03  0.35538870165E+02  0.27311073724E+01  0.27691039044E+03  0.00000000000E+00 0.  1.
<mgrwt>
<rscale>  0 0.51477570E+03</rscale>
<asrwt>0</asrwt>
<pdfrwt beam="1">  1        1 0.20413064E+00 0.51477570E+03</pdfrwt>
<pdfrwt beam="2">  1       -1 0.49395643E-01 0.51477570E+03</pdfrwt>
<totfact> 0.37773842E+01</totfact>
</mgrwt>
</event>
<event>
12    1  0.8033771E-008  0.4743357E+03  0.7818608E-02  0.1020704E+00
          3   -1    0    0  501    0  0.00000000000E+00  0.00000000000E+00  0.11942630150E+04  0.11942630150E+04  0.00000000000E+00 0. -1.
         -3   -1    0    0    0  501 -0.00000000000E+00 -0.00000000000E+00 -0.25627837950E+03  0.25627837950E+03  0.00000000000E+00 0.  1.
         23    2    1    2    0    0 -0.63472439168E+02 -0.34608911454E+03  0.53175772541E+03  0.64505068390E+03  0.97558600495E+02 0.  0.
    5000000    2    1    2    0    0  0.63472439168E+02  0.34608911454E+03  0.40622691013E+03  0.80549071065E+03  0.59999046383E+03 0.  0.
         23    2    4    4    0    0 -0.10622962795E+03 -0.48259900444E+02 -0.64795226699E+02  0.16224908065E+03  0.92263703180E+02 0.  0.
         23    2    4    4    0    0  0.16970206711E+03  0.39434901498E+03  0.47102213683E+03  0.64324163000E+03  0.87109149794E+02 0.  0.
          4    1    3    3  502    0 -0.65788096688E+02 -0.10833047737E+03  0.20312138364E+03  0.23941984564E+03  0.00000000000E+00 0.  1.
         -4    1    3    3    0  502  0.23156575206E+01 -0.23775863717E+03  0.32863634177E+03  0.40563083826E+03  0.00000000000E+00 0. -1.
         15    1    5    5    0    0 -0.46873436006E+00 -0.42701921199E+02 -0.21142946445E+02  0.47684963032E+02  0.17770000000E+01 0.  1.
        -15    1    5    5    0    0 -0.10576089359E+03 -0.55579792452E+01 -0.43652280254E+02  0.11456411762E+03  0.17770000000E+01 0. -1.
          4    1    6    6  503    0  0.62072374625E+02  0.23603801231E+03  0.22913623290E+03  0.33476907888E+03  0.00000000000E+00 0. -1.
         -4    1    6    6    0  503  0.10762969249E+03  0.15831100267E+03  0.24188590393E+03  0.30847255111E+03  0.00000000000E+00 0.  1.
<mgrwt>
<rscale>  0 0.47433570E+03</rscale>
<asrwt>0</asrwt>
<pdfrwt beam="1">  1        3 0.18373277E+00 0.47433570E+03</pdfrwt>
<pdfrwt beam="2">  1       -3 0.39427443E-01 0.47433570E+03</pdfrwt>
<totfact> 0.31691511E+00</totfact>
</mgrwt>
</event>
<event>
12    1  0.8033771E-008  0.5971832E+03  0.7818608E-02  0.9911267E-01
         -1   -1    0    0    0  501 -0.00000000000E+00  0.00000000000E+00  0.28685011402E+03  0.28685011402E+03  0.00000000000E+00 0.  1.
          1   -1    0    0  501    0  0.00000000000E+00 -0.00000000000E+00 -0.14016977726E+04  0.14016977726E+04  0.00000000000E+00 0. -1.
         23    2    1    2    0    0 -0.19009961261E+03  0.44434496747E+03 -0.51504037123E+03  0.71219340097E+03  0.91501604133E+02 0.  0.
    5000000    2    1    2    0    0  0.19009961261E+03 -0.44434496747E+03 -0.59980728738E+03  0.97635448569E+03  0.59993248529E+03 0.  0.
         23    2    4    4    0    0 -0.38570910905E+02 -0.45545805811E+03 -0.20117074216E+03  0.50777814530E+03  0.91865224513E+02 0.  0.
         23    2    4    4    0    0  0.22867052351E+03  0.11113090647E+02 -0.39863654523E+03  0.46857634040E+03  0.90768840919E+02 0.  0.
          4    1    3    3  502    0 -0.53636287722E+02  0.20616908537E+03 -0.27253825367E+03  0.34591854943E+03  0.00000000000E+00 0. -1.
         -4    1    3    3    0  502 -0.13646332489E+03  0.23817588209E+03 -0.24250211756E+03  0.36627485154E+03  0.00000000000E+00 0.  1.
         15    1    5    5    0    0 -0.25728711852E+02 -0.27698100300E+02 -0.22442384728E+02  0.43999656079E+02  0.17770000000E+01 0. -1.
        -15    1    5    5    0    0 -0.12842199053E+02 -0.42775995781E+03 -0.17872835743E+03  0.46377848922E+03  0.17770000000E+01 0.  1.
          4    1    6    6  503    0  0.18600752514E+03  0.39015939671E+02 -0.26978866177E+03  0.33001055282E+03  0.00000000000E+00 0. -1.
         -4    1    6    6    0  503  0.42662998375E+02 -0.27902849024E+02 -0.12884788346E+03  0.13856578757E+03  0.00000000000E+00 0.  1.
<mgrwt>
<rscale>  0 0.59718319E+03</rscale>
<asrwt>0</asrwt>
<pdfrwt beam="1">  1        1 0.21564581E+00 0.59718319E+03</pdfrwt>
<pdfrwt beam="2">  1       -1 0.44130787E-01 0.59718319E+03</pdfrwt>
<totfact> 0.40815507E+01</totfact>
</mgrwt>
</event>
<event>
12    1  0.8033771E-008  0.6500038E+03  0.7818608E-02  0.9806772E-01
          1   -1    0    0  501    0  0.00000000000E+00  0.00000000000E+00  0.20142962239E+04  0.20142962239E+04  0.00000000000E+00 0. -1.
         -1   -1    0    0    0  501 -0.00000000000E+00 -0.00000000000E+00 -0.28064476256E+03  0.28064476256E+03  0.00000000000E+00 0.  1.
         23    2    1    2    0    0 -0.56231688747E+03 -0.54650019751E+02  0.11519353253E+04  0.12862046825E+04  0.90446585564E+02 0.  0.
    5000000    2    1    2    0    0  0.56231688747E+03  0.54650019751E+02  0.58171613605E+03  0.10087363040E+04  0.59997363405E+03 0.  0.
         23    2    4    4    0    0 -0.51243485346E+02  0.51421127852E+02 -0.47312847901E+02  0.12529693665E+03  0.90502981042E+02 0.  0.
         23    2    4    4    0    0  0.61356037281E+03  0.32288918995E+01  0.62902898395E+03  0.88343936739E+03  0.91218947418E+02 0.  0.
          1    1    3    3  502    0 -0.15223968758E+03 -0.54560329861E+01  0.40470858580E+03  0.43243002924E+03  0.00000000000E+00 0. -1.
         -1    1    3    3    0  502 -0.41007719989E+03 -0.49193986765E+02  0.74722673953E+03  0.85377465322E+03  0.00000000000E+00 0.  1.
         15    1    5    5    0    0  0.62823437514E+01  0.56228887479E+02 -0.12865489627E+02  0.58050272889E+02  0.17770000000E+01 0.  1.
        -15    1    5    5    0    0 -0.57525829098E+02 -0.48077596273E+01 -0.34447358274E+02  0.67246663762E+02  0.17770000000E+01 0. -1.
          3    1    6    6  503    0  0.53681967424E+03 -0.27745855066E+02  0.54751845333E+03  0.76728198980E+03  0.00000000000E+00 0. -1.
         -3    1    6    6    0  503  0.76740698569E+02  0.30974746966E+02  0.81510530621E+02  0.11615737759E+03  0.00000000000E+00 0.  1.
<mgrwt>
<rscale>  0 0.65000375E+03</rscale>
<asrwt>0</asrwt>
<pdfrwt beam="1">  1        1 0.30989172E+00 0.65000375E+03</pdfrwt>
<pdfrwt beam="2">  1       -1 0.43176119E-01 0.65000375E+03</pdfrwt>
<totfact> 0.16329523E+01</totfact>
</mgrwt>
</event>
<event>
12    1  0.8033771E-008  0.7196381E+03  0.7818608E-02  0.9684225E-01
         -2   -1    0    0    0  501 -0.00000000000E+00  0.00000000000E+00  0.59283154301E+03  0.59283154301E+03  0.00000000000E+00 0.  1.
          2   -1    0    0  501    0  0.00000000000E+00 -0.00000000000E+00 -0.15886960431E+04  0.15886960431E+04  0.00000000000E+00 0. -1.
         23    2    1    2    0    0 -0.70125033078E+03 -0.13215075144E+01  0.13709037049E+03  0.72023676637E+03  0.90517717369E+02 0.  0.
    5000000    2    1    2    0    0  0.70125033078E+03  0.13215075144E+01 -0.11329548705E+04  0.14612908197E+04  0.60002528969E+03 0.  0.
         23    2    4    4    0    0  0.49960957530E+03 -0.63804808798E+02 -0.11180646307E+04  0.12297070304E+04  0.91815471331E+02 0.  0.
         23    2    4    4    0    0  0.20164075547E+03  0.65126316313E+02 -0.14890239832E+02  0.23158378932E+03  0.92243703783E+02 0.  0.
          1    1    3    3  502    0 -0.23285605860E+03  0.74962476515E+01  0.88606224005E+02  0.24925729817E+03  0.00000000000E+00 0. -1.
         -1    1    3    3    0  502 -0.46839427217E+03 -0.88177551660E+01  0.48484146484E+02  0.47097946821E+03  0.00000000000E+00 0.  1.
         15    1    5    5    0    0  0.19095207872E+03  0.18562922248E+02 -0.44971876060E+03  0.48893496481E+03  0.17770000000E+01 0. -1.
        -15    1    5    5    0    0  0.30865749658E+03 -0.82367731046E+02 -0.66834587010E+03  0.74077206556E+03  0.17770000000E+01 0.  1.
          2    1    6    6  503    0  0.19294945634E+03  0.80315814242E+02 -0.26369032645E+02  0.21065480911E+03  0.00000000000E+00 0. -1.
         -2    1    6    6    0  503  0.86912991317E+01 -0.15189497929E+02  0.11478792812E+02  0.20928980204E+02  0.00000000000E+00 0.  1.
<mgrwt>
<rscale>  0 0.71963814E+03</rscale>
<asrwt>0</asrwt>
<pdfrwt beam="1">  1        2 0.24441478E+00 0.71963814E+03</pdfrwt>
<pdfrwt beam="2">  1       -2 0.91204853E-01 0.71963814E+03</pdfrwt>
<totfact> 0.11949732E+01</totfact>
</mgrwt>
</event>
<event>
12    1  0.8033771E-008  0.6040010E+03  0.7818608E-02  0.9897140E-01
         -3   -1    0    0    0  501 -0.00000000000E+00  0.00000000000E+00  0.72539137081E+03  0.72539137081E+03  0.00000000000E+00 0.  1.
          3   -1    0    0  501    0  0.00000000000E+00 -0.00000000000E+00 -0.58776671594E+03  0.58776671594E+03  0.00000000000E+00 0. -1.
         23    2    1    2    0    0 -0.32184371751E+03  0.34745938242E+03  0.24538067914E+03  0.54121038186E+03  0.91572915246E+02 0.  0.
    5000000    2    1    2    0    0  0.32184371751E+03 -0.34745938242E+03 -0.10775602426E+03  0.77194770489E+03  0.59998374760E+03 0.  0.
         23    2    4    4    0    0  0.37631123050E+02 -0.42432526796E+03  0.26900041406E+02  0.43643368990E+03  0.91009444549E+02 0.  0.
         23    2    4    4    0    0  0.28421259446E+03  0.76865885537E+02 -0.13465606567E+03  0.33551401500E+03  0.88046777494E+02 0.  0.
          1    1    3    3  502    0 -0.96345050456E+02  0.84728671947E+02  0.11154598004E+03  0.17001124157E+03  0.00000000000E+00 0. -1.
         -1    1    3    3    0  502 -0.22549866706E+03  0.26273071048E+03  0.13383469910E+03  0.37119914029E+03  0.00000000000E+00 0.  1.
         15    1    5    5    0    0  0.55868886349E+02 -0.20800844831E+03  0.39486429965E+02  0.21897758541E+03  0.17770000000E+01 0.  1.
        -15    1    5    5    0    0 -0.18237763299E+02 -0.21631681965E+03 -0.12586388560E+02  0.21745610449E+03  0.17770000000E+01 0. -1.
          1    1    6    6  503    0  0.55078458650E+01  0.14332151549E+02 -0.25435093166E+02  0.29710114414E+02  0.00000000000E+00 0. -1.
         -1    1    6    6    0  503  0.27870474860E+03  0.62533733988E+02 -0.10922097250E+03  0.30580390058E+03  0.00000000000E+00 0.  1.
<mgrwt>
<rscale>  0 0.60400101E+03</rscale>
<asrwt>0</asrwt>
<pdfrwt beam="1">  1        3 0.90425648E-01 0.60400101E+03</pdfrwt>
<pdfrwt beam="2">  1       -3 0.11159867E+00 0.60400101E+03</pdfrwt>
<totfact> 0.19411108E+00</totfact>
</mgrwt>
</event>
<event>
12    1  0.8033771E-008  0.4216187E+03  0.7818608E-02  0.1036541E+00
          2   -1    0    0  501    0  0.00000000000E+00  0.00000000000E+00  0.12455344448E+04  0.12455344448E+04  0.00000000000E+00 0. -1.
         -2   -1    0    0    0  501 -0.00000000000E+00 -0.00000000000E+00 -0.25701651134E+03  0.25701651134E+03  0.00000000000E+00 0.  1.
         23    2    1    2    0    0  0.98867491902E+02 -0.37963186153E+03  0.46347723245E+03  0.61410412251E+03  0.91747463389E+02 0.  0.
    5000000    2    1    2    0    0 -0.98867491902E+02  0.37963186153E+03  0.52504070104E+03  0.88844683366E+03  0.59981239337E+03 0.  0.
         23    2    4    4    0    0  0.45261780815E+02  0.18921889482E+03  0.58740282872E+03  0.62544573767E+03  0.91037731847E+02 0.  0.
         23    2    4    4    0    0 -0.14412927272E+03  0.19041296671E+03 -0.62362127682E+02  0.26300109599E+03  0.90830591630E+02 0.  0.
          2    1    3    3  502    0  0.68406887746E+02 -0.27114233768E+03  0.38880837571E+03  0.47892548752E+03  0.00000000000E+00 0. -1.
         -2    1    3    3    0  502  0.30460604155E+02 -0.10848952385E+03  0.74668856743E+02  0.13517863499E+03  0.00000000000E+00 0.  1.
         15    1    5    5    0    0  0.51679641071E+02  0.16888403093E+03  0.40559916912E+03  0.44238721153E+03  0.17770000000E+01 0.  1.
        -15    1    5    5    0    0 -0.64178602561E+01  0.20334863893E+02  0.18180365960E+03  0.18305852614E+03  0.17770000000E+01 0. -1.
          3    1    6    6  503    0 -0.10597684727E+03  0.71071638811E+02 -0.50196924098E+02  0.13712038940E+03  0.00000000000E+00 0. -1.
         -3    1    6    6    0  503 -0.38152425447E+02  0.11934132790E+03 -0.12165203584E+02  0.12588070659E+03  0.00000000000E+00 0.  1.
<mgrwt>
<rscale>  0 0.42161865E+03</rscale>
<asrwt>0</asrwt>
<pdfrwt beam="1">  1        2 0.19162068E+00 0.42161865E+03</pdfrwt>
<pdfrwt beam="2">  1       -2 0.39541002E-01 0.42161865E+03</pdfrwt>
<totfact> 0.11310952E+02</totfact>
</mgrwt>
</event>
<event>
12    1  0.8033771E-008  0.9208624E+03  0.7818608E-02  0.9399872E-01
          1   -1    0    0  501    0  0.00000000000E+00  0.00000000000E+00  0.22766354136E+04  0.22766354136E+04  0.00000000000E+00 0. -1.
         -1   -1    0    0    0  501 -0.00000000000E+00 -0.00000000000E+00 -0.53378759154E+03  0.53378759154E+03  0.00000000000E+00 0.  1.
         23    2    1    2    0    0 -0.87642483438E+03  0.26409012042E+03  0.23890481738E+03  0.95038749112E+03  0.91086714106E+02 0.  0.
    5000000    2    1    2    0    0  0.87642483438E+03 -0.26409012042E+03  0.15039430047E+04  0.18600355140E+04  0.60001955804E+03 0.  0.
         23    2    4    4    0    0  0.39987712244E+03 -0.17519042018E+03  0.24696376149E+03  0.50967603655E+03  0.90471909296E+02 0.  0.
         23    2    4    4    0    0  0.47654771194E+03 -0.88899700240E+02  0.12569792432E+04  0.13503594775E+04  0.92049020078E+02 0.  0.
          4    1    3    3  502    0 -0.48657230199E+03  0.12008053330E+03  0.16933111646E+03  0.52900374908E+03  0.00000000000E+00 0. -1.
         -4    1    3    3    0  502 -0.38985253239E+03  0.14400958712E+03  0.69573700922E+02  0.42138374204E+03  0.00000000000E+00 0.  1.
         15    1    5    5    0    0  0.88168674738E+02 -0.43637455717E+02  0.15172093828E+02  0.99555476528E+02  0.17770000000E+01 0.  1.
        -15    1    5    5    0    0  0.31170844770E+03 -0.13155296446E+03  0.23179166766E+03  0.41012056003E+03  0.17770000000E+01 0. -1.
          2    1    6    6  503    0  0.40794054556E+03 -0.96496881356E+02  0.10008849208E+04  0.10851256893E+04  0.00000000000E+00 0. -1.
         -2    1    6    6    0  503  0.68607166387E+02  0.75971811160E+01  0.25609432236E+03  0.26523378817E+03  0.00000000000E+00 0.  1.
<mgrwt>
<rscale>  0 0.92086236E+03</rscale>
<asrwt>0</asrwt>
<pdfrwt beam="1">  1        1 0.35025160E+00 0.92086236E+03</pdfrwt>
<pdfrwt beam="2">  1       -1 0.82121169E-01 0.92086236E+03</pdfrwt>
<totfact> 0.29253314E+00</totfact>
</mgrwt>
</event>
<event>
12    1  0.8033771E-008  0.9735479E+03  0.7818608E-02  0.9338042E-01
          1   -1    0    0  501    0  0.00000000000E+00  0.00000000000E+00  0.17974282924E+04  0.17974282924E+04  0.00000000000E+00 0. -1.
         -1   -1    0    0    0  501 -0.00000000000E+00 -0.00000000000E+00 -0.66113913190E+03  0.66113913190E+03  0.00000000000E+00 0.  1.
         23    2    1    2    0    0 -0.94264597360E+03  0.20190538340E+03  0.84832189802E+03  0.12871581340E+04  0.88197527714E+02 0.  0.
    5000000    2    1    2    0    0  0.94264597360E+03 -0.20190538340E+03  0.28796726251E+03  0.11714092903E+04  0.59993946842E+03 0.  0.
         23    2    4    4    0    0  0.53543149900E+03 -0.17185803788E+03  0.44696048193E+03  0.72436741393E+03  0.93340252016E+02 0.  0.
         23    2    4    4    0    0  0.40721447460E+03 -0.30047345522E+02 -0.15899321942E+03  0.44704187639E+03  0.88550122084E+02 0.  0.
          3    1    3    3  502    0 -0.48040074213E+03  0.59621413057E+02  0.40784891505E+03  0.63299314644E+03  0.00000000000E+00 0. -1.
         -3    1    3    3    0  502 -0.46224523147E+03  0.14228397034E+03  0.44047298297E+03  0.65416498757E+03  0.00000000000E+00 0.  1.
         15    1    5    5    0    0  0.18079973695E+03 -0.13392780842E+02  0.15319415231E+03  0.23735946893E+03  0.17770000000E+01 0.  1.
        -15    1    5    5    0    0  0.35463176205E+03 -0.15846525703E+03  0.29376632962E+03  0.48700794500E+03  0.17770000000E+01 0. -1.
          2    1    6    6  503    0  0.70058471538E+02 -0.17630539576E+02 -0.64063503805E+02  0.96556500971E+02  0.00000000000E+00 0. -1.
         -2    1    6    6    0  503  0.33715600307E+03 -0.12416805946E+02 -0.94929715620E+02  0.35048537542E+03  0.00000000000E+00 0.  1.
<mgrwt>
<rscale>  0 0.97354790E+03</rscale>
<asrwt>0</asrwt>
<pdfrwt beam="1">  1        1 0.27652743E+00 0.97354790E+03</pdfrwt>
<pdfrwt beam="2">  1       -1 0.10171371E+00 0.97354790E+03</pdfrwt>
<totfact> 0.37949109E+00</totfact>
</mgrwt>
</event>
<event>
12    1  0.8033771E-008  0.3452962E+03  0.7818608E-02  0.1064562E+00
         -2   -1    0    0    0  501 -0.00000000000E+00  0.00000000000E+00  0.85192248419E+02  0.85192248419E+02  0.00000000000E+00 0. -1.
          2   -1    0    0  501    0  0.00000000000E+00 -0.00000000000E+00 -0.18144830741E+04  0.18144830741E+04  0.00000000000E+00 0.  1.
         23    2    1    2    0    0  0.17148392204E+02  0.75882123095E+02 -0.85187813722E+02  0.14772179742E+03  0.92263762468E+02 0.  0.
    5000000    2    1    2    0    0 -0.17148392204E+02 -0.75882123095E+02 -0.16441030119E+04  0.17519535251E+04  0.60017853695E+03 0.  0.
         23    2    4    4    0    0 -0.24627776364E+03 -0.19504118694E+03 -0.79409662343E+03  0.85880296028E+03  0.90880557693E+02 0.  0.
         23    2    4    4    0    0  0.22912937144E+03  0.11915906385E+03 -0.85000638849E+03  0.89315056478E+03  0.92238384400E+02 0.  0.
          3    1    3    3  502    0  0.46243236022E+02  0.62215152745E+02 -0.28571624378E+02  0.82616583254E+02  0.00000000000E+00 0. -1.
         -3    1    3    3    0  502 -0.29094843819E+02  0.13666970350E+02 -0.56616189344E+02  0.65105214163E+02  0.00000000000E+00 0.  1.
         15    1    5    5    0    0 -0.17344004597E+03 -0.11324002379E+03 -0.40949830107E+03  0.45890823575E+03  0.17770000000E+01 0.  1.
        -15    1    5    5    0    0 -0.72837717668E+02 -0.81801163155E+02 -0.38459832237E+03  0.39989472453E+03  0.17770000000E+01 0. -1.
          4    1    6    6  503    0  0.15581573572E+03  0.10916343857E+03 -0.70681639052E+03  0.73197309358E+03  0.00000000000E+00 0. -1.
         -4    1    6    6    0  503  0.73313635713E+02  0.99956252773E+01 -0.14318999797E+03  0.16117747121E+03  0.00000000000E+00 0.  1.
<mgrwt>
<rscale>  0 0.34529618E+03</rscale>
<asrwt>0</asrwt>
<pdfrwt beam="1">  1        2 0.27915123E+00 0.34529618E+03</pdfrwt>
<pdfrwt beam="2">  1       -2 0.13106500E-01 0.34529618E+03</pdfrwt>
<totfact> 0.39470229E+02</totfact>
</mgrwt>
</event>
<event>
12    1  0.8033771E-008  0.3845343E+03  0.7818608E-02  0.1049270E+00
          2   -1    0    0  501    0  0.00000000000E+00  0.00000000000E+00  0.19683096410E+04  0.19683096410E+04  0.00000000000E+00 0. -1.
         -2   -1    0    0    0  501 -0.00000000000E+00 -0.00000000000E+00 -0.12186116161E+03  0.12186116161E+03  0.00000000000E+00 0.  1.
         23    2    1    2    0    0  0.71321870229E+02  0.28134651982E+03  0.45475017076E+03  0.54714052490E+03  0.91226985015E+02 0.  0.
    5000000    2    1    2    0    0 -0.71321870229E+02 -0.28134651982E+03  0.13916983086E+04  0.15430302777E+04  0.59989630960E+03 0.  0.
         23    2    4    4    0    0 -0.73732827772E+02 -0.36245168135E+03  0.13658543253E+04  0.14181336822E+04  0.93473800951E+02 0.  0.
         23    2    4    4    0    0  0.24109575430E+01  0.81105161528E+02  0.25843983307E+02  0.12489659547E+03  0.91364041857E+02 0.  0.
          2    1    3    3  502    0 -0.90056708073E+00  0.54703845364E+02  0.35839017222E+02  0.65404563098E+02  0.00000000000E+00 0. -1.
         -2    1    3    3    0  502  0.72222437310E+02  0.22664267446E+03  0.41891115353E+03  0.48173596180E+03  0.00000000000E+00 0.  1.
         15    1    5    5    0    0  0.11740863188E+01 -0.11456869730E+03  0.56321417491E+03  0.57475275504E+03  0.17770000000E+01 0. -1.
        -15    1    5    5    0    0 -0.74906914091E+02 -0.24788298405E+03  0.80264015043E+03  0.84338092720E+03  0.17770000000E+01 0.  1.
          4    1    6    6  503    0 -0.29947517068E+02  0.48498156735E+02 -0.19603741351E+02  0.60276294348E+02  0.00000000000E+00 0. -1.
         -4    1    6    6    0  503  0.32358474611E+02  0.32607004793E+02  0.45447724658E+02  0.64620301124E+02  0.00000000000E+00 0.  1.
<mgrwt>
<rscale>  0 0.38453427E+03</rscale>
<asrwt>0</asrwt>
<pdfrwt beam="1">  1        2 0.30281684E+00 0.38453427E+03</pdfrwt>
<pdfrwt beam="2">  1       -2 0.18747872E-01 0.38453427E+03</pdfrwt>
<totfact> 0.17819889E+02</totfact>
</mgrwt>
</event>
<event>
12    1  0.8033771E-008  0.5153313E+03  0.7818608E-02  0.1009853E+00
         -2   -1    0    0    0  501 -0.00000000000E+00  0.00000000000E+00  0.32991053340E+03  0.32991053340E+03  0.00000000000E+00 0. -1.
          2   -1    0    0  501    0  0.00000000000E+00 -0.00000000000E+00 -0.14245943942E+04  0.14245943942E+04  0.00000000000E+00 0.  1.
         23    2    1    2    0    0 -0.47419440364E+03 -0.17078183518E+03 -0.16258866524E+03  0.53670965692E+03  0.87151672923E+02 0.  0.
    5000000    2    1    2    0    0  0.47419440364E+03  0.17078183518E+03 -0.93209519561E+03  0.12177952707E+04  0.60016422757E+03 0.  0.
         23    2    4    4    0    0  0.18477019774E+03  0.68390624832E+02 -0.86397395818E+03  0.89084822501E+03  0.91335951589E+02 0.  0.
         23    2    4    4    0    0  0.28942420590E+03  0.10239121035E+03 -0.68121237425E+02  0.32694704571E+03  0.89462488190E+02 0.  0.
          1    1    3    3  502    0 -0.17908165649E+03 -0.20319759577E+02 -0.58257918253E+02  0.18941255861E+03  0.00000000000E+00 0. -1.
         -1    1    3    3    0  502 -0.29511274715E+03 -0.15046207561E+03 -0.10433074699E+03  0.34729709831E+03  0.00000000000E+00 0.  1.
         15    1    5    5    0    0  0.53441453881E+01 -0.12442399456E+02 -0.19905444984E+02  0.24140374131E+02  0.17770000000E+01 0.  1.
        -15    1    5    5    0    0  0.17942605235E+03  0.80833024288E+02 -0.84406851320E+03  0.86670785088E+03  0.17770000000E+01 0. -1.
          1    1    6    6  503    0  0.27407104861E+03  0.88481734297E+02 -0.84937852332E+02  0.30026387686E+03  0.00000000000E+00 0. -1.
         -1    1    6    6    0  503  0.15353157293E+02  0.13909476056E+02  0.16816614907E+02  0.26683168851E+02  0.00000000000E+00 0.  1.
<mgrwt>
<rscale>  0 0.51533129E+03</rscale>
<asrwt>0</asrwt>
<pdfrwt beam="1">  1        2 0.21916836E+00 0.51533129E+03</pdfrwt>
<pdfrwt beam="2">  1       -2 0.50755468E-01 0.51533129E+03</pdfrwt>
<totfact> 0.53982861E+01</totfact>
</mgrwt>
</event>
<event>
12    1  0.8033771E-008  0.3876842E+03  0.7818608E-02  0.1048130E+00
         -1   -1    0    0    0  501 -0.00000000000E+00  0.00000000000E+00  0.94698253202E+02  0.94698253202E+02  0.00000000000E+00 0.  1.
          1   -1    0    0  501    0  0.00000000000E+00 -0.00000000000E+00 -0.18878100275E+04  0.18878100275E+04  0.00000000000E+00 0. -1.
         23    2    1    2    0    0 -0.14467460041E+03 -0.47841156826E+02 -0.17254248357E+03  0.24774379376E+03  0.91578176554E+02 0.  0.
    5000000    2    1    2    0    0  0.14467460041E+03  0.47841156826E+02 -0.16205692907E+04  0.17347644869E+04  0.59995290049E+03 0.  0.
         23    2    4    4    0    0 -0.16028177596E+02 -0.25028783748E+03 -0.63954874399E+03  0.69319977422E+03  0.92749269377E+02 0.  0.
         23    2    4    4    0    0  0.16070277801E+03  0.29812899430E+03 -0.98102054670E+03  0.10415647127E+04  0.88031003410E+02 0.  0.
          2    1    3    3  502    0 -0.88759027223E+01 -0.39269611413E+02 -0.26850081707E+02  0.48392260924E+02  0.00000000000E+00 0. -1.
         -2    1    3    3    0  502 -0.13579869769E+03 -0.85715454135E+01 -0.14569240186E+03  0.19935153284E+03  0.00000000000E+00 0.  1.
         15    1    5    5    0    0  0.56214328181E+01 -0.72325607874E+02 -0.92775292814E+02  0.11778372870E+03  0.17770000000E+01 0.  1.
        -15    1    5    5    0    0 -0.21649610414E+02 -0.17796222960E+03 -0.54677345118E+03  0.57541604552E+03  0.17770000000E+01 0. -1.
          1    1    6    6  503    0  0.51920992268E+02  0.17665977018E+03 -0.45481963866E+03  0.49067847675E+03  0.00000000000E+00 0. -1.
         -1    1    6    6    0  503  0.10878178574E+03  0.12146922412E+03 -0.52620090805E+03  0.55088623594E+03  0.00000000000E+00 0.  1.
<mgrwt>
<rscale>  0 0.38768420E+03</rscale>
<asrwt>0</asrwt>
<pdfrwt beam="1">  1        1 0.29043232E+00 0.38768420E+03</pdfrwt>
<pdfrwt beam="2">  1       -1 0.14568962E-01 0.38768420E+03</pdfrwt>
<totfact> 0.13172983E+02</totfact>
</mgrwt>
</event>
<event>
12    1  0.8033771E-008  0.8399752E+03  0.7818608E-02  0.9503891E-01
          2   -1    0    0  501    0  0.00000000000E+00  0.00000000000E+00  0.32715322993E+04  0.32715322993E+04  0.00000000000E+00 0.  1.
         -2   -1    0    0    0  501 -0.00000000000E+00 -0.00000000000E+00 -0.57240977332E+03  0.57240977332E+03  0.00000000000E+00 0. -1.
         23    2    1    2    0    0 -0.72184921781E+03 -0.23083138918E+03 -0.19906020183E+03  0.78880620414E+03  0.90779073931E+02 0.  0.
    5000000    2    1    2    0    0  0.72184921781E+03  0.23083138918E+03  0.28981827278E+04  0.30551358684E+04  0.60003552194E+03 0.  0.
         23    2    4    4    0    0  0.57419833340E+03  0.37710168670E+03  0.16996327267E+04  0.18354131329E+04  0.89891903785E+02 0.  0.
         23    2    4    4    0    0  0.14765088440E+03 -0.14627029752E+03  0.11985500010E+04  0.12197227356E+04  0.89474370898E+02 0.  0.
          1    1    3    3  502    0 -0.53277747543E+03 -0.21145364108E+03 -0.15109254105E+03  0.59278447738E+03  0.00000000000E+00 0. -1.
         -1    1    3    3    0  502 -0.18907174237E+03 -0.19377748107E+02 -0.47967660776E+02  0.19602172677E+03  0.00000000000E+00 0.  1.
         15    1    5    5    0    0  0.99036762054E+02  0.34747830717E+02  0.20955356801E+03  0.23437480149E+03  0.17770000000E+01 0.  1.
        -15    1    5    5    0    0  0.47516157135E+03  0.34235385599E+03  0.14900791587E+04  0.16010383314E+04  0.17770000000E+01 0. -1.
          3    1    6    6  503    0  0.50033745595E+02 -0.11188780343E+03  0.62313514259E+03  0.63507453278E+03  0.00000000000E+00 0. -1.
         -3    1    6    6    0  503  0.97617138808E+02 -0.34382494087E+02  0.57541485846E+03  0.58464820279E+03  0.00000000000E+00 0.  1.
<mgrwt>
<rscale>  0 0.83997524E+03</rscale>
<asrwt>0</asrwt>
<pdfrwt beam="1">  1        2 0.50331265E+00 0.83997524E+03</pdfrwt>
<pdfrwt beam="2">  1       -2 0.88063044E-01 0.83997524E+03</pdfrwt>
<totfact> 0.13678440E+00</totfact>
</mgrwt>
</event>
<event>
12    1  0.8033771E-008  0.1373390E+04  0.7818608E-02  0.8973309E-01
         -2   -1    0    0    0  501 -0.00000000000E+00  0.00000000000E+00  0.88810940312E+03  0.88810940312E+03  0.00000000000E+00 0.  1.
          2   -1    0    0  501    0  0.00000000000E+00 -0.00000000000E+00 -0.25702181823E+04  0.25702181823E+04  0.00000000000E+00 0. -1.
         23    2    1    2    0    0  0.13302120742E+04  0.67564441524E+01 -0.14684171352E+04  0.19834303268E+04  0.90758837044E+02 0.  0.
    5000000    2    1    2    0    0 -0.13302120742E+04 -0.67564441524E+01 -0.21369164398E+03  0.14748972586E+04  0.60012331462E+03 0.  0.
         23    2    4    4    0    0 -0.94331768420E+03 -0.21692314696E+03  0.88279820130E+01  0.97233344311E+03  0.91926526654E+02 0.  0.
         23    2    4    4    0    0 -0.38689439002E+03  0.21016670281E+03 -0.22251962599E+03  0.50256381548E+03  0.95906687377E+02 0.  0.
          4    1    3    3  502    0  0.11825747650E+04 -0.22497012966E+02 -0.13065124114E+04  0.17623744981E+04  0.00000000000E+00 0. -1.
         -4    1    3    3    0  502  0.14763730924E+03  0.29253457118E+02 -0.16190472376E+03  0.22105582872E+03  0.00000000000E+00 0.  1.
         15    1    5    5    0    0 -0.19930762038E+03 -0.83491543439E+02  0.12255188226E+02  0.21644332453E+03  0.17770000000E+01 0.  1.
        -15    1    5    5    0    0 -0.74401006382E+03 -0.13343160352E+03 -0.34272062134E+01  0.75589011858E+03  0.17770000000E+01 0. -1.
          4    1    6    6  503    0 -0.35961267089E+03  0.20432187595E+03 -0.17857088545E+03  0.45050667385E+03  0.00000000000E+00 0. -1.
         -4    1    6    6    0  503 -0.27281719130E+02  0.58448268576E+01 -0.43948740536E+02  0.52057141627E+02  0.00000000000E+00 0.  1.
<mgrwt>
<rscale>  0 0.13733901E+04</rscale>
<asrwt>0</asrwt>
<pdfrwt beam="1">  1        2 0.39541817E+00 0.13733901E+04</pdfrwt>
<pdfrwt beam="2">  1       -2 0.13663222E+00 0.13733901E+04</pdfrwt>
<totfact> 0.11633640E+00</totfact>
</mgrwt>
</event>
<event>
12    1  0.8033771E-008  0.1011875E+04  0.7818608E-02  0.9295616E-01
         -2   -1    0    0    0  501 -0.00000000000E+00  0.00000000000E+00  0.66857934010E+03  0.66857934010E+03  0.00000000000E+00 0.  1.
          2   -1    0    0  501    0  0.00000000000E+00 -0.00000000000E+00 -0.16110215388E+04  0.16110215388E+04  0.00000000000E+00 0. -1.
         23    2    1    2    0    0 -0.92224422445E+03 -0.79535294522E+02 -0.20424874669E+03  0.95229576496E+03  0.91046146747E+02 0.  0.
    5000000    2    1    2    0    0  0.92224422445E+03  0.79535294522E+02 -0.73819345199E+03  0.13273051139E+04  0.59995751539E+03 0.  0.
         23    2    4    4    0    0  0.67523318942E+03 -0.20679640560E+03 -0.43957163301E+03  0.83676141098E+03  0.90784496921E+02 0.  0.
         23    2    4    4    0    0  0.24701103502E+03  0.28633170012E+03 -0.29862181898E+03  0.49054370294E+03  0.91966514599E+02 0.  0.
          2    1    3    3  502    0 -0.52760427667E+03 -0.47379665683E+01 -0.95861108921E+02  0.53626306352E+03  0.00000000000E+00 0. -1.
         -2    1    3    3    0  502 -0.39463994778E+03 -0.74797327954E+02 -0.10838763777E+03  0.41603270145E+03  0.00000000000E+00 0.  1.
         15    1    5    5    0    0  0.17252273329E+03 -0.32917344856E+02 -0.70175159721E+02  0.18914374392E+03  0.17770000000E+01 0. -1.
        -15    1    5    5    0    0  0.50271045614E+03 -0.17387906075E+03 -0.36939647329E+03  0.64761766706E+03  0.17770000000E+01 0.  1.
          1    1    6    6  503    0  0.68624770140E+01  0.48181786758E+02 -0.21100430980E+02  0.53045323578E+02  0.00000000000E+00 0. -1.
         -1    1    6    6    0  503  0.24014855801E+03  0.23814991337E+03 -0.27752138800E+03  0.43749837936E+03  0.00000000000E+00 0.  1.
<mgrwt>
<rscale>  0 0.10118747E+04</rscale>
<asrwt>0</asrwt>
<pdfrwt beam="1">  1        2 0.24784946E+00 0.10118747E+04</pdfrwt>
<pdfrwt beam="2">  1       -2 0.10285836E+00 0.10118747E+04</pdfrwt>
<totfact> 0.84475570E+00</totfact>
</mgrwt>
</event>
<event>
12    1  0.8033771E-008  0.4547849E+03  0.7818608E-02  0.1026305E+00
          1   -1    0    0  501    0  0.00000000000E+00  0.00000000000E+00  0.70542292251E+03  0.70542292251E+03  0.00000000000E+00 0. -1.
         -1   -1    0    0    0  501 -0.00000000000E+00 -0.00000000000E+00 -0.49522818673E+03  0.49522818673E+03  0.00000000000E+00 0.  1.
         23    2    1    2    0    0  0.31857413559E+03  0.26614884116E+03 -0.43838182135E+02  0.42809999095E+03  0.94990160129E+02 0.  0.
    5000000    2    1    2    0    0 -0.31857413559E+03 -0.26614884116E+03  0.25403291792E+03  0.77255111830E+03  0.59998151762E+03 0.  0.
         23    2    4    4    0    0 -0.30552644821E+03 -0.10345889896E+03 -0.11876137197E+03  0.35552511189E+03  0.90794754176E+02 0.  0.
         23    2    4    4    0    0 -0.13047687379E+02 -0.16268994220E+03  0.37279428989E+03  0.41702600641E+03  0.91087035337E+02 0.  0.
          1    1    3    3  502    0  0.14516138419E+03  0.96149163855E+02  0.24487335310E+02  0.17582980055E+03  0.00000000000E+00 0. -1.
         -1    1    3    3    0  502  0.17341275140E+03  0.16999967730E+03 -0.68325517445E+02  0.25227019040E+03  0.00000000000E+00 0.  1.
         15    1    5    5    0    0 -0.33777652169E+02 -0.21736716882E+02 -0.48841280855E+02  0.63261703197E+02  0.17770000000E+01 0. -1.
        -15    1    5    5    0    0 -0.27174879604E+03 -0.81722182077E+02 -0.69920091117E+02  0.29226340869E+03  0.17770000000E+01 0.  1.
          1    1    6    6  503    0 -0.26070954160E+02 -0.14051159041E+03  0.22177327829E+03  0.26383060598E+03  0.00000000000E+00 0. -1.
         -1    1    6    6    0  503  0.13023266781E+02 -0.22178351787E+02  0.15102101160E+03  0.15319540042E+03  0.00000000000E+00 0.  1.
<mgrwt>
<rscale>  0 0.45478488E+03</rscale>
<asrwt>0</asrwt>
<pdfrwt beam="1">  1        1 0.10852660E+00 0.45478488E+03</pdfrwt>
<pdfrwt beam="2">  1       -1 0.76188951E-01 0.45478488E+03</pdfrwt>
<totfact> 0.49293084E+01</totfact>
</mgrwt>
</event>
<event>
12    1  0.8033771E-008  0.5312574E+03  0.7818608E-02  0.1005928E+00
         -3   -1    0    0    0  501 -0.00000000000E+00  0.00000000000E+00  0.89063551253E+03  0.89063551253E+03  0.00000000000E+00 0.  1.
          3   -1    0    0  501    0  0.00000000000E+00 -0.00000000000E+00 -0.62156418245E+03  0.62156418245E+03  0.00000000000E+00 0. -1.
         23    2    1    2    0    0 -0.32091072111E+02 -0.51822611476E+03  0.45690644820E+03  0.69685168643E+03  0.85150616801E+02 0.  0.
    5000000    2    1    2    0    0  0.32091072111E+02  0.51822611476E+03 -0.18783511812E+03  0.81534800855E+03  0.59993516359E+03 0.  0.
         23    2    4    4    0    0  0.73004185253E+01  0.92811961842E+02 -0.33146876469E+03  0.35677418062E+03  0.93535648930E+02 0.  0.
         23    2    4    4    0    0  0.24790653586E+02  0.42541415292E+03  0.14363364657E+03  0.45857382793E+03  0.89819559254E+02 0.  0.
          3    1    3    3  502    0  0.27879717145E+02 -0.22429757123E+03  0.20450109144E+03  0.30480711194E+03  0.00000000000E+00 0. -1.
         -3    1    3    3    0  502 -0.59970789256E+02 -0.29392854353E+03  0.25240535676E+03  0.39204457449E+03  0.00000000000E+00 0.  1.
         15    1    5    5    0    0 -0.21301211344E+02  0.22384353151E+02 -0.21799676949E+03  0.22018299232E+03  0.17770000000E+01 0. -1.
        -15    1    5    5    0    0  0.28601629869E+02  0.70427608691E+02 -0.11347199520E+03  0.13659118830E+03  0.17770000000E+01 0.  1.
          4    1    6    6  503    0 -0.87895770649E+01  0.28545466696E+03  0.13065631583E+03  0.31405842836E+03  0.00000000000E+00 0. -1.
         -4    1    6    6    0  503  0.33580230651E+02  0.13995948596E+03  0.12977330735E+02  0.14451539957E+03  0.00000000000E+00 0.  1.
<mgrwt>
<rscale>  0 0.53125738E+03</rscale>
<asrwt>0</asrwt>
<pdfrwt beam="1">  1        3 0.95625259E-01 0.53125738E+03</pdfrwt>
<pdfrwt beam="2">  1       -3 0.13702085E+00 0.53125738E+03</pdfrwt>
<totfact> 0.10350143E+00</totfact>
</mgrwt>
</event>
<event>
12    1  0.8033771E-008  0.4261328E+03  0.7818608E-02  0.1035089E+00
         -2   -1    0    0    0  501 -0.00000000000E+00  0.00000000000E+00  0.53123457956E+03  0.53123457956E+03  0.00000000000E+00 0.  1.
          2   -1    0    0  501    0  0.00000000000E+00 -0.00000000000E+00 -0.61121637725E+03  0.61121637725E+03  0.00000000000E+00 0. -1.
         23    2    1    2    0    0  0.40445853879E+03 -0.16294721262E+02 -0.23874562230E+01  0.41443565898E+03  0.88876250743E+02 0.  0.
    5000000    2    1    2    0    0 -0.40445853879E+03  0.16294721262E+02 -0.77594341469E+02  0.72801529783E+03  0.60011096016E+03 0.  0.
         23    2    4    4    0    0 -0.12605121784E+03  0.14519320781E+02  0.24650136137E+03  0.29169512085E+03  0.90682976208E+02 0.  0.
         23    2    4    4    0    0 -0.27840732095E+03  0.17754004812E+01 -0.32409570284E+03  0.43632017698E+03  0.88450459745E+02 0.  0.
          1    1    3    3  502    0  0.28580058498E+03  0.29287558242E+02  0.19941647325E+00  0.28729736374E+03  0.00000000000E+00 0. -1.
         -1    1    3    3    0  502  0.11865795380E+03 -0.45582279505E+02 -0.25868726963E+01  0.12713829524E+03  0.00000000000E+00 0.  1.
         15    1    5    5    0    0 -0.10456276613E+03  0.48782621710E+02  0.17834090394E+03  0.21241881270E+03  0.17770000000E+01 0. -1.
        -15    1    5    5    0    0 -0.21488451711E+02 -0.34263300929E+02  0.68160457431E+02  0.79276308149E+02  0.17770000000E+01 0.  1.
          2    1    6    6  503    0 -0.11867858717E+03  0.22867929097E+02 -0.19695342538E+03  0.23108050762E+03  0.00000000000E+00 0.  1.
         -2    1    6    6    0  503 -0.15972873378E+03 -0.21092528616E+02 -0.12714227747E+03  0.20523966936E+03  0.00000000000E+00 0. -1.
<mgrwt>
<rscale>  0 0.42613282E+03</rscale>
<asrwt>0</asrwt>
<pdfrwt beam="1">  1        2 0.94033288E-01 0.42613282E+03</pdfrwt>
<pdfrwt beam="2">  1       -2 0.81728397E-01 0.42613282E+03</pdfrwt>
<totfact> 0.66471714E+01</totfact>
</mgrwt>
</event>
<event>
12    1  0.8033771E-008  0.1070510E+04  0.7818608E-02  0.9234421E-01
         -1   -1    0    0    0  501 -0.00000000000E+00  0.00000000000E+00  0.20479426474E+04  0.20479426474E+04  0.00000000000E+00 0.  1.
          1   -1    0    0  501    0  0.00000000000E+00 -0.00000000000E+00 -0.61838693489E+03  0.61838693489E+03  0.00000000000E+00 0. -1.
         23    2    1    2    0    0 -0.22072950836E+03 -0.10148291536E+04  0.54777158234E+03  0.11776791147E+04  0.90965179718E+02 0.  0.
    5000000    2    1    2    0    0  0.22072950836E+03  0.10148291536E+04  0.88178413013E+03  0.14886504676E+04  0.59994769419E+03 0.  0.
         23    2    4    4    0    0  0.18418759167E+03  0.98296921235E+03  0.93502421330E+03  0.13720749050E+04  0.90364396836E+02 0.  0.
         23    2    4    4    0    0  0.36541916686E+02  0.31859941197E+02 -0.53240083169E+02  0.11657556256E+03  0.91678720552E+02 0.  0.
          4    1    3    3  502    0 -0.57955788587E+02 -0.35304368868E+03  0.14491121891E+03  0.38600256594E+03  0.00000000000E+00 0. -1.
         -4    1    3    3    0  502 -0.16277371977E+03 -0.66178546487E+03  0.40286036343E+03  0.79167654871E+03  0.00000000000E+00 0.  1.
         15    1    5    5    0    0  0.32243846234E+02  0.13766868219E+03  0.92540637760E+02  0.16899484916E+03  0.17770000000E+01 0. -1.
        -15    1    5    5    0    0  0.15194374544E+03  0.84530053017E+03  0.84248357554E+03  0.12030800559E+04  0.17770000000E+01 0.  1.
          4    1    6    6  503    0  0.30294660140E+02  0.62904590376E+02 -0.47361774729E+02  0.84367598217E+02  0.00000000000E+00 0. -1.
         -4    1    6    6    0  503  0.62472565455E+01 -0.31044649179E+02 -0.58783084394E+01  0.32207964343E+02  0.00000000000E+00 0.  1.
<mgrwt>
<rscale>  0 0.10705102E+04</rscale>
<asrwt>0</asrwt>
<pdfrwt beam="1">  1        1 0.95136452E-01 0.10705102E+04</pdfrwt>
<pdfrwt beam="2">  1       -1 0.31506810E+00 0.10705102E+04</pdfrwt>
<totfact> 0.86927936E-01</totfact>
</mgrwt>
</event>
<event>
12    1  0.8033771E-008  0.1212474E+04  0.7818608E-02  0.9102007E-01
         -2   -1    0    0    0  501 -0.00000000000E+00  0.00000000000E+00  0.51501585037E+03  0.51501585037E+03  0.00000000000E+00 0.  1.
          2   -1    0    0  501    0  0.00000000000E+00 -0.00000000000E+00 -0.28907697747E+04  0.28907697747E+04  0.00000000000E+00 0. -1.
         23    2    1    2    0    0  0.30835366088E+03 -0.10993056492E+04 -0.12287974937E+04  0.16797593292E+04  0.89962397498E+02 0.  0.
    5000000    2    1    2    0    0 -0.30835366088E+03  0.10993056492E+04 -0.11469564306E+04  0.17260262959E+04  0.60008568550E+03 0.  0.
         23    2    4    4    0    0  0.86332240802E+02  0.73290218559E+03 -0.64907232133E+03  0.98695509840E+03  0.90479934261E+02 0.  0.
         23    2    4    4    0    0 -0.39468590168E+03  0.36640346357E+03 -0.49788410927E+03  0.73907119748E+03  0.91154756220E+02 0.  0.
          3    1    3    3  502    0  0.15874980818E+03 -0.50786915850E+03 -0.63435576171E+03  0.82797331851E+03  0.00000000000E+00 0. -1.
         -3    1    3    3    0  502  0.14960385270E+03 -0.59143649066E+03 -0.59444173202E+03  0.85178601068E+03  0.00000000000E+00 0.  1.
         15    1    5    5    0    0  0.43125608461E+02  0.48742178800E+03 -0.48220118265E+03  0.68699414539E+03  0.17770000000E+01 0. -1.
        -15    1    5    5    0    0  0.43206632341E+02  0.24548039759E+03 -0.16687113867E+03  0.29996095301E+03  0.17770000000E+01 0.  1.
          4    1    6    6  503    0 -0.13921427268E+03  0.18191354394E+03 -0.24114485586E+03  0.33260185311E+03  0.00000000000E+00 0. -1.
         -4    1    6    6    0  503 -0.25547162900E+03  0.18448991962E+03 -0.25673925341E+03  0.40646934436E+03  0.00000000000E+00 0.  1.
<mgrwt>
<rscale>  0 0.12124742E+04</rscale>
<asrwt>0</asrwt>
<pdfrwt beam="1">  1        2 0.44473381E+00 0.12124742E+04</pdfrwt>
<pdfrwt beam="2">  1       -2 0.79233208E-01 0.12124742E+04</pdfrwt>
<totfact> 0.28474602E+00</totfact>
</mgrwt>
</event>
<event>
12    1  0.8033771E-008  0.3740880E+03  0.7818608E-02  0.1053141E+00
          1   -1    0    0  501    0  0.00000000000E+00  0.00000000000E+00  0.25848871750E+03  0.25848871750E+03  0.00000000000E+00 0. -1.
         -1   -1    0    0    0  501 -0.00000000000E+00 -0.00000000000E+00 -0.64864337874E+03  0.64864337874E+03  0.00000000000E+00 0.  1.
         23    2    1    2    0    0 -0.47158338120E+02  0.15994316414E+03 -0.47646311571E+02  0.19627451497E+03  0.91911857855E+02 0.  0.
    5000000    2    1    2    0    0  0.47158338120E+02 -0.15994316414E+03 -0.34250834967E+03  0.71085758126E+03  0.60016731553E+03 0.  0.
         23    2    4    4    0    0  0.28325636210E+03 -0.11182434513E+02 -0.62668440938E+02  0.30516467615E+03  0.94015597471E+02 0.  0.
         23    2    4    4    0    0 -0.23609802398E+03 -0.14876072962E+03 -0.27983990873E+03  0.40569290511E+03  0.91675117294E+02 0.  0.
          3    1    3    3  502    0 -0.33651674079E+02  0.12028675075E+03  0.96710503577E+01  0.12527915545E+03  0.00000000000E+00 0. -1.
         -3    1    3    3    0  502 -0.13506664042E+02  0.39656413385E+02 -0.57317361929E+02  0.70995359529E+02  0.00000000000E+00 0.  1.
         15    1    5    5    0    0  0.15144550211E+03  0.22542268862E+02  0.49850694164E+01  0.15320542628E+03  0.17770000000E+01 0. -1.
        -15    1    5    5    0    0  0.13181085999E+03 -0.33724703376E+02 -0.67653510355E+02  0.15195924987E+03  0.17770000000E+01 0.  1.
          4    1    6    6  503    0 -0.22720182053E+03 -0.11002529128E+03 -0.22638229626E+03  0.33907989624E+03  0.00000000000E+00 0. -1.
         -4    1    6    6    0  503 -0.88962034484E+01 -0.38735438342E+02 -0.53457612467E+02  0.66613008865E+02  0.00000000000E+00 0.  1.
<mgrwt>
<rscale>  0 0.37408796E+03</rscale>
<asrwt>0</asrwt>
<pdfrwt beam="1">  1        1 0.39767496E-01 0.37408796E+03</pdfrwt>
<pdfrwt beam="2">  1       -1 0.99791287E-01 0.37408796E+03</pdfrwt>
<totfact> 0.10674588E+02</totfact>
</mgrwt>
</event>
<event>
12    1  0.8033771E-008  0.7441124E+03  0.7818608E-02  0.9644633E-01
         -2   -1    0    0    0  501 -0.00000000000E+00  0.00000000000E+00  0.30918567523E+03  0.30918567523E+03  0.00000000000E+00 0.  1.
          2   -1    0    0  501    0  0.00000000000E+00 -0.00000000000E+00 -0.28268411333E+04  0.28268411333E+04  0.00000000000E+00 0. -1.
         23    2    1    2    0    0  0.30558190981E+03 -0.60785449196E+03 -0.19467783528E+04  0.20641350914E+04  0.88545658807E+02 0.  0.
    5000000    2    1    2    0    0 -0.30558190981E+03  0.60785449196E+03 -0.57087710527E+03  0.10718917171E+04  0.60015314454E+03 0.  0.
         23    2    4    4    0    0 -0.15254209520E+02  0.45958924176E+03 -0.79769937001E+02  0.47546003763E+03  0.90796709674E+02 0.  0.
         23    2    4    4    0    0 -0.29032770029E+03  0.14826525020E+03 -0.49110716827E+03  0.59643167948E+03  0.90949104404E+02 0.  0.
          4    1    3    3  502    0  0.49208458347E+02 -0.42623246810E+02 -0.20416870021E+03  0.21429669080E+03  0.00000000000E+00 0. -1.
         -4    1    3    3    0  502  0.25637345146E+03 -0.56523124515E+03 -0.17426096526E+04  0.18498384006E+04  0.00000000000E+00 0.  1.
         15    1    5    5    0    0  0.37408430605E+02  0.19230582616E+03 -0.42749782095E+02  0.20052835972E+03  0.17770000000E+01 0. -1.
        -15    1    5    5    0    0 -0.52662640126E+02  0.26728341560E+03 -0.37020154906E+02  0.27493167791E+03  0.17770000000E+01 0.  1.
          4    1    6    6  503    0 -0.26378182985E+03  0.10615273374E+03 -0.44781251208E+03  0.53045763508E+03  0.00000000000E+00 0. -1.
         -4    1    6    6    0  503 -0.26545870437E+02  0.42112516460E+02 -0.43294656183E+02  0.65974044396E+02  0.00000000000E+00 0.  1.
<mgrwt>
<rscale>  0 0.74411243E+03</rscale>
<asrwt>0</asrwt>
<pdfrwt beam="1">  1        2 0.43489864E+00 0.74411243E+03</pdfrwt>
<pdfrwt beam="2">  1       -2 0.47567026E-01 0.74411243E+03</pdfrwt>
<totfact> 0.98800450E+00</totfact>
</mgrwt>
</event>
<event>
12    1  0.8033771E-008  0.8132332E+03  0.7818608E-02  0.9541058E-01
         -1   -1    0    0    0  501 -0.00000000000E+00  0.00000000000E+00  0.12046299455E+04  0.12046299455E+04  0.00000000000E+00 0.  1.
          1   -1    0    0  501    0  0.00000000000E+00 -0.00000000000E+00 -0.81328101979E+03  0.81328101979E+03  0.00000000000E+00 0. -1.
         23    2    1    2    0    0  0.78315490580E+03  0.41241792280E+02 -0.26451103269E+03  0.83254663057E+03  0.90195974174E+02 0.  0.
    5000000    2    1    2    0    0 -0.78315490580E+03 -0.41241792280E+02  0.65585995836E+03  0.11853643347E+04  0.59991985217E+03 0.  0.
         23    2    4    4    0    0 -0.23714441252E+03 -0.12057036529E+03 -0.44911263032E+02  0.28853370774E+03  0.10227411000E+03 0.  0.
         23    2    4    4    0    0 -0.54601049327E+03  0.79328573006E+02  0.70077122140E+03  0.89683062694E+03  0.93831697295E+02 0.  0.
          4    1    3    3  502    0  0.74794991618E+03  0.52457068555E+02 -0.23656898405E+03  0.78622242741E+03  0.00000000000E+00 0. -1.
         -4    1    3    3    0  502  0.35204989615E+02 -0.11215276275E+02 -0.27942048642E+02  0.46324203156E+02  0.00000000000E+00 0.  1.
         15    1    5    5    0    0 -0.16646401355E+03 -0.13075449315E+03 -0.47911022352E+02  0.21703831247E+03  0.17770000000E+01 0. -1.
        -15    1    5    5    0    0 -0.70680398978E+02  0.10184127869E+02  0.29997593197E+01  0.71495395273E+02  0.17770000000E+01 0.  1.
          3    1    6    6  503    0 -0.46158366154E+03  0.39518000232E+02  0.61580748438E+03  0.77061015225E+03  0.00000000000E+00 0. -1.
         -3    1    6    6    0  503 -0.84426831731E+02  0.39810572774E+02  0.84963737020E+02  0.12622047468E+03  0.00000000000E+00 0.  1.
<mgrwt>
<rscale>  0 0.81323322E+03</rscale>
<asrwt>0</asrwt>
<pdfrwt beam="1">  1        1 0.12512016E+00 0.81323322E+03</pdfrwt>
<pdfrwt beam="2">  1       -1 0.18532768E+00 0.81323322E+03</pdfrwt>
<totfact> 0.42174013E+00</totfact>
</mgrwt>
</event>
<event>
12    1  0.8033771E-008  0.9558191E+03  0.7818608E-02  0.9358375E-01
         -2   -1    0    0    0  501 -0.00000000000E+00  0.00000000000E+00  0.10875421774E+04  0.10875421774E+04  0.00000000000E+00 0.  1.
          2   -1    0    0  501    0  0.00000000000E+00 -0.00000000000E+00 -0.87191173895E+03  0.87191173895E+03  0.00000000000E+00 0. -1.
         23    2    1    2    0    0  0.49446904683E+03  0.72735081308E+03  0.67694315142E+02  0.88448895291E+03  0.64802345363E+02 0.  0.
    5000000    2    1    2    0    0 -0.49446904683E+03 -0.72735081308E+03  0.14793612335E+03  0.10749649635E+04  0.60010476797E+03 0.  0.
         23    2    4    4    0    0 -0.36014342617E+03 -0.97482801120E+02  0.17860137257E+03  0.42362668145E+03  0.91405311815E+02 0.  0.
         23    2    4    4    0    0 -0.13432562066E+03 -0.62986801196E+03 -0.30665249221E+02  0.65133828202E+03  0.92326135296E+02 0.  0.
          1    1    3    3  502    0  0.45264871389E+03  0.64066784322E+03  0.74710412243E+02  0.78798971390E+03  0.00000000000E+00 0. -1.
         -1    1    3    3    0  502  0.41820332940E+02  0.86682969859E+02 -0.70160971014E+01  0.96499239009E+02  0.00000000000E+00 0.  1.
         15    1    5    5    0    0 -0.14005571204E+03  0.39693826775E+01  0.84610729692E+02  0.16368717660E+03  0.17770000000E+01 0. -1.
        -15    1    5    5    0    0 -0.22008771413E+03 -0.10145218380E+03  0.93990642879E+02  0.25993950486E+03  0.17770000000E+01 0.  1.
          3    1    6    6  503    0 -0.99275552538E+02 -0.28422472279E+03 -0.40547552620E+02  0.30378188294E+03  0.00000000000E+00 0. -1.
         -3    1    6    6    0  503 -0.35050068119E+02 -0.34564328916E+03  0.98823033993E+01  0.34755639908E+03  0.00000000000E+00 0.  1.
<mgrwt>
<rscale>  0 0.95581912E+03</rscale>
<asrwt>0</asrwt>
<pdfrwt beam="1">  1        2 0.13414027E+00 0.95581912E+03</pdfrwt>
<pdfrwt beam="2">  1       -2 0.16731418E+00 0.95581912E+03</pdfrwt>
<totfact> 0.67978022E+00</totfact>
</mgrwt>
</event>
<event>
12    1  0.8033771E-008  0.6561056E+03  0.7818608E-02  0.9795390E-01
         -2   -1    0    0    0  501 -0.00000000000E+00  0.00000000000E+00  0.22572751479E+03  0.22572751479E+03  0.00000000000E+00 0.  1.
          2   -1    0    0  501    0  0.00000000000E+00 -0.00000000000E+00 -0.26049805429E+04  0.26049805429E+04  0.00000000000E+00 0. -1.
         23    2    1    2    0    0  0.43038604442E+03 -0.48039932053E+03 -0.93766836451E+03  0.11412967627E+04  0.85560998111E+02 0.  0.
    5000000    2    1    2    0    0 -0.43038604442E+03  0.48039932053E+03 -0.14415846636E+04  0.16894112950E+04  0.59994043606E+03 0.  0.
         23    2    4    4    0    0 -0.17522463281E+03  0.16310439394E+03 -0.11571597420E+04  0.11851883296E+04  0.91356405555E+02 0.  0.
         23    2    4    4    0    0 -0.25516141161E+03  0.31729492659E+03 -0.28442492160E+03  0.50422296536E+03  0.86947376941E+02 0.  0.
          3    1    3    3  502    0  0.81123706965E+02 -0.61879122125E+02 -0.10796962720E+03  0.14855141192E+03  0.00000000000E+00 0. -1.
         -3    1    3    3    0  502  0.34926233746E+03 -0.41852019841E+03 -0.82969873731E+03  0.99274535080E+03  0.00000000000E+00 0.  1.
         15    1    5    5    0    0  0.61269549175E+01  0.13846976713E+02 -0.16063422598E+03  0.16135609882E+03  0.17770000000E+01 0. -1.
        -15    1    5    5    0    0 -0.18135158773E+03  0.14925741723E+03 -0.99652551604E+03  0.10238322308E+04  0.17770000000E+01 0.  1.
          4    1    6    6  503    0 -0.13529986321E+03  0.22933661493E+03 -0.20206145662E+03  0.33426062912E+03  0.00000000000E+00 0.  1.
         -4    1    6    6    0  503 -0.11986154841E+03  0.87958311665E+02 -0.82363464972E+02  0.16996233624E+03  0.00000000000E+00 0. -1.
<mgrwt>
<rscale>  0 0.65610555E+03</rscale>
<asrwt>0</asrwt>
<pdfrwt beam="1">  1        2 0.40076622E+00 0.65610555E+03</pdfrwt>
<pdfrwt beam="2">  1       -2 0.34727312E-01 0.65610555E+03</pdfrwt>
<totfact> 0.24991902E+01</totfact>
</mgrwt>
</event>
<event>
12    1  0.8033771E-008  0.1753791E+04  0.7818608E-02  0.8731267E-01
         -2   -1    0    0    0  501 -0.00000000000E+00  0.00000000000E+00  0.24421402898E+04  0.24421402898E+04  0.00000000000E+00 0.  1.
          2   -1    0    0  501    0  0.00000000000E+00 -0.00000000000E+00 -0.14119539919E+04  0.14119539919E+04  0.00000000000E+00 0. -1.
         23    2    1    2    0    0  0.51873636067E+03 -0.16526222504E+04  0.10372867953E+04  0.20209824151E+04  0.90323375425E+02 0.  0.
    5000000    2    1    2    0    0 -0.51873636067E+03  0.16526222504E+04 -0.71004973608E+01  0.18331118666E+04  0.60000081998E+03 0.  0.
         23    2    4    4    0    0  0.48817905498E+02  0.51827359073E+02 -0.62025977929E+02  0.13167808121E+03  0.91774898998E+02 0.  0.
         23    2    4    4    0    0 -0.56755426617E+03  0.16007948913E+04  0.54925480568E+02  0.17014337854E+04  0.84840960051E+02 0.  0.
          3    1    3    3  502    0  0.12060885149E+03 -0.29520729464E+03  0.16479248419E+03  0.35895738565E+03  0.00000000000E+00 0. -1.
         -3    1    3    3    0  502  0.39812750918E+03 -0.13574149557E+04  0.87249431116E+03  0.16620250295E+04  0.00000000000E+00 0.  1.
         15    1    5    5    0    0  0.34055979831E+01  0.15001076853E+02 -0.70849331181E+02  0.72521830246E+02  0.17770000000E+01 0. -1.
        -15    1    5    5    0    0  0.45412307515E+02  0.36826282220E+02  0.88233532521E+01  0.59156250959E+02  0.17770000000E+01 0.  1.
          2    1    6    6  503    0 -0.22552105766E+03  0.74884577133E+03  0.44464603787E+02  0.78333060561E+03  0.00000000000E+00 0.  1.
         -2    1    6    6    0  503 -0.34203320851E+03  0.85194911996E+03  0.10460876782E+02  0.91810317975E+03  0.00000000000E+00 0. -1.
<mgrwt>
<rscale>  0 0.17537906E+04</rscale>
<asrwt>0</asrwt>
<pdfrwt beam="1">  1        2 0.21722369E+00 0.17537906E+04</pdfrwt>
<pdfrwt beam="2">  1       -2 0.37571389E+00 0.17537906E+04</pdfrwt>
<totfact> 0.13949538E-01</totfact>
</mgrwt>
</event>
<event>
12    1  0.8033771E-008  0.6510692E+03  0.7818608E-02  0.9804775E-01
         -2   -1    0    0    0  501 -0.00000000000E+00  0.00000000000E+00  0.52413854044E+03  0.52413854044E+03  0.00000000000E+00 0.  1.
          2   -1    0    0  501    0  0.00000000000E+00 -0.00000000000E+00 -0.10125712090E+04  0.10125712090E+04  0.00000000000E+00 0. -1.
         23    2    1    2    0    0 -0.18511804692E+03 -0.55116192472E+03 -0.36282345987E+03  0.69182720249E+03  0.94529659458E+02 0.  0.
    5000000    2    1    2    0    0  0.18511804692E+03  0.55116192472E+03 -0.12560920869E+03  0.84488254695E+03  0.60000057189E+03 0.  0.
         23    2    4    4    0    0 -0.68117804093E+02  0.38445055514E+03  0.14601801064E+03  0.42680646666E+03  0.91652801205E+02 0.  0.
         23    2    4    4    0    0  0.25323585101E+03  0.16671136958E+03 -0.27162721934E+03  0.41807608029E+03  0.95316240166E+02 0.  0.
          3    1    3    3  502    0 -0.10493794225E+03 -0.41400222720E+03 -0.29504961191E+03  0.51909930585E+03  0.00000000000E+00 0. -1.
         -3    1    3    3    0  502 -0.80180104673E+02 -0.13715969753E+03 -0.67773847959E+02  0.17272789664E+03  0.00000000000E+00 0.  1.
         15    1    5    5    0    0 -0.77112627322E+02  0.17439710155E+03  0.64568087015E+02  0.20132784684E+03  0.17770000000E+01 0.  1.
        -15    1    5    5    0    0  0.89948232287E+01  0.21005345359E+03  0.81449923627E+02  0.22547861983E+03  0.17770000000E+01 0. -1.
          3    1    6    6  503    0  0.25336101723E+03  0.14186589993E+03 -0.26300366028E+03  0.39177629323E+03  0.00000000000E+00 0. -1.
         -3    1    6    6    0  503 -0.12516621770E+00  0.24845469645E+02 -0.86235590541E+01  0.26299787057E+02  0.00000000000E+00 0.  1.
<mgrwt>
<rscale>  0 0.65106915E+03</rscale>
<asrwt>0</asrwt>
<pdfrwt beam="1">  1        2 0.15578019E+00 0.65106915E+03</pdfrwt>
<pdfrwt beam="2">  1       -2 0.80636699E-01 0.65106915E+03</pdfrwt>
<totfact> 0.34458759E+01</totfact>
</mgrwt>
</event>
<event>
12    1  0.8033771E-008  0.1051285E+04  0.7818608E-02  0.9254018E-01
         -2   -1    0    0    0  501 -0.00000000000E+00  0.00000000000E+00  0.12320818686E+04  0.12320818686E+04  0.00000000000E+00 0.  1.
          2   -1    0    0  501    0  0.00000000000E+00 -0.00000000000E+00 -0.10559509592E+04  0.10559509592E+04  0.00000000000E+00 0. -1.
         23    2    1    2    0    0  0.10045301523E+04 -0.27186250103E+03  0.28181531404E+03  0.10821409537E+04  0.92839249085E+02 0.  0.
    5000000    2    1    2    0    0 -0.10045301523E+04  0.27186250103E+03 -0.10568440468E+03  0.12058918741E+04  0.60001331022E+03 0.  0.
         23    2    4    4    0    0 -0.30186428463E+03  0.36983094527E+01 -0.28838820583E+03  0.42649465109E+03  0.87144743507E+02 0.  0.
         23    2    4    4    0    0 -0.70266586764E+03  0.26816419158E+03  0.18270380115E+03  0.77939722305E+03  0.91804123864E+02 0.  0.
          2    1    3    3  502    0  0.49811836927E+03 -0.99169068591E+02  0.16950669377E+03  0.53543340688E+03  0.00000000000E+00 0. -1.
         -2    1    3    3    0  502  0.50641178300E+03 -0.17269343244E+03  0.11230862027E+03  0.54670754682E+03  0.00000000000E+00 0.  1.
         15    1    5    5    0    0 -0.21249753620E+03  0.87877599889E+01 -0.14485980841E+03  0.25733237154E+03  0.17770000000E+01 0.  1.
        -15    1    5    5    0    0 -0.89366748429E+02 -0.50894505363E+01 -0.14352839741E+03  0.16916227955E+03  0.17770000000E+01 0. -1.
          1    1    6    6  503    0 -0.53497138998E+03  0.24399409818E+03  0.15042030727E+03  0.60692155743E+03  0.00000000000E+00 0. -1.
         -1    1    6    6    0  503 -0.16769447766E+03  0.24170093399E+02  0.32283493880E+02  0.17247566562E+03  0.00000000000E+00 0.  1.
<mgrwt>
<rscale>  0 0.10512854E+04</rscale>
<asrwt>0</asrwt>
<pdfrwt beam="1">  1        2 0.16245399E+00 0.10512854E+04</pdfrwt>
<pdfrwt beam="2">  1       -2 0.18955106E+00 0.10512854E+04</pdfrwt>
<totfact> 0.35723056E+00</totfact>
</mgrwt>
</event>
<event>
12    1  0.8033771E-008  0.5308887E+03  0.7818608E-02  0.1006017E+00
         -2   -1    0    0    0  501 -0.00000000000E+00  0.00000000000E+00  0.15156210572E+03  0.15156210572E+03  0.00000000000E+00 0.  1.
          2   -1    0    0  501    0  0.00000000000E+00 -0.00000000000E+00 -0.24260318768E+04  0.24260318768E+04  0.00000000000E+00 0. -1.
         23    2    1    2    0    0 -0.35766776282E+02  0.44103336317E+03 -0.70391932255E+03  0.83907581687E+03  0.11294301249E+03 0.  0.
    5000000    2    1    2    0    0  0.35766776282E+02 -0.44103336317E+03 -0.15705504485E+04  0.17385181657E+04  0.60002250896E+03 0.  0.
         23    2    4    4    0    0 -0.14440375122E+03 -0.26364044313E+02 -0.10408893540E+03  0.20126068615E+03  0.90132408820E+02 0.  0.
         23    2    4    4    0    0  0.18017052750E+03 -0.41466931886E+03 -0.14664615131E+04  0.15372574795E+04  0.90769630686E+02 0.  0.
          3    1    3    3  502    0  0.36470964869E+01  0.28460218175E+03 -0.35773868857E+03  0.45715278898E+03  0.00000000000E+00 0. -1.
         -3    1    3    3    0  502 -0.39413872768E+02  0.15643118142E+03 -0.34618063398E+03  0.38192302789E+03  0.00000000000E+00 0.  1.
         15    1    5    5    0    0 -0.10611613848E+03 -0.42225956440E+02 -0.11092421155E+03  0.15921998832E+03  0.17770000000E+01 0. -1.
        -15    1    5    5    0    0 -0.38287612735E+02  0.15861912127E+02  0.68352761480E+01  0.42040697833E+02  0.17770000000E+01 0.  1.
          1    1    6    6  503    0  0.42838724851E+02 -0.20540584603E+03 -0.61827837270E+03  0.65291260065E+03  0.00000000000E+00 0. -1.
         -1    1    6    6    0  503  0.13733180265E+03 -0.20926347282E+03 -0.84818314044E+03  0.88434487888E+03  0.00000000000E+00 0.  1.
<mgrwt>
<rscale>  0 0.53088867E+03</rscale>
<asrwt>0</asrwt>
<pdfrwt beam="1">  1        2 0.37323562E+00 0.53088867E+03</pdfrwt>
<pdfrwt beam="2">  1       -2 0.23317250E-01 0.53088867E+03</pdfrwt>
<totfact> 0.66936235E+01</totfact>
</mgrwt>
</event>
<event>
12    1  0.8033771E-008  0.1234184E+04  0.7818608E-02  0.9083451E-01
         -2   -1    0    0    0  501 -0.00000000000E+00  0.00000000000E+00  0.11003419905E+04  0.11003419905E+04  0.00000000000E+00 0.  1.
          2   -1    0    0  501    0  0.00000000000E+00 -0.00000000000E+00 -0.17245224557E+04  0.17245224557E+04  0.00000000000E+00 0. -1.
         23    2    1    2    0    0 -0.24932188836E+03  0.11389419291E+04 -0.91108971220E+03  0.14825995731E+04  0.93096233001E+02 0.  0.
    5000000    2    1    2    0    0  0.24932188836E+03 -0.11389419291E+04  0.28690924701E+03  0.13422648731E+04  0.60000662625E+03 0.  0.
         23    2    4    4    0    0 -0.62908653924E+02 -0.89075161018E+03  0.24611121137E+03  0.93124347447E+03  0.96165225560E+02 0.  0.
         23    2    4    4    0    0  0.31223054228E+03 -0.24819031893E+03  0.40798035638E+02  0.41102139859E+03  0.90486266607E+02 0.  0.
          2    1    3    3  502    0 -0.15176914067E+03  0.82761166035E+03 -0.61739942103E+03  0.10436268382E+04  0.00000000000E+00 0. -1.
         -2    1    3    3    0  502 -0.97552747694E+02  0.31133026876E+03 -0.29369029117E+03  0.43897273487E+03  0.00000000000E+00 0.  1.
         15    1    5    5    0    0 -0.21979265887E+02 -0.55466627504E+02  0.71323385313E+00  0.59693394334E+02  0.17770000000E+01 0. -1.
        -15    1    5    5    0    0 -0.40929388037E+02 -0.83528498268E+03  0.24539797751E+03  0.87155008014E+03  0.17770000000E+01 0.  1.
          4    1    6    6  503    0  0.66892593082E+01 -0.26224843330E+02  0.18349818928E+02  0.32698691908E+02  0.00000000000E+00 0. -1.
         -4    1    6    6    0  503  0.30554128297E+03 -0.22196547560E+03  0.22448216710E+02  0.37832270668E+03  0.00000000000E+00 0.  1.
<mgrwt>
<rscale>  0 0.12341837E+04</rscale>
<asrwt>0</asrwt>
<pdfrwt beam="1">  1        2 0.26531115E+00 0.12341837E+04</pdfrwt>
<pdfrwt beam="2">  1       -2 0.16928338E+00 0.12341837E+04</pdfrwt>
<totfact> 0.19827594E+00</totfact>
</mgrwt>
</event>
<event>
12    1  0.8033771E-008  0.1353351E+04  0.7818608E-02  0.8988296E-01
          2   -1    0    0  501    0  0.00000000000E+00  0.00000000000E+00  0.37274773873E+04  0.37274773873E+04  0.00000000000E+00 0. -1.
         -2   -1    0    0    0  501 -0.00000000000E+00 -0.00000000000E+00 -0.74794992590E+03  0.74794992590E+03  0.00000000000E+00 0.  1.
         23    2    1    2    0    0  0.74785213954E+03  0.10699970490E+04  0.27161830695E+04  0.30148736553E+04  0.87385255182E+02 0.  0.
    5000000    2    1    2    0    0 -0.74785213954E+03 -0.10699970490E+04  0.26334439192E+03  0.14605536579E+04  0.59974178727E+03 0.  0.
         23    2    4    4    0    0 -0.69366882966E+02 -0.52444250526E+03 -0.30189534254E+02  0.53717164984E+03  0.88262492839E+02 0.  0.
         23    2    4    4    0    0 -0.67848525657E+03 -0.54555454376E+03  0.29353392618E+03  0.92338200808E+03  0.92196330870E+02 0.  0.
          3    1    3    3  502    0  0.95548136354E+02  0.11295373279E+03  0.36691896490E+03  0.39562295044E+03  0.00000000000E+00 0. -1.
         -3    1    3    3    0  502  0.65230400319E+03  0.95704331623E+03  0.23492641046E+04  0.26192507048E+04  0.00000000000E+00 0.  1.
         15    1    5    5    0    0 -0.42068117467E+02 -0.21225260512E+03  0.28752926819E+02  0.21829059397E+03  0.17770000000E+01 0.  1.
        -15    1    5    5    0    0 -0.27298765499E+02 -0.31218990014E+03 -0.58942461073E+02  0.31888105587E+03  0.17770000000E+01 0. -1.
          1    1    6    6  503    0 -0.40054212592E+03 -0.33264570115E+03  0.12831415795E+03  0.53623845466E+03  0.00000000000E+00 0. -1.
         -1    1    6    6    0  503 -0.27794313066E+03 -0.21290884260E+03  0.16521976823E+03  0.38714355342E+03  0.00000000000E+00 0.  1.
<mgrwt>
<rscale>  0 0.13533506E+04</rscale>
<asrwt>0</asrwt>
<pdfrwt beam="1">  1        2 0.57345805E+00 0.13533506E+04</pdfrwt>
<pdfrwt beam="2">  1       -2 0.11506922E+00 0.13533506E+04</pdfrwt>
<totfact> 0.32175894E-01</totfact>
</mgrwt>
</event>
<event>
12    1  0.8033771E-008  0.6600526E+03  0.7818608E-02  0.9788097E-01
         -1   -1    0    0    0  501 -0.00000000000E+00  0.00000000000E+00  0.17082281716E+04  0.17082281716E+04  0.00000000000E+00 0.  1.
          1   -1    0    0  501    0  0.00000000000E+00 -0.00000000000E+00 -0.29049402180E+03  0.29049402180E+03  0.00000000000E+00 0. -1.
         23    2    1    2    0    0 -0.48577940427E+03  0.29785402007E+03  0.65938847816E+03  0.87623929010E+03  0.91123440996E+02 0.  0.
    5000000    2    1    2    0    0  0.48577940427E+03 -0.29785402007E+03  0.75834567160E+03  0.11224829033E+04  0.60015086735E+03 0.  0.
         23    2    4    4    0    0  0.47757681864E+03 -0.42432049366E+02  0.25505787573E+03  0.55062974834E+03  0.90876307512E+02 0.  0.
         23    2    4    4    0    0  0.82025856354E+01 -0.25542197070E+03  0.50328779587E+03  0.57185315492E+03  0.91704742459E+02 0.  0.
          2    1    3    3  502    0 -0.43635346882E+03  0.26696363242E+03  0.62821732966E+03  0.81014254553E+03  0.00000000000E+00 0. -1.
         -2    1    3    3    0  502 -0.49425935450E+02  0.30890387650E+02  0.31171148497E+02  0.66096744572E+02  0.00000000000E+00 0.  1.
         15    1    5    5    0    0  0.34113007725E+03 -0.70925930578E+02  0.18856848690E+03  0.39618360543E+03  0.17770000000E+01 0. -1.
        -15    1    5    5    0    0  0.13644674138E+03  0.28493881211E+02  0.66489388836E+02  0.15444614290E+03  0.17770000000E+01 0.  1.
          3    1    6    6  503    0  0.10387449100E+02 -0.41805511757E+01  0.23552120207E+01  0.11442164594E+02  0.00000000000E+00 0. -1.
         -3    1    6    6    0  503 -0.21848634643E+01 -0.25124141953E+03  0.50093258385E+03  0.56041099033E+03  0.00000000000E+00 0.  1.
<mgrwt>
<rscale>  0 0.66005257E+03</rscale>
<asrwt>0</asrwt>
<pdfrwt beam="1">  1        1 0.44691389E-01 0.66005257E+03</pdfrwt>
<pdfrwt beam="2">  1       -1 0.26280433E+00 0.66005257E+03</pdfrwt>
<totfact> 0.55447934E+00</totfact>
</mgrwt>
</event>
<event>
12    1  0.8033771E-008  0.1057528E+04  0.7818608E-02  0.9247607E-01
         -2   -1    0    0    0  501 -0.00000000000E+00  0.00000000000E+00  0.73206609911E+03  0.73206609911E+03  0.00000000000E+00 0.  1.
          2   -1    0    0  501    0  0.00000000000E+00 -0.00000000000E+00 -0.16106333125E+04  0.16106333125E+04  0.00000000000E+00 0. -1.
         23    2    1    2    0    0 -0.64897085266E+03  0.74148477353E+03 -0.59388553433E+03  0.11542000220E+04  0.92275814408E+02 0.  0.
    5000000    2    1    2    0    0  0.64897085266E+03 -0.74148477353E+03 -0.28468167902E+03  0.11884993896E+04  0.60043676075E+03 0.  0.
         23    2    4    4    0    0  0.57098308055E+03 -0.81091905964E+03 -0.32077183805E+03  0.10469009606E+04  0.97445624210E+02 0.  0.
         23    2    4    4    0    0  0.77987772107E+02  0.69434286113E+02  0.36090159036E+02  0.14159842896E+03  0.88568633372E+02 0.  0.
          4    1    3    3  502    0 -0.15877728014E+03  0.15467659355E+03 -0.17460589662E+03  0.28217422351E+03  0.00000000000E+00 0. -1.
         -4    1    3    3    0  502 -0.49019357252E+03  0.58680817998E+03 -0.41927963771E+03  0.87202579849E+03  0.00000000000E+00 0.  1.
         15    1    5    5    0    0  0.37167458810E+03 -0.58518299516E+03 -0.25508149559E+03  0.73868184246E+03  0.17770000000E+01 0. -1.
        -15    1    5    5    0    0  0.19930849245E+03 -0.22573606448E+03 -0.65690342460E+02  0.30821911815E+03  0.17770000000E+01 0.  1.
          2    1    6    6  503    0  0.90341329991E+02  0.33420950298E+02  0.37825503150E+02  0.10348567298E+03  0.00000000000E+00 0.  1.
         -2    1    6    6    0  503 -0.12353557884E+02  0.36013335816E+02 -0.17353441139E+01  0.38112755977E+02  0.00000000000E+00 0. -1.
<mgrwt>
<rscale>  0 0.10575277E+04</rscale>
<asrwt>0</asrwt>
<pdfrwt beam="1">  1        2 0.24778974E+00 0.10575277E+04</pdfrwt>
<pdfrwt beam="2">  1       -2 0.11262555E+00 0.10575277E+04</pdfrwt>
<totfact> 0.67518655E+00</totfact>
</mgrwt>
</event>
<event>
12    1  0.8033771E-008  0.9219925E+03  0.7818608E-02  0.9398500E-01
          1   -1    0    0  501    0  0.00000000000E+00  0.00000000000E+00  0.32262436957E+04  0.32262436957E+04  0.00000000000E+00 0. -1.
         -1   -1    0    0    0  501 -0.00000000000E+00 -0.00000000000E+00 -0.49398533001E+03  0.49398533001E+03  0.00000000000E+00 0.  1.
         23    2    1    2    0    0  0.82695833154E+03 -0.39718211283E+03  0.17588057245E+03  0.93882629514E+03  0.94059150704E+02 0.  0.
    5000000    2    1    2    0    0 -0.82695833154E+03  0.39718211283E+03  0.25563777932E+04  0.27814027306E+04  0.59959987908E+03 0.  0.
         23    2    4    4    0    0 -0.61264687933E+03  0.24192009169E+03  0.10051255558E+04  0.12052452929E+04  0.92072273507E+02 0.  0.
         23    2    4    4    0    0 -0.21431145220E+03  0.15526202114E+03  0.15512522374E+04  0.15761574377E+04  0.88617551911E+02 0.  0.
          3    1    3    3  502    0  0.52252057366E+03 -0.25622183205E+03  0.15720465612E+03  0.60281894547E+03  0.00000000000E+00 0. -1.
         -3    1    3    3    0  502  0.30443775788E+03 -0.14096028078E+03  0.18675916331E+02  0.33600734967E+03  0.00000000000E+00 0.  1.
         15    1    5    5    0    0 -0.57254349730E+03  0.21964799813E+03  0.96938091661E+03  0.11470631276E+04  0.17770000000E+01 0. -1.
        -15    1    5    5    0    0 -0.40103382028E+02  0.22272093564E+02  0.35744639229E+02  0.58182165346E+02  0.17770000000E+01 0.  1.
          3    1    6    6  503    0 -0.75975384207E+02  0.78264955769E+02  0.42235683953E+03  0.43621435351E+03  0.00000000000E+00 0. -1.
         -3    1    6    6    0  503 -0.13833606800E+03  0.76997065370E+02  0.11288953979E+04  0.11399430842E+04  0.00000000000E+00 0.  1.
<mgrwt>
<rscale>  0 0.92199252E+03</rscale>
<asrwt>0</asrwt>
<pdfrwt beam="1">  1        1 0.49634517E+00 0.92199252E+03</pdfrwt>
<pdfrwt beam="2">  1       -1 0.75997745E-01 0.92199252E+03</pdfrwt>
<totfact> 0.74005098E-01</totfact>
</mgrwt>
</event>
<event>
12    1  0.8033771E-008  0.7330755E+03  0.7818608E-02  0.9662283E-01
          2   -1    0    0  501    0  0.00000000000E+00  0.00000000000E+00  0.21574670434E+04  0.21574670434E+04  0.00000000000E+00 0. -1.
         -2   -1    0    0    0  501 -0.00000000000E+00 -0.00000000000E+00 -0.27091798956E+03  0.27091798956E+03  0.00000000000E+00 0.  1.
         23    2    1    2    0    0 -0.39154984689E+03 -0.46609656893E+03  0.11292521181E+04  0.12864051308E+04  0.95239278312E+02 0.  0.
    5000000    2    1    2    0    0  0.39154984689E+03  0.46609656893E+03  0.75729693574E+03  0.11419799022E+04  0.60005179267E+03 0.  0.
         23    2    4    4    0    0  0.15820910648E+03  0.55890418194E+03  0.51058548944E+03  0.77859309821E+03  0.90031464421E+02 0.  0.
         23    2    4    4    0    0  0.23334074041E+03 -0.92807613010E+02  0.24671144630E+03  0.36338680395E+03  0.90123678248E+02 0.  0.
          1    1    3    3  502    0 -0.37922714997E+03 -0.41500504246E+03  0.10061614373E+04  0.11525637746E+04  0.00000000000E+00 0. -1.
         -1    1    3    3    0  502 -0.12322696920E+02 -0.51091526472E+02  0.12309068078E+03  0.13384135621E+03  0.00000000000E+00 0.  1.
         15    1    5    5    0    0  0.13708027658E+03  0.33443103764E+03  0.33508067081E+03  0.49286644727E+03  0.17770000000E+01 0. -1.
        -15    1    5    5    0    0  0.21128829900E+02  0.22447314430E+03  0.17550481863E+03  0.28572665094E+03  0.17770000000E+01 0.  1.
          1    1    6    6  503    0  0.11381833559E+03 -0.10481003774E+01  0.13001700415E+03  0.17280084895E+03  0.00000000000E+00 0. -1.
         -1    1    6    6    0  503  0.11952240483E+03 -0.91759512633E+02  0.11669444214E+03  0.19058595500E+03  0.00000000000E+00 0.  1.
<mgrwt>
<rscale>  0 0.73307545E+03</rscale>
<asrwt>0</asrwt>
<pdfrwt beam="1">  1        2 0.33191799E+00 0.73307545E+03</pdfrwt>
<pdfrwt beam="2">  1       -2 0.41679692E-01 0.73307545E+03</pdfrwt>
<totfact> 0.30890612E+01</totfact>
</mgrwt>
</event>
<event>
12    1  0.8033771E-008  0.9334142E+03  0.7818608E-02  0.9384750E-01
          1   -1    0    0  501    0  0.00000000000E+00  0.00000000000E+00  0.23807025638E+04  0.23807025638E+04  0.00000000000E+00 0. -1.
         -1   -1    0    0    0  501 -0.00000000000E+00 -0.00000000000E+00 -0.58392235832E+03  0.58392235832E+03  0.00000000000E+00 0.  1.
         23    2    1    2    0    0  0.67404271159E+03  0.63288693835E+03  0.90230122090E+02  0.93345811342E+03  0.91231139425E+02 0.  0.
    5000000    2    1    2    0    0 -0.67404271159E+03 -0.63288693835E+03  0.17065500834E+04  0.20311668087E+04  0.59870356928E+03 0.  0.
         23    2    4    4    0    0 -0.26472083468E+03 -0.15379634587E+03  0.15704717517E+03  0.35556485467E+03  0.89622063826E+02 0.  0.
         23    2    4    4    0    0 -0.40932187691E+03 -0.47909059247E+03  0.15495029082E+04  0.16756019540E+04  0.98032908136E+02 0.  0.
          1    1    3    3  502    0  0.34641043469E+03  0.35701479282E+03  0.87802149532E+02  0.50514252347E+03  0.00000000000E+00 0. -1.
         -1    1    3    3    0  502  0.32763227691E+03  0.27587214553E+03  0.24279725584E+01  0.42831558996E+03  0.00000000000E+00 0.  1.
         15    1    5    5    0    0 -0.10706273493E+03 -0.59875195423E+02  0.11308676654E+03  0.16685095964E+03  0.17770000000E+01 0. -1.
        -15    1    5    5    0    0 -0.15765809976E+03 -0.93921150451E+02  0.43960408636E+02  0.18871389503E+03  0.17770000000E+01 0.  1.
          1    1    6    6  503    0 -0.28958993892E+03 -0.28172288943E+03  0.90800057963E+03  0.99382854244E+03  0.00000000000E+00 0. -1.
         -1    1    6    6    0  503 -0.11973193799E+03 -0.19736770304E+03  0.64150232858E+03  0.68177341159E+03  0.00000000000E+00 0.  1.
<mgrwt>
<rscale>  0 0.93341421E+03</rscale>
<asrwt>0</asrwt>
<pdfrwt beam="1">  1        1 0.36626193E+00 0.93341421E+03</pdfrwt>
<pdfrwt beam="2">  1       -1 0.89834210E-01 0.93341421E+03</pdfrwt>
<totfact> 0.20409221E+00</totfact>
</mgrwt>
</event>
<event>
12    1  0.8033771E-008  0.6840663E+03  0.7818608E-02  0.9744876E-01
          1   -1    0    0  501    0  0.00000000000E+00  0.00000000000E+00  0.11265739855E+04  0.11265739855E+04  0.00000000000E+00 0. -1.
         -1   -1    0    0    0  501 -0.00000000000E+00 -0.00000000000E+00 -0.64567151303E+03  0.64567151303E+03  0.00000000000E+00 0.  1.
         23    2    1    2    0    0  0.63177060145E+03 -0.49558439747E+02 -0.19407359623E+03  0.66899478141E+03  0.91100631118E+02 0.  0.
    5000000    2    1    2    0    0 -0.63177060145E+03  0.49558439747E+02  0.67497606869E+03  0.11032507171E+04  0.59998276615E+03 0.  0.
         23    2    4    4    0    0 -0.65395195475E+03  0.91163077183E+02  0.72868414635E+03  0.98770077815E+03  0.92781335626E+02 0.  0.
         23    2    4    4    0    0  0.22181353296E+02 -0.41604637436E+02 -0.53708077666E+02  0.11554993896E+03  0.90797976279E+02 0.  0.
          3    1    3    3  502    0  0.18379403683E+03 -0.22669039689E+02 -0.14963174194E+02  0.18579028478E+03  0.00000000000E+00 0. -1.
         -3    1    3    3    0  502  0.44797656462E+03 -0.26889400058E+02 -0.17911042203E+03  0.48320449663E+03  0.00000000000E+00 0.  1.
         15    1    5    5    0    0 -0.44688241616E+03  0.77832610462E+02  0.43809536736E+03  0.63062866868E+03  0.17770000000E+01 0. -1.
        -15    1    5    5    0    0 -0.20706953858E+03  0.13330466721E+02  0.29058877900E+03  0.35707210947E+03  0.17770000000E+01 0.  1.
          3    1    6    6  503    0  0.23737120924E+02  0.67391200130E+01  0.16940047266E+02  0.29930450209E+02  0.00000000000E+00 0.  1.
         -3    1    6    6    0  503 -0.15557676281E+01 -0.48343757449E+02 -0.70648124932E+02  0.85619488749E+02  0.00000000000E+00 0. -1.
<mgrwt>
<rscale>  0 0.68406632E+03</rscale>
<asrwt>0</asrwt>
<pdfrwt beam="1">  1        1 0.17331907E+00 0.68406632E+03</pdfrwt>
<pdfrwt beam="2">  1       -1 0.99334079E-01 0.68406632E+03</pdfrwt>
<totfact> 0.12219493E+01</totfact>
</mgrwt>
</event>
<event>
12    1  0.8033771E-008  0.8636413E+03  0.7818608E-02  0.9472209E-01
          2   -1    0    0  501    0  0.00000000000E+00  0.00000000000E+00  0.19039004497E+04  0.19039004497E+04  0.00000000000E+00 0. -1.
         -2   -1    0    0    0  501 -0.00000000000E+00 -0.00000000000E+00 -0.47746478041E+03  0.47746478041E+03  0.00000000000E+00 0.  1.
         23    2    1    2    0    0  0.63622769796E+03  0.44073407986E+03  0.11019220716E+04  0.13496266981E+04  0.90706998753E+02 0.  0.
    5000000    2    1    2    0    0 -0.63622769796E+03 -0.44073407986E+03  0.32451359770E+03  0.10317385320E+04  0.60011924690E+03 0.  0.
         23    2    4    4    0    0 -0.71063159162E+03 -0.31966871731E+03  0.17116712406E+03  0.80291510304E+03  0.90493814707E+02 0.  0.
         23    2    4    4    0    0  0.74403893663E+02 -0.12106536256E+03  0.15334647364E+03  0.22882342895E+03  0.93017521216E+02 0.  0.
          2    1    3    3  502    0  0.44454889708E+03  0.26780220559E+03  0.68790099205E+03  0.86171312980E+03  0.00000000000E+00 0. -1.
         -2    1    3    3    0  502  0.19167880088E+03  0.17293187427E+03  0.41402107951E+03  0.48791356830E+03  0.00000000000E+00 0.  1.
         15    1    5    5    0    0 -0.35827171837E+03 -0.13869962368E+03  0.12553479633E+03  0.40417614057E+03  0.17770000000E+01 0. -1.
        -15    1    5    5    0    0 -0.35235987325E+03 -0.18096909363E+03  0.45632327735E+02  0.39873896247E+03  0.17770000000E+01 0.  1.
          4    1    6    6  503    0  0.15321348253E+02 -0.10831509139E+03  0.98213068115E+02  0.14701261675E+03  0.00000000000E+00 0. -1.
         -4    1    6    6    0  503  0.59082545410E+02 -0.12750271164E+02  0.55133405527E+02  0.81810812195E+02  0.00000000000E+00 0.  1.
<mgrwt>
<rscale>  0 0.86364129E+03</rscale>
<asrwt>0</asrwt>
<pdfrwt beam="1">  1        2 0.29290776E+00 0.86364129E+03</pdfrwt>
<pdfrwt beam="2">  1       -2 0.73456121E-01 0.86364129E+03</pdfrwt>
<totfact> 0.12851328E+01</totfact>
</mgrwt>
</event>
<event>
12    1  0.8033771E-008  0.1396671E+04  0.7818608E-02  0.8956232E-01
          2   -1    0    0  501    0  0.00000000000E+00  0.00000000000E+00  0.15468583164E+04  0.15468583164E+04  0.00000000000E+00 0. -1.
         -2   -1    0    0    0  501 -0.00000000000E+00 -0.00000000000E+00 -0.14167155086E+04  0.14167155086E+04  0.00000000000E+00 0.  1.
         23    2    1    2    0    0  0.11447695342E+04 -0.77093510154E+03  0.38767619016E+03  0.14364813487E+04  0.91365308249E+02 0.  0.
    5000000    2    1    2    0    0 -0.11447695342E+04  0.77093510154E+03 -0.25753338239E+03  0.15270924763E+04  0.60070772501E+03 0.  0.
         23    2    4    4    0    0 -0.97991975689E+03  0.55107236537E+03  0.16945047349E+02  0.11280549866E+04  0.91090264941E+02 0.  0.
         23    2    4    4    0    0 -0.16484977735E+03  0.21986273617E+03 -0.27447842974E+03  0.39903748971E+03  0.91528345100E+02 0.  0.
          2    1    3    3  502    0  0.23536315728E+03 -0.12954907542E+03  0.47595889932E+02  0.27284454820E+03  0.00000000000E+00 0. -1.
         -2    1    3    3    0  502  0.90940637696E+03 -0.64138602611E+03  0.34008030022E+03  0.11636368005E+04  0.00000000000E+00 0.  1.
         15    1    5    5    0    0 -0.51367254792E+03  0.27142477717E+03 -0.34121198423E+02  0.58197792919E+03  0.17770000000E+01 0. -1.
        -15    1    5    5    0    0 -0.46624720896E+03  0.27964758820E+03  0.51066245772E+02  0.54607705742E+03  0.17770000000E+01 0.  1.
          4    1    6    6  503    0 -0.10356850073E+03  0.69257060000E+02 -0.14508123623E+03  0.19123686833E+03  0.00000000000E+00 0. -1.
         -4    1    6    6    0  503 -0.61281276614E+02  0.15060567617E+03 -0.12939719351E+03  0.20780062138E+03  0.00000000000E+00 0.  1.
<mgrwt>
<rscale>  0 0.13966708E+04</rscale>
<asrwt>0</asrwt>
<pdfrwt beam="1">  1        2 0.23797820E+00 0.13966708E+04</pdfrwt>
<pdfrwt beam="2">  1       -2 0.21795623E+00 0.13966708E+04</pdfrwt>
<totfact> 0.11557542E+00</totfact>
</mgrwt>
</event>
<event>
12    1  0.8033771E-008  0.2304807E+04  0.7818608E-02  0.8476028E-01
         -2   -1    0    0    0  501 -0.00000000000E+00  0.00000000000E+00  0.29032312381E+04  0.29032312381E+04  0.00000000000E+00 0.  1.
          2   -1    0    0  501    0  0.00000000000E+00 -0.00000000000E+00 -0.19405026458E+04  0.19405026458E+04  0.00000000000E+00 0. -1.
         23    2    1    2    0    0  0.81308463826E+03 -0.21526218665E+04  0.70866927632E+02  0.23039963960E+04  0.92139797305E+02 0.  0.
    5000000    2    1    2    0    0 -0.81308463826E+03  0.21526218665E+04  0.89186166461E+03  0.25397374879E+04  0.59996812388E+03 0.  0.
         23    2    4    4    0    0 -0.60406120136E+03  0.14974953185E+04  0.88954245597E+03  0.18456699826E+04  0.88485816923E+02 0.  0.
         23    2    4    4    0    0 -0.20902343690E+03  0.65512654801E+03  0.23192086387E+01  0.69406750533E+03  0.94035802461E+02 0.  0.
          3    1    3    3  502    0  0.18402955447E+03 -0.58657102878E+03  0.39641731671E+02  0.61603889131E+03  0.00000000000E+00 0. -1.
         -3    1    3    3    0  502  0.62905508379E+03 -0.15660508377E+04  0.31225195962E+02  0.16879575047E+04  0.00000000000E+00 0.  1.
         15    1    5    5    0    0 -0.24003721518E+03  0.60981539761E+03  0.31211658566E+03  0.72588746001E+03  0.17770000000E+01 0.  1.
        -15    1    5    5    0    0 -0.36402398618E+03  0.88767992088E+03  0.57742587031E+03  0.11197825226E+04  0.17770000000E+01 0. -1.
          1    1    6    6  503    0 -0.76031266858E+02  0.12911068028E+03 -0.19282929989E+02  0.15107002579E+03  0.00000000000E+00 0. -1.
         -1    1    6    6    0  503 -0.13299217004E+03  0.52601586773E+03  0.21602138628E+02  0.54299747954E+03  0.00000000000E+00 0.  1.
<mgrwt>
<rscale>  0 0.23048074E+04</rscale>
<asrwt>0</asrwt>
<pdfrwt beam="1">  1        2 0.29853887E+00 0.23048074E+04</pdfrwt>
<pdfrwt beam="2">  1       -2 0.44665096E+00 0.23048074E+04</pdfrwt>
<totfact> 0.22604167E-02</totfact>
</mgrwt>
</event>
<event>
12    1  0.8033771E-008  0.9424102E+03  0.7818608E-02  0.9374066E-01
          2   -1    0    0  501    0  0.00000000000E+00  0.00000000000E+00  0.19666443578E+04  0.19666443578E+04  0.00000000000E+00 0. -1.
         -2   -1    0    0    0  501 -0.00000000000E+00 -0.00000000000E+00 -0.96704273730E+03  0.96704273730E+03  0.00000000000E+00 0.  1.
         23    2    1    2    0    0 -0.34765118892E+03 -0.78328819851E+03  0.15334978828E+04  0.17589794509E+04  0.89393517690E+02 0.  0.
    5000000    2    1    2    0    0  0.34765118892E+03  0.78328819851E+03 -0.53389626230E+03  0.11747076442E+04  0.60040909336E+03 0.  0.
         23    2    4    4    0    0  0.49191804863E+03  0.68078411622E+03 -0.46637420296E+03  0.96494766280E+03  0.90380945407E+02 0.  0.
         23    2    4    4    0    0 -0.14426685971E+03  0.10250408229E+03 -0.67522059336E+02  0.20975998141E+03  0.90111084815E+02 0.  0.
          1    1    3    3  502    0 -0.15761125621E+03 -0.29607062574E+03  0.67489711367E+03  0.75364795332E+03  0.00000000000E+00 0. -1.
         -1    1    3    3    0  502 -0.19003993271E+03 -0.48721757277E+03  0.85860076917E+03  0.10053314976E+04  0.00000000000E+00 0.  1.
         15    1    5    5    0    0  0.78566716035E+02  0.17277379086E+03 -0.10757248083E+03  0.21817082307E+03  0.17770000000E+01 0.  1.
        -15    1    5    5    0    0  0.41335133259E+03  0.50801032535E+03 -0.35880172214E+03  0.74677683973E+03  0.17770000000E+01 0. -1.
          4    1    6    6  503    0 -0.31307973894E+02  0.35085639774E+01  0.18636605862E+02  0.36603583549E+02  0.00000000000E+00 0. -1.
         -4    1    6    6    0  503 -0.11295888582E+03  0.98995518316E+02 -0.86158665198E+02  0.17315639786E+03  0.00000000000E+00 0.  1.
<mgrwt>
<rscale>  0 0.94241022E+03</rscale>
<asrwt>0</asrwt>
<pdfrwt beam="1">  1        2 0.30256067E+00 0.94241022E+03</pdfrwt>
<pdfrwt beam="2">  1       -2 0.14877581E+00 0.94241022E+03</pdfrwt>
<totfact> 0.21465057E+00</totfact>
</mgrwt>
</event>
<event>
12    1  0.8033771E-008  0.7430284E+03  0.7818608E-02  0.9646352E-01
         -1   -1    0    0    0  501 -0.00000000000E+00  0.00000000000E+00  0.20459154717E+03  0.20459154717E+03  0.00000000000E+00 0.  1.
          1   -1    0    0  501    0  0.00000000000E+00 -0.00000000000E+00 -0.29036575957E+04  0.29036575957E+04  0.00000000000E+00 0. -1.
         23    2    1    2    0    0  0.41618156096E+03  0.49566831635E+03 -0.12777657929E+04  0.14351766685E+04  0.90291066703E+02 0.  0.
    5000000    2    1    2    0    0 -0.41618156096E+03 -0.49566831635E+03 -0.14213002557E+04  0.16730724744E+04  0.60015241100E+03 0.  0.
         23    2    4    4    0    0 -0.12270293175E+03 -0.52321598165E+03 -0.69494478548E+03  0.88372119605E+03  0.95937086514E+02 0.  0.
         23    2    4    4    0    0 -0.29347862921E+03  0.27547665303E+02 -0.72635547020E+03  0.78935127839E+03  0.92707022088E+02 0.  0.
          1    1    3    3  502    0  0.19884216309E+03  0.20150856845E+03 -0.47389283145E+03  0.55201297510E+03  0.00000000000E+00 0. -1.
         -1    1    3    3    0  502  0.21733939787E+03  0.29415974790E+03 -0.80387296144E+03  0.88316369337E+03  0.00000000000E+00 0.  1.
         15    1    5    5    0    0 -0.76485297902E+02 -0.23162912207E+03 -0.24632195879E+03  0.34666946231E+03  0.17770000000E+01 0. -1.
        -15    1    5    5    0    0 -0.46217633844E+02 -0.29158685958E+03 -0.44862282669E+03  0.53705173374E+03  0.17770000000E+01 0.  1.
          4    1    6    6  503    0 -0.29092503159E+03  0.32241531423E+02 -0.65065625550E+03  0.71346370137E+03  0.00000000000E+00 0. -1.
         -4    1    6    6    0  503 -0.25535976212E+01 -0.46938661200E+01 -0.75699214699E+02  0.75887577020E+02  0.00000000000E+00 0.  1.
<mgrwt>
<rscale>  0 0.74302837E+03</rscale>
<asrwt>0</asrwt>
<pdfrwt beam="1">  1        1 0.44671652E+00 0.74302837E+03</pdfrwt>
<pdfrwt beam="2">  1       -1 0.31475625E-01 0.74302837E+03</pdfrwt>
<totfact> 0.70073059E+00</totfact>
</mgrwt>
</event>
<event>
12    1  0.8033771E-008  0.6822979E+03  0.7818608E-02  0.9747993E-01
          2   -1    0    0  501    0  0.00000000000E+00  0.00000000000E+00  0.18113784995E+04  0.18113784995E+04  0.00000000000E+00 0.  1.
         -2   -1    0    0    0  501 -0.00000000000E+00 -0.00000000000E+00 -0.29867394964E+03  0.29867394964E+03  0.00000000000E+00 0. -1.
         23    2    1    2    0    0 -0.28573509838E+03  0.53220100226E+03  0.52370542956E+03  0.80484777676E+03  0.92898404453E+02 0.  0.
    5000000    2    1    2    0    0  0.28573509838E+03 -0.53220100226E+03  0.98899912025E+03  0.13052046723E+04  0.60046442325E+03 0.  0.
         23    2    4    4    0    0  0.40523913236E+03 -0.43321001831E+03  0.49480978707E+03  0.77788143553E+03  0.91504797769E+02 0.  0.
         23    2    4    4    0    0 -0.11950403398E+03 -0.98990983956E+02  0.49418933318E+03  0.52732323681E+03  0.98824440292E+02 0.  0.
          2    1    3    3  502    0 -0.13543124376E+03  0.21380353808E+03  0.27525354901E+03  0.37392257344E+03  0.00000000000E+00 0. -1.
         -2    1    3    3    0  502 -0.15030385462E+03  0.31839746418E+03  0.24845188055E+03  0.43092520332E+03  0.00000000000E+00 0.  1.
         15    1    5    5    0    0  0.20975370282E+03 -0.25580204602E+03  0.22287573259E+03  0.39888350743E+03  0.17770000000E+01 0. -1.
        -15    1    5    5    0    0  0.19548542954E+03 -0.17740797229E+03  0.27193405448E+03  0.37899792811E+03  0.17770000000E+01 0.  1.
          3    1    6    6  503    0 -0.12435690574E+03 -0.87248896365E+02  0.33741594501E+03  0.37003584944E+03  0.00000000000E+00 0. -1.
         -3    1    6    6    0  503  0.48528717575E+01 -0.11742087591E+02  0.15677338817E+03  0.15728738737E+03  0.00000000000E+00 0.  1.
<mgrwt>
<rscale>  0 0.68229786E+03</rscale>
<asrwt>0</asrwt>
<pdfrwt beam="1">  1        2 0.27867361E+00 0.68229786E+03</pdfrwt>
<pdfrwt beam="2">  1       -2 0.45949839E-01 0.68229786E+03</pdfrwt>
<totfact> 0.39586394E+01</totfact>
</mgrwt>
</event>
<event>
12    1  0.8033771E-008  0.6773059E+03  0.7818608E-02  0.9756849E-01
          2   -1    0    0  501    0  0.00000000000E+00  0.00000000000E+00  0.75263250703E+03  0.75263250703E+03  0.00000000000E+00 0.  1.
         -2   -1    0    0    0  501 -0.00000000000E+00 -0.00000000000E+00 -0.85222910457E+03  0.85222910457E+03  0.00000000000E+00 0. -1.
         23    2    1    2    0    0  0.25574900959E+03 -0.53333132894E+03  0.30373126380E+03  0.67092861014E+03  0.89680861703E+02 0.  0.
    5000000    2    1    2    0    0 -0.25574900959E+03  0.53333132894E+03 -0.40332786134E+03  0.93393300146E+03  0.59975630480E+03 0.  0.
         23    2    4    4    0    0  0.76035251234E+02  0.39010562001E+03 -0.31795583024E+02  0.40765941991E+03  0.84920488389E+02 0.  0.
         23    2    4    4    0    0 -0.33178426082E+03  0.14322570894E+03 -0.37153227832E+03  0.52627358155E+03  0.91286633084E+02 0.  0.
          2    1    3    3  502    0  0.23482712890E+03 -0.45608503563E+03  0.23029001758E+03  0.56230848508E+03  0.00000000000E+00 0. -1.
         -2    1    3    3    0  502  0.20921880687E+02 -0.77246293314E+02  0.73441246218E+02  0.10862012506E+03  0.00000000000E+00 0.  1.
         15    1    5    5    0    0  0.60743453487E+02  0.27788159426E+03  0.15582831749E+02  0.28487528841E+03  0.17770000000E+01 0. -1.
        -15    1    5    5    0    0  0.15291797747E+02  0.11222402574E+03 -0.47378414772E+02  0.12278413150E+03  0.17770000000E+01 0.  1.
          3    1    6    6  503    0 -0.11040979896E+03  0.69859657522E+02 -0.19069699590E+03  0.23116236653E+03  0.00000000000E+00 0. -1.
         -3    1    6    6    0  503 -0.22137446186E+03  0.73366051416E+02 -0.18083528242E+03  0.29511121502E+03  0.00000000000E+00 0.  1.
<mgrwt>
<rscale>  0 0.67730587E+03</rscale>
<asrwt>0</asrwt>
<pdfrwt beam="1">  1        2 0.11578962E+00 0.67730587E+03</pdfrwt>
<pdfrwt beam="2">  1       -2 0.13111217E+00 0.67730587E+03</pdfrwt>
<totfact> 0.16222124E+01</totfact>
</mgrwt>
</event>
<event>
12    1  0.8033771E-008  0.7201555E+03  0.7818608E-02  0.9683371E-01
          1   -1    0    0  501    0  0.00000000000E+00  0.00000000000E+00  0.68657216222E+03  0.68657216222E+03  0.00000000000E+00 0. -1.
         -1   -1    0    0    0  501 -0.00000000000E+00 -0.00000000000E+00 -0.81349738818E+03  0.81349738818E+03  0.00000000000E+00 0.  1.
         23    2    1    2    0    0  0.46925036959E+03  0.39895129452E+03 -0.14674790097E+03  0.63996370603E+03  0.93062096686E+02 0.  0.
    5000000    2    1    2    0    0 -0.46925036959E+03 -0.39895129452E+03  0.19822675011E+02  0.86010584437E+03  0.60002589971E+03 0.  0.
         23    2    4    4    0    0 -0.48307959905E+03 -0.51325899219E+03  0.34691203468E+02  0.71214714339E+03  0.95652402727E+02 0.  0.
         23    2    4    4    0    0  0.13829229469E+02  0.11430769767E+03 -0.14868528457E+02  0.14795870098E+03  0.91723534181E+02 0.  0.
          4    1    3    3  502    0  0.13069800756E+03  0.93228216848E+02 -0.78562806034E+02  0.17873327639E+03  0.00000000000E+00 0. -1.
         -4    1    3    3    0  502  0.33855236203E+03  0.30572307767E+03 -0.68185094935E+02  0.46123042964E+03  0.00000000000E+00 0.  1.
         15    1    5    5    0    0 -0.12329097738E+02 -0.35238201430E+02 -0.12945227194E+02  0.39553433823E+02  0.17770000000E+01 0.  1.
        -15    1    5    5    0    0 -0.47075050132E+03 -0.47802079076E+03  0.47636430662E+02  0.67259370956E+03  0.17770000000E+01 0. -1.
          2    1    6    6  503    0  0.70500225203E+01  0.82752356776E+02  0.33712500947E+02  0.89633632581E+02  0.00000000000E+00 0. -1.
         -2    1    6    6    0  503  0.67792069484E+01  0.31555340898E+02 -0.48581029404E+02  0.58325068401E+02  0.00000000000E+00 0.  1.
<mgrwt>
<rscale>  0 0.72015547E+03</rscale>
<asrwt>0</asrwt>
<pdfrwt beam="1">  1        1 0.10562649E+00 0.72015547E+03</pdfrwt>
<pdfrwt beam="2">  1       -1 0.12515344E+00 0.72015547E+03</pdfrwt>
<totfact> 0.16148832E+01</totfact>
</mgrwt>
</event>
<event>
12    1  0.8033771E-008  0.8719337E+03  0.7818608E-02  0.9461362E-01
         -1   -1    0    0    0  501 -0.00000000000E+00  0.00000000000E+00  0.12252888593E+04  0.12252888593E+04  0.00000000000E+00 0.  1.
          1   -1    0    0  501    0  0.00000000000E+00 -0.00000000000E+00 -0.73324786104E+03  0.73324786104E+03  0.00000000000E+00 0. -1.
         23    2    1    2    0    0 -0.45600346219E+03 -0.71572956496E+03  0.16377318812E+03  0.86854884565E+03  0.85717398734E+02 0.  0.
    5000000    2    1    2    0    0  0.45600346219E+03  0.71572956496E+03  0.32826781009E+03  0.10899878746E+04  0.60008819689E+03 0.  0.
         23    2    4    4    0    0  0.94265629030E+02  0.56014630045E+02  0.29896182955E+03  0.33139314596E+03  0.91758346038E+02 0.  0.
         23    2    4    4    0    0  0.36173783316E+03  0.65971493491E+03  0.29305980543E+02  0.75859472869E+03  0.92352945844E+02 0.  0.
          2    1    3    3  502    0 -0.88287548033E+02 -0.14266967573E+03  0.67664541862E+02  0.18090831307E+03  0.00000000000E+00 0. -1.
         -2    1    3    3    0  502 -0.36771591416E+03 -0.57305988922E+03  0.96108646258E+02  0.68764053258E+03  0.00000000000E+00 0.  1.
         15    1    5    5    0    0  0.10221055213E+03  0.71161180242E+02  0.24644275811E+03  0.27613058739E+03  0.17770000000E+01 0. -1.
        -15    1    5    5    0    0 -0.79449230962E+01 -0.15146550198E+02  0.52519071439E+02  0.55262558570E+02  0.17770000000E+01 0.  1.
          2    1    6    6  503    0  0.24146423124E+03  0.39992576105E+03 -0.22305094713E+02  0.46769980390E+03  0.00000000000E+00 0. -1.
         -2    1    6    6    0  503  0.12027360192E+03  0.25978917387E+03  0.51611075257E+02  0.29089492479E+03  0.00000000000E+00 0.  1.
<mgrwt>
<rscale>  0 0.87193374E+03</rscale>
<asrwt>0</asrwt>
<pdfrwt beam="1">  1        1 0.11280736E+00 0.87193374E+03</pdfrwt>
<pdfrwt beam="2">  1       -1 0.18850598E+00 0.87193374E+03</pdfrwt>
<totfact> 0.46792758E+00</totfact>
</mgrwt>
</event>
<event>
12    1  0.8033771E-008  0.8877279E+03  0.7818608E-02  0.9441054E-01
          2   -1    0    0  501    0  0.00000000000E+00  0.00000000000E+00  0.16076392405E+04  0.16076392405E+04  0.00000000000E+00 0. -1.
         -2   -1    0    0    0  501 -0.00000000000E+00 -0.00000000000E+00 -0.70717515931E+03  0.70717515931E+03  0.00000000000E+00 0.  1.
         23    2    1    2    0    0 -0.73061256393E+03 -0.44159247290E+03  0.93700034015E+03  0.12707175150E+04  0.89189320230E+02 0.  0.
    5000000    2    1    2    0    0  0.73061256393E+03  0.44159247290E+03 -0.36536259002E+02  0.10440968847E+04  0.60000397984E+03 0.  0.
         23    2    4    4    0    0  0.56381260619E+03  0.46909609881E+03 -0.22710736615E+03  0.77315090489E+03  0.90822690740E+02 0.  0.
         23    2    4    4    0    0  0.16679995774E+03 -0.27503625915E+02  0.19057110715E+03  0.27094597985E+03  0.92280560128E+02 0.  0.
          1    1    3    3  502    0 -0.60951875821E+03 -0.32746098897E+03  0.75938149878E+03  0.10273286118E+04  0.00000000000E+00 0. -1.
         -1    1    3    3    0  502 -0.12109380573E+03 -0.11413148393E+03  0.17761884137E+03  0.24338890324E+03  0.00000000000E+00 0.  1.
         15    1    5    5    0    0  0.25001976335E+03  0.26651311031E+03 -0.11866045065E+03  0.38421684022E+03  0.17770000000E+01 0. -1.
        -15    1    5    5    0    0  0.31379284284E+03  0.20258298850E+03 -0.10844691550E+03  0.38893406467E+03  0.17770000000E+01 0.  1.
          3    1    6    6  503    0  0.64021749089E+02 -0.38701824859E+02  0.13303801709E+03  0.15262938640E+03  0.00000000000E+00 0. -1.
         -3    1    6    6    0  503  0.10277820865E+03  0.11198198944E+02  0.57533090065E+02  0.11831659345E+03  0.00000000000E+00 0.  1.
<mgrwt>
<rscale>  0 0.88772788E+03</rscale>
<asrwt>0</asrwt>
<pdfrwt beam="1">  1        2 0.24732911E+00 0.88772788E+03</pdfrwt>
<pdfrwt beam="2">  1       -2 0.10879618E+00 0.88772788E+03</pdfrwt>
<totfact> 0.75139468E+00</totfact>
</mgrwt>
</event>
<event>
12    1  0.9129747E-008  0.1092191E+04  0.7818608E-02  0.9212836E-01
         -2   -1    0    0    0  501 -0.00000000000E+00  0.00000000000E+00  0.41095875612E+03  0.41095875612E+03  0.00000000000E+00 0.  1.
          2   -1    0    0  501    0  0.00000000000E+00 -0.00000000000E+00 -0.32260870701E+04  0.32260870701E+04  0.00000000000E+00 0. -1.
         23    2    1    2    0    0  0.90696107348E+03  0.45653622673E+03 -0.18535846423E+04  0.21153791158E+04  0.89716565228E+02 0.  0.
    5000000    2    1    2    0    0 -0.90696107348E+03 -0.45653622673E+03 -0.96154367166E+03  0.15216667104E+04  0.59991635256E+03 0.  0.
         23    2    4    4    0    0 -0.46574954637E+03 -0.53031069129E+03 -0.68025334048E+03  0.98398160373E+03  0.85575230048E+02 0.  0.
         23    2    4    4    0    0 -0.44121152710E+03  0.73774464567E+02 -0.28129033118E+03  0.53768510672E+03  0.99351599399E+02 0.  0.
          3    1    3    3  502    0  0.19129288495E+03  0.56799074621E+02 -0.37157264698E+03  0.42176454889E+03  0.00000000000E+00 0. -1.
         -3    1    3    3    0  502  0.71566818852E+03  0.39973715210E+03 -0.14820119954E+04  0.16936145669E+04  0.00000000000E+00 0.  1.
         15    1    5    5    0    0 -0.24206627170E+03 -0.22173233139E+03 -0.28235616280E+03  0.43300053935E+03  0.17770000000E+01 0. -1.
        -15    1    5    5    0    0 -0.22368327467E+03 -0.30857835990E+03 -0.39789717768E+03  0.55098106437E+03  0.17770000000E+01 0.  1.
          4    1    6    6  503    0 -0.18186145217E+03 -0.12710464906E+02 -0.85131164112E+02  0.20120253181E+03  0.00000000000E+00 0. -1.
         -4    1    6    6    0  503 -0.25935007493E+03  0.86484929472E+02 -0.19615916707E+03  0.33648257491E+03  0.00000000000E+00 0.  1.
<mgrwt>
<rscale>  0 0.10921914E+04</rscale>
<asrwt>0</asrwt>
<pdfrwt beam="1">  1        2 0.49632109E+00 0.10921914E+04</pdfrwt>
<pdfrwt beam="2">  1       -2 0.63224424E-01 0.10921914E+04</pdfrwt>
<totfact> 0.29308573E+00</totfact>
</mgrwt>
</event>
<event>
12    1  0.8033771E-008  0.9431367E+03  0.7818608E-02  0.9373209E-01
         -1   -1    0    0    0  501 -0.00000000000E+00  0.00000000000E+00  0.94621537237E+03  0.94621537237E+03  0.00000000000E+00 0.  1.
          1   -1    0    0  501    0  0.00000000000E+00 -0.00000000000E+00 -0.14045131443E+04  0.14045131443E+04  0.00000000000E+00 0. -1.
         23    2    1    2    0    0 -0.40607259786E+03  0.80625624930E+03 -0.80474528988E+03  0.12127445058E+04  0.90499505101E+02 0.  0.
    5000000    2    1    2    0    0  0.40607259786E+03 -0.80625624930E+03  0.34644751793E+03  0.11379840109E+04  0.60003135930E+03 0.  0.
         23    2    4    4    0    0  0.12572075172E+03 -0.59545008247E+03 -0.26755363720E+02  0.61782351962E+03  0.10307057673E+03 0.  0.
         23    2    4    4    0    0  0.28035184614E+03 -0.21080616683E+03  0.37320288165E+03  0.52016049129E+03  0.90830326510E+02 0.  0.
          4    1    3    3  502    0 -0.49164668009E+02  0.17429517823E+03 -0.17512421341E+03  0.25192154306E+03  0.00000000000E+00 0. -1.
         -4    1    3    3    0  502 -0.35690792985E+03  0.63196107107E+03 -0.62962107648E+03  0.96082296271E+03  0.00000000000E+00 0.  1.
         15    1    5    5    0    0  0.90169645061E+02 -0.19290303534E+03 -0.16363654335E+02  0.21357217245E+03  0.17770000000E+01 0. -1.
        -15    1    5    5    0    0  0.35551106656E+02 -0.40254704713E+03 -0.10391709386E+02  0.40425134717E+03  0.17770000000E+01 0.  1.
          4    1    6    6  503    0  0.11422343852E+03 -0.32779233809E+02  0.12180259242E+03  0.17016857406E+03  0.00000000000E+00 0. -1.
         -4    1    6    6    0  503  0.16612840762E+03 -0.17802693302E+03  0.25140028924E+03  0.34999191723E+03  0.00000000000E+00 0.  1.
<mgrwt>
<rscale>  0 0.94313675E+03</rscale>
<asrwt>0</asrwt>
<pdfrwt beam="1">  1        1 0.21607894E+00 0.94313675E+03</pdfrwt>
<pdfrwt beam="2">  1       -1 0.14557160E+00 0.94313675E+03</pdfrwt>
<totfact> 0.29196399E+00</totfact>
</mgrwt>
</event>
<event>
12    1  0.8033771E-008  0.3355044E+03  0.7818608E-02  0.1068727E+00
         -1   -1    0    0    0  501 -0.00000000000E+00  0.00000000000E+00  0.12759940342E+03  0.12759940342E+03  0.00000000000E+00 0.  1.
          1   -1    0    0  501    0  0.00000000000E+00 -0.00000000000E+00 -0.13376294778E+04  0.13376294778E+04  0.00000000000E+00 0. -1.
         23    2    1    2    0    0  0.12725629275E+03 -0.69297031397E+02 -0.13005576379E+03  0.22134113693E+03  0.10526706321E+03 0.  0.
    5000000    2    1    2    0    0 -0.12725629275E+03  0.69297031397E+02 -0.10799743106E+04  0.12438877443E+04  0.59992996782E+03 0.  0.
         23    2    4    4    0    0 -0.30736120641E+03 -0.14646149446E+02 -0.91612284581E+03  0.97071067492E+03  0.91174145942E+02 0.  0.
         23    2    4    4    0    0  0.18010491366E+03  0.83943180843E+02 -0.16385146478E+03  0.27317706938E+03  0.91072340427E+02 0.  0.
          2    1    3    3  502    0  0.75053523984E+02 -0.10624409052E+02 -0.12031852652E+03  0.14220568678E+03  0.00000000000E+00 0. -1.
         -2    1    3    3    0  502  0.52202768765E+02 -0.58672622345E+02 -0.97372372721E+01  0.79135450142E+02  0.00000000000E+00 0.  1.
         15    1    5    5    0    0 -0.13625200940E+03  0.33216763461E+02 -0.33945018240E+03  0.36728401477E+03  0.17770000000E+01 0.  1.
        -15    1    5    5    0    0 -0.17110919701E+03 -0.47862912906E+02 -0.57667266341E+03  0.60342666016E+03  0.17770000000E+01 0. -1.
          4    1    6    6  503    0  0.12830718977E+03  0.58175355353E+02 -0.16282936685E+03  0.21531490804E+03  0.00000000000E+00 0. -1.
         -4    1    6    6    0  503  0.51797723893E+02  0.25767825489E+02 -0.10220979320E+01  0.57862161342E+02  0.00000000000E+00 0.  1.
<mgrwt>
<rscale>  0 0.33550436E+03</rscale>
<asrwt>0</asrwt>
<pdfrwt beam="1">  1        1 0.20578915E+00 0.33550436E+03</pdfrwt>
<pdfrwt beam="2">  1       -1 0.19630678E-01 0.33550436E+03</pdfrwt>
<totfact> 0.19056875E+02</totfact>
</mgrwt>
</event>
<event>
12    1  0.8033771E-008  0.8209198E+03  0.7818608E-02  0.9530221E-01
         -2   -1    0    0    0  501 -0.00000000000E+00  0.00000000000E+00  0.34040043913E+03  0.34040043913E+03  0.00000000000E+00 0.  1.
          2   -1    0    0  501    0  0.00000000000E+00 -0.00000000000E+00 -0.20420013701E+04  0.20420013701E+04  0.00000000000E+00 0. -1.
         23    2    1    2    0    0 -0.70648420628E+03  0.15185978673E+03 -0.71998164008E+03  0.10238025936E+04  0.87274623883E+02 0.  0.
    5000000    2    1    2    0    0  0.70648420628E+03 -0.15185978673E+03 -0.98161929084E+03  0.13585992156E+04  0.60002838934E+03 0.  0.
         23    2    4    4    0    0  0.71005947389E+03  0.47745644136E+02 -0.72337943932E+03  0.10190595851E+04  0.93490758119E+02 0.  0.
         23    2    4    4    0    0 -0.35752676032E+01 -0.19960543086E+03 -0.25823985152E+03  0.33953963049E+03  0.93510583297E+02 0.  0.
          4    1    3    3  502    0 -0.43910394140E+03  0.61046043827E+02 -0.47781981005E+03  0.65180569321E+03  0.00000000000E+00 0. -1.
         -4    1    3    3    0  502 -0.26738026488E+03  0.90813742900E+02 -0.24216183003E+03  0.37199690035E+03  0.00000000000E+00 0.  1.
         15    1    5    5    0    0  0.49121037409E+03  0.35693337874E+02 -0.43705187890E+03  0.65846727220E+03  0.17770000000E+01 0. -1.
        -15    1    5    5    0    0  0.21884909980E+03  0.12052306262E+02 -0.28632756042E+03  0.36059231294E+03  0.17770000000E+01 0.  1.
          3    1    6    6  503    0 -0.16779726200E+02 -0.18009808470E+03 -0.17006339135E+03  0.24827089318E+03  0.00000000000E+00 0. -1.
         -3    1    6    6    0  503  0.13204458596E+02 -0.19507346167E+02 -0.88176460172E+02  0.91268737308E+02  0.00000000000E+00 0.  1.
<mgrwt>
<rscale>  0 0.82091975E+03</rscale>
<asrwt>0</asrwt>
<pdfrwt beam="1">  1        2 0.31415405E+00 0.82091975E+03</pdfrwt>
<pdfrwt beam="2">  1       -2 0.52369299E-01 0.82091975E+03</pdfrwt>
<totfact> 0.22330259E+01</totfact>
</mgrwt>
</event>
<event>
12    1  0.8033771E-008  0.9377593E+03  0.7818608E-02  0.9379574E-01
         -2   -1    0    0    0  501 -0.00000000000E+00  0.00000000000E+00  0.17441021251E+03  0.17441021251E+03  0.00000000000E+00 0. -1.
          2   -1    0    0  501    0  0.00000000000E+00 -0.00000000000E+00 -0.53771460300E+04  0.53771460300E+04  0.00000000000E+00 0.  1.
         23    2    1    2    0    0  0.19323256424E+03 -0.84495997806E+03 -0.26488390339E+04  0.27886235120E+04  0.93683913586E+02 0.  0.
    5000000    2    1    2    0    0 -0.19323256424E+03  0.84495997806E+03 -0.25538967835E+04  0.27629327305E+04  0.60009357920E+03 0.  0.
         23    2    4    4    0    0 -0.24682777536E+03  0.87710292950E+03 -0.20200365332E+04  0.22178477776E+04  0.89820208021E+02 0.  0.
         23    2    4    4    0    0  0.53595211121E+02 -0.32142951443E+02 -0.53386025036E+03  0.54508495284E+03  0.90582685538E+02 0.  0.
          1    1    3    3  502    0  0.34106244115E+02 -0.30566363456E+03 -0.10281227318E+04  0.10731401796E+04  0.00000000000E+00 0. -1.
         -1    1    3    3    0  502  0.15912632012E+03 -0.53929634350E+03 -0.16207163022E+04  0.17154833325E+04  0.00000000000E+00 0.  1.
         15    1    5    5    0    0 -0.12812520940E+02  0.13824527179E+03 -0.26087629569E+03  0.29552582839E+03  0.17770000000E+01 0.  1.
        -15    1    5    5    0    0 -0.23401525442E+03  0.73885765771E+03 -0.17591602375E+04  0.19223219492E+04  0.17770000000E+01 0. -1.
          4    1    6    6  503    0  0.30911151478E+02 -0.52754203165E+02 -0.18417554580E+03  0.19405962205E+03  0.00000000000E+00 0. -1.
         -4    1    6    6    0  503  0.22684059644E+02  0.20611251722E+02 -0.34968470456E+03  0.35102533080E+03  0.00000000000E+00 0.  1.
<mgrwt>
<rscale>  0 0.93775928E+03</rscale>
<asrwt>0</asrwt>
<pdfrwt beam="1">  1        2 0.82725321E+00 0.93775928E+03</pdfrwt>
<pdfrwt beam="2">  1       -2 0.26832341E-01 0.93775928E+03</pdfrwt>
<totfact> 0.14239275E-01</totfact>
</mgrwt>
</event>
<event>
12    1  0.8033771E-008  0.8123277E+03  0.7818608E-02  0.9542343E-01
         -2   -1    0    0    0  501 -0.00000000000E+00  0.00000000000E+00  0.10437539285E+04  0.10437539285E+04  0.00000000000E+00 0.  1.
          2   -1    0    0  501    0  0.00000000000E+00 -0.00000000000E+00 -0.72091524256E+03  0.72091524256E+03  0.00000000000E+00 0. -1.
         23    2    1    2    0    0 -0.36129159676E+02 -0.73793985290E+03  0.32581635054E+03  0.81292250681E+03  0.93947672193E+02 0.  0.
    5000000    2    1    2    0    0  0.36129159676E+02  0.73793985290E+03 -0.29776645729E+01  0.95174666428E+03  0.59996025185E+03 0.  0.
         23    2    4    4    0    0 -0.14868154573E+03  0.39144050151E+02  0.11649512442E+03  0.21353553251E+03  0.91585211272E+02 0.  0.
         23    2    4    4    0    0  0.18481070541E+03  0.69879580275E+03 -0.11947278900E+03  0.73821113177E+03  0.90616538140E+02 0.  0.
          2    1    3    3  502    0 -0.44544246315E+02 -0.17939132974E+03  0.60357480665E+02  0.19444398818E+03  0.00000000000E+00 0. -1.
         -2    1    3    3    0  502  0.84150866381E+01 -0.55854852316E+03  0.26545886987E+03  0.61847851863E+03  0.00000000000E+00 0.  1.
         15    1    5    5    0    0 -0.30287808928E+02  0.12008474342E+02  0.80463299937E+02  0.86827732847E+02  0.17770000000E+01 0.  1.
        -15    1    5    5    0    0 -0.11839373681E+03  0.27135575809E+02  0.36031824488E+02  0.12670779966E+03  0.17770000000E+01 0. -1.
          4    1    6    6  503    0  0.13426016422E+03  0.61288404791E+03 -0.11859105091E+03  0.63852680855E+03  0.00000000000E+00 0. -1.
         -4    1    6    6    0  503  0.50550541193E+02  0.85911754844E+02 -0.88173808991E+00  0.99684323228E+02  0.00000000000E+00 0.  1.
<mgrwt>
<rscale>  0 0.81232765E+03</rscale>
<asrwt>0</asrwt>
<pdfrwt beam="1">  1        2 0.11091004E+00 0.81232765E+03</pdfrwt>
<pdfrwt beam="2">  1       -2 0.16057753E+00 0.81232765E+03</pdfrwt>
<totfact> 0.99375568E+00</totfact>
</mgrwt>
</event>
<event>
12    1  0.8033771E-008  0.6423053E+03  0.7818608E-02  0.9821326E-01
         -2   -1    0    0    0  501 -0.00000000000E+00  0.00000000000E+00  0.12318798769E+03  0.12318798769E+03  0.00000000000E+00 0.  1.
          2   -1    0    0  501    0  0.00000000000E+00 -0.00000000000E+00 -0.41090767649E+04  0.41090767649E+04  0.00000000000E+00 0. -1.
         23    2    1    2    0    0  0.33847723080E+03 -0.46395556501E+03 -0.18987913388E+04  0.19859500060E+04  0.93633732882E+02 0.  0.
    5000000    2    1    2    0    0 -0.33847723080E+03  0.46395556501E+03 -0.20870974384E+04  0.22463147466E+04  0.60011050757E+03 0.  0.
         23    2    4    4    0    0 -0.15512610658E+03 -0.20443938114E+02 -0.12121937939E+04  0.12254388958E+04  0.88343816574E+02 0.  0.
         23    2    4    4    0    0 -0.18335112422E+03  0.48439950313E+03 -0.87490364458E+03  0.10208758508E+04  0.92035874045E+02 0.  0.
          1    1    3    3  502    0  0.33481226273E+03 -0.42287365746E+03 -0.17942216116E+04  0.18735401178E+04  0.00000000000E+00 0. -1.
         -1    1    3    3    0  502  0.36649680705E+01 -0.41081907554E+02 -0.10456972725E+03  0.11240988825E+03  0.00000000000E+00 0.  1.
         15    1    5    5    0    0 -0.14350050076E+03  0.11714480268E+02 -0.91168022777E+03  0.92298083306E+03  0.17770000000E+01 0. -1.
        -15    1    5    5    0    0 -0.11625605821E+02 -0.32158418381E+02 -0.30051356610E+03  0.30245806275E+03  0.17770000000E+01 0.  1.
          2    1    6    6  503    0 -0.62399379182E+02  0.68619544024E+02 -0.16753627702E+03  0.19149602728E+03  0.00000000000E+00 0. -1.
         -2    1    6    6    0  503 -0.12095174504E+03  0.41577995910E+03 -0.70736736755E+03  0.82937982354E+03  0.00000000000E+00 0.  1.
<mgrwt>
<rscale>  0 0.64230534E+03</rscale>
<asrwt>0</asrwt>
<pdfrwt beam="1">  1        2 0.63216569E+00 0.64230534E+03</pdfrwt>
<pdfrwt beam="2">  1       -2 0.18951997E-01 0.64230534E+03</pdfrwt>
<totfact> 0.74068119E+00</totfact>
</mgrwt>
</event>
<event>
12    1  0.8033771E-008  0.6759175E+03  0.7818608E-02  0.9759326E-01
          2   -1    0    0  501    0  0.00000000000E+00  0.00000000000E+00  0.39962773765E+03  0.39962773765E+03  0.00000000000E+00 0. -1.
         -2   -1    0    0    0  501 -0.00000000000E+00 -0.00000000000E+00 -0.15590040705E+04  0.15590040705E+04  0.00000000000E+00 0.  1.
         23    2    1    2    0    0 -0.26419685049E+03  0.61801992571E+03 -0.50525181186E+03  0.84532287460E+03  0.86849090663E+02 0.  0.
    5000000    2    1    2    0    0  0.26419685049E+03 -0.61801992571E+03 -0.65412452099E+03  0.11133089336E+04  0.59985772329E+03 0.  0.
         23    2    4    4    0    0  0.11315138082E+03 -0.34751510674E+03  0.80737958877E+01  0.37660626181E+03  0.90537869742E+02 0.  0.
         23    2    4    4    0    0  0.15104546967E+03 -0.27050481897E+03 -0.66219831688E+03  0.73670267175E+03  0.90755852107E+02 0.  0.
          4    1    3    3  502    0 -0.14943753779E+03  0.34479178948E+03 -0.33573201284E+03  0.50391362379E+03  0.00000000000E+00 0. -1.
         -4    1    3    3    0  502 -0.11475931270E+03  0.27322813623E+03 -0.16951979902E+03  0.34140925081E+03  0.00000000000E+00 0.  1.
         15    1    5    5    0    0  0.93196769993E+01 -0.63770981918E+02  0.34819285453E+02  0.73274380807E+02  0.17770000000E+01 0. -1.
        -15    1    5    5    0    0  0.10383170382E+03 -0.28374412482E+03 -0.26745489565E+02  0.30333188100E+03  0.17770000000E+01 0.  1.
          4    1    6    6  503    0  0.96688870047E+02 -0.12695243320E+03 -0.24727843004E+03  0.29429964297E+03  0.00000000000E+00 0. -1.
         -4    1    6    6    0  503  0.54356599619E+02 -0.14355238577E+03 -0.41491988683E+03  0.44240302878E+03  0.00000000000E+00 0.  1.
<mgrwt>
<rscale>  0 0.67591752E+03</rscale>
<asrwt>0</asrwt>
<pdfrwt beam="1">  1        2 0.61481191E-01 0.67591752E+03</pdfrwt>
<pdfrwt beam="2">  1       -2 0.23984678E+00 0.67591752E+03</pdfrwt>
<totfact> 0.61207164E+00</totfact>
</mgrwt>
</event>
<event>
12    1  0.8033771E-008  0.6198662E+03  0.7818608E-02  0.9865026E-01
          2   -1    0    0  501    0  0.00000000000E+00  0.00000000000E+00  0.32420221199E+04  0.32420221199E+04  0.00000000000E+00 0. -1.
         -2   -1    0    0    0  501 -0.00000000000E+00 -0.00000000000E+00 -0.15963699109E+03  0.15963699109E+03  0.00000000000E+00 0.  1.
         23    2    1    2    0    0 -0.54218159047E+03  0.22846907640E+03  0.13926563438E+04  0.15145560414E+04  0.90715569944E+02 0.  0.
    5000000    2    1    2    0    0  0.54218159047E+03 -0.22846907640E+03  0.16897287849E+04  0.18871030695E+04  0.59984634073E+03 0.  0.
         23    2    4    4    0    0  0.23004826367E+03 -0.23921259060E+03  0.28959938658E+03  0.44963886914E+03  0.90346227465E+02 0.  0.
         23    2    4    4    0    0  0.31213332680E+03  0.10743514195E+02  0.14001293984E+04  0.14374642004E+04  0.91642558221E+02 0.  0.
          3    1    3    3  502    0 -0.26751862285E+03  0.14115241953E+03  0.80705617329E+03  0.86187579497E+03  0.00000000000E+00 0. -1.
         -3    1    3    3    0  502 -0.27466296762E+03  0.87316656867E+02  0.58560017055E+03  0.65268024644E+03  0.00000000000E+00 0.  1.
         15    1    5    5    0    0  0.79510538551E+02 -0.61549183194E+02  0.14174077592E+03  0.17379249978E+03  0.17770000000E+01 0. -1.
        -15    1    5    5    0    0  0.15053772512E+03 -0.17766340740E+03  0.14785861066E+03  0.27584636936E+03  0.17770000000E+01 0.  1.
          3    1    6    6  503    0  0.20858820457E+03 -0.14318900022E+02  0.10806524240E+04  0.11006923873E+04  0.00000000000E+00 0. -1.
         -3    1    6    6    0  503  0.10354512223E+03  0.25062414217E+02  0.31947697431E+03  0.33677181304E+03  0.00000000000E+00 0.  1.
<mgrwt>
<rscale>  0 0.61986623E+03</rscale>
<asrwt>0</asrwt>
<pdfrwt beam="1">  1        2 0.49877258E+00 0.61986623E+03</pdfrwt>
<pdfrwt beam="2">  1       -2 0.24559540E-01 0.61986623E+03</pdfrwt>
<totfact> 0.19706649E+01</totfact>
</mgrwt>
</event>
<event>
12    1  0.8033771E-008  0.9659124E+03  0.7818608E-02  0.9346742E-01
         -2   -1    0    0    0  501 -0.00000000000E+00  0.00000000000E+00  0.45270392089E+03  0.45270392089E+03  0.00000000000E+00 0.  1.
          2   -1    0    0  501    0  0.00000000000E+00 -0.00000000000E+00 -0.24371338454E+04  0.24371338454E+04  0.00000000000E+00 0. -1.
         23    2    1    2    0    0  0.58417324715E+03 -0.76476129172E+03 -0.92714441546E+03  0.13393784029E+04  0.90661584893E+02 0.  0.
    5000000    2    1    2    0    0 -0.58417324715E+03  0.76476129172E+03 -0.10572855090E+04  0.15504593634E+04  0.59996114367E+03 0.  0.
         23    2    4    4    0    0 -0.24984937945E+03  0.39890819715E+03 -0.90522947702E+03  0.10241543548E+04  0.88877861348E+02 0.  0.
         23    2    4    4    0    0 -0.33432386770E+03  0.36585309457E+03 -0.15205603200E+03  0.52630500858E+03  0.90856974767E+02 0.  0.
          2    1    3    3  502    0  0.51556486174E+02 -0.49462322357E+02 -0.42036310396E+02  0.82895379794E+02  0.00000000000E+00 0. -1.
         -2    1    3    3    0  502  0.53261676098E+03 -0.71529896936E+03 -0.88510810506E+03  0.12564830231E+04  0.00000000000E+00 0.  1.
         15    1    5    5    0    0 -0.16844863206E+03  0.25401014659E+03 -0.49210474220E+03  0.57884914377E+03  0.17770000000E+01 0.  1.
        -15    1    5    5    0    0 -0.81400747396E+02  0.14489805056E+03 -0.41312473481E+03  0.44530521103E+03  0.17770000000E+01 0. -1.
          4    1    6    6  503    0 -0.23530577628E+02  0.45499290320E+02  0.85835504797E+01  0.51937951846E+02  0.00000000000E+00 0. -1.
         -4    1    6    6    0  503 -0.31079329007E+03  0.32035380425E+03 -0.16063958248E+03  0.47436705673E+03  0.00000000000E+00 0.  1.
<mgrwt>
<rscale>  0 0.96591245E+03</rscale>
<asrwt>0</asrwt>
<pdfrwt beam="1">  1        2 0.37494367E+00 0.96591245E+03</pdfrwt>
<pdfrwt beam="2">  1       -2 0.69646756E-01 0.96591245E+03</pdfrwt>
<totfact> 0.72162007E+00</totfact>
</mgrwt>
</event>
<event>
12    1  0.8033771E-008  0.9128135E+03  0.7818608E-02  0.9409704E-01
          2   -1    0    0  501    0  0.00000000000E+00  0.00000000000E+00  0.15204367272E+04  0.15204367272E+04  0.00000000000E+00 0. -1.
         -2   -1    0    0    0  501 -0.00000000000E+00 -0.00000000000E+00 -0.81928847681E+03  0.81928847681E+03  0.00000000000E+00 0.  1.
         23    2    1    2    0    0  0.10039041143E+01  0.88753223088E+03 -0.22893229087E+03  0.92103785737E+03  0.90478020749E+02 0.  0.
    5000000    2    1    2    0    0 -0.10039041143E+01 -0.88753223088E+03  0.93008054125E+03  0.14186873466E+04  0.59992458327E+03 0.  0.
         23    2    4    4    0    0 -0.12089949316E+03 -0.25495353567E+03  0.64105535679E+03  0.70702588184E+03  0.96517533789E+02 0.  0.
         23    2    4    4    0    0  0.11989558905E+03 -0.63257869521E+03  0.28902518446E+03  0.71166146479E+03  0.91628190573E+02 0.  0.
          1    1    3    3  502    0 -0.31537086896E+02  0.36220075241E+03 -0.12557993305E+03  0.38464827113E+03  0.00000000000E+00 0. -1.
         -1    1    3    3    0  502  0.32540991011E+02  0.52533147846E+03 -0.10335235782E+03  0.53638958624E+03  0.00000000000E+00 0.  1.
         15    1    5    5    0    0 -0.55718385090E+02 -0.17372764032E+03  0.49563300226E+03  0.52814871211E+03  0.17770000000E+01 0.  1.
        -15    1    5    5    0    0 -0.65181108072E+02 -0.81225895344E+02  0.14542235453E+03  0.17887716973E+03  0.17770000000E+01 0. -1.
          2    1    6    6  503    0  0.52040881263E+02 -0.47086029546E+03  0.23007139346E+03  0.52664078578E+03  0.00000000000E+00 0. -1.
         -2    1    6    6    0  503  0.67854707785E+02 -0.16171839975E+03  0.58953791000E+02  0.18502067900E+03  0.00000000000E+00 0.  1.
<mgrwt>
<rscale>  0 0.91281351E+03</rscale>
<asrwt>0</asrwt>
<pdfrwt beam="1">  1        2 0.23391334E+00 0.91281351E+03</pdfrwt>
<pdfrwt beam="2">  1       -2 0.12604438E+00 0.91281351E+03</pdfrwt>
<totfact> 0.58260506E+00</totfact>
</mgrwt>
</event>
<event>
12    1  0.8033771E-008  0.8017856E+03  0.7818608E-02  0.9557436E-01
         -2   -1    0    0    0  501 -0.00000000000E+00  0.00000000000E+00  0.30624416155E+03  0.30624416155E+03  0.00000000000E+00 0. -1.
          2   -1    0    0  501    0  0.00000000000E+00 -0.00000000000E+00 -0.23553389531E+04  0.23553389531E+04  0.00000000000E+00 0.  1.
         23    2    1    2    0    0  0.66319727705E+03  0.29680925205E+03 -0.11217130082E+04  0.13395632498E+04  0.90902513601E+02 0.  0.
    5000000    2    1    2    0    0 -0.66319727705E+03 -0.29680925205E+03 -0.92738178339E+03  0.13220198649E+04  0.59981096248E+03 0.  0.
         23    2    4    4    0    0 -0.13452915125E+03  0.12342248583E+03 -0.43566870207E+03  0.48120925032E+03  0.91781926812E+02 0.  0.
         23    2    4    4    0    0 -0.52866812580E+03 -0.42023173788E+03 -0.49171308133E+03  0.84081061461E+03  0.95373133172E+02 0.  0.
          1    1    3    3  502    0  0.55250397306E+03  0.28250398427E+03 -0.95842644568E+03  0.11417751062E+04  0.00000000000E+00 0.  1.
         -1    1    3    3    0  502  0.11069330399E+03  0.14305267782E+02 -0.16328656252E+03  0.19778814356E+03  0.00000000000E+00 0. -1.
         15    1    5    5    0    0 -0.85184012882E+02  0.30684541970E+02 -0.27238301900E+03  0.28704272145E+03  0.17770000000E+01 0.  1.
        -15    1    5    5    0    0 -0.49345138365E+02  0.92737943857E+02 -0.16328568307E+03  0.19416652887E+03  0.17770000000E+01 0. -1.
          4    1    6    6  503    0 -0.32186420225E+03 -0.24030826329E+03 -0.23564916720E+03  0.46569856785E+03  0.00000000000E+00 0. -1.
         -4    1    6    6    0  503 -0.20680392355E+03 -0.17992347459E+03 -0.25606391413E+03  0.37511204676E+03  0.00000000000E+00 0.  1.
<mgrwt>
<rscale>  0 0.80178561E+03</rscale>
<asrwt>0</asrwt>
<pdfrwt beam="1">  1        2 0.36235984E+00 0.80178561E+03</pdfrwt>
<pdfrwt beam="2">  1       -2 0.47114486E-01 0.80178561E+03</pdfrwt>
<totfact> 0.18629339E+01</totfact>
</mgrwt>
</event>
<event>
12    1  0.8033771E-008  0.1233972E+04  0.7818608E-02  0.9083630E-01
         -2   -1    0    0    0  501 -0.00000000000E+00  0.00000000000E+00  0.13907028835E+04  0.13907028835E+04  0.00000000000E+00 0.  1.
          2   -1    0    0  501    0  0.00000000000E+00 -0.00000000000E+00 -0.11600682551E+04  0.11600682551E+04  0.00000000000E+00 0. -1.
         23    2    1    2    0    0  0.10464920375E+04 -0.51734553216E+03  0.37734175867E+03  0.12300653455E+04  0.88780443878E+02 0.  0.
    5000000    2    1    2    0    0 -0.10464920375E+04  0.51734553216E+03 -0.14670713025E+03  0.13207057930E+04  0.59995735296E+03 0.  0.
         23    2    4    4    0    0 -0.53553917049E+03  0.56935803016E+03 -0.36899749753E+02  0.78751932281E+03  0.88624616454E+02 0.  0.
         23    2    4    4    0    0 -0.51095286704E+03 -0.52012497996E+02 -0.10980738050E+03  0.53318647020E+03  0.91934862291E+02 0.  0.
          2    1    3    3  502    0  0.27425050020E+03 -0.13056456907E+03  0.13937586922E+03  0.33419466854E+03  0.00000000000E+00 0. -1.
         -2    1    3    3    0  502  0.77224153733E+03 -0.38678096309E+03  0.23796588946E+03  0.89587067701E+03  0.00000000000E+00 0.  1.
         15    1    5    5    0    0 -0.39634724308E+03  0.36841978680E+03 -0.63553407258E+01  0.54117263834E+03  0.17770000000E+01 0. -1.
        -15    1    5    5    0    0 -0.13919192740E+03  0.20093824336E+03 -0.30544409028E+02  0.24634668447E+03  0.17770000000E+01 0.  1.
          1    1    6    6  503    0 -0.30837674532E+03 -0.13122790428E+02 -0.10768163801E+03  0.32690022920E+03  0.00000000000E+00 0. -1.
         -1    1    6    6    0  503 -0.20257612172E+03 -0.38889707568E+02 -0.21257424905E+01  0.20628624100E+03  0.00000000000E+00 0.  1.
<mgrwt>
<rscale>  0 0.12339720E+04</rscale>
<asrwt>0</asrwt>
<pdfrwt beam="1">  1        2 0.17847204E+00 0.12339720E+04</pdfrwt>
<pdfrwt beam="2">  1       -2 0.21395429E+00 0.12339720E+04</pdfrwt>
<totfact> 0.20932485E+00</totfact>
</mgrwt>
</event>
<event>
12    1  0.8033771E-008  0.7689963E+03  0.7818608E-02  0.9606011E-01
         -2   -1    0    0    0  501 -0.00000000000E+00  0.00000000000E+00  0.15499116142E+03  0.15499116142E+03  0.00000000000E+00 0.  1.
          2   -1    0    0  501    0  0.00000000000E+00 -0.00000000000E+00 -0.40572617777E+04  0.40572617777E+04  0.00000000000E+00 0. -1.
         23    2    1    2    0    0  0.45726141759E+03  0.48345585922E+03 -0.19940665738E+04  0.21041165336E+04  0.90483778231E+02 0.  0.
    5000000    2    1    2    0    0 -0.45726141759E+03 -0.48345585922E+03 -0.19082040424E+04  0.21081364055E+04  0.60014903563E+03 0.  0.
         23    2    4    4    0    0 -0.15674031384E+03 -0.52710460980E+03 -0.14170848427E+04  0.15226867499E+04  0.89658748156E+02 0.  0.
         23    2    4    4    0    0 -0.30052110374E+03  0.43648750576E+02 -0.49111919964E+03  0.58544965559E+03  0.96618237200E+02 0.  0.
          1    1    3    3  502    0  0.71347151423E+02  0.36759378434E+02 -0.27820758446E+03  0.28955332491E+03  0.00000000000E+00 0. -1.
         -1    1    3    3    0  502  0.38591426616E+03  0.44669648079E+03 -0.17158589894E+04  0.18145632087E+04  0.00000000000E+00 0.  1.
         15    1    5    5    0    0 -0.54813103136E+02 -0.30759299591E+03 -0.87197361359E+03  0.92626079909E+03  0.17770000000E+01 0. -1.
        -15    1    5    5    0    0 -0.10192721071E+03 -0.21951161389E+03 -0.54511122916E+03  0.59642595081E+03  0.17770000000E+01 0.  1.
          4    1    6    6  503    0 -0.19589048453E+03 -0.84349385646E+01 -0.35899214300E+03  0.40904717192E+03  0.00000000000E+00 0.  1.
         -4    1    6    6    0  503 -0.10463061921E+03  0.52083689141E+02 -0.13212705664E+03  0.17640248368E+03  0.00000000000E+00 0. -1.
<mgrwt>
<rscale>  0 0.76899628E+03</rscale>
<asrwt>0</asrwt>
<pdfrwt beam="1">  1        2 0.62419412E+00 0.76899628E+03</pdfrwt>
<pdfrwt beam="2">  1       -2 0.23844794E-01 0.76899628E+03</pdfrwt>
<totfact> 0.52858275E+00</totfact>
</mgrwt>
</event>
<event>
12    1  0.8033771E-008  0.6704525E+03  0.7818608E-02  0.9769141E-01
         -1   -1    0    0    0  501 -0.00000000000E+00  0.00000000000E+00  0.47563842024E+03  0.47563842024E+03  0.00000000000E+00 0.  1.
          1   -1    0    0  501    0  0.00000000000E+00 -0.00000000000E+00 -0.11997605621E+04  0.11997605621E+04  0.00000000000E+00 0. -1.
         23    2    1    2    0    0  0.39301242296E+03  0.37120627602E+03 -0.67022592417E+03  0.86604964486E+03  0.92662473355E+02 0.  0.
    5000000    2    1    2    0    0 -0.39301242296E+03 -0.37120627602E+03 -0.53896217651E+02  0.80934933744E+03  0.59990722932E+03 0.  0.
         23    2    4    4    0    0  0.13973271206E+03 -0.13813258038E+03 -0.11254329029E+01  0.21836093238E+03  0.95259590637E+02 0.  0.
         23    2    4    4    0    0 -0.53274513502E+03 -0.23307369564E+03 -0.52770784748E+02  0.59098840507E+03  0.91333524599E+02 0.  0.
          3    1    3    3  502    0  0.14010937653E+03  0.14490814702E+03 -0.32139894754E+03  0.37937618790E+03  0.00000000000E+00 0. -1.
         -3    1    3    3    0  502  0.25290304643E+03  0.22629812900E+03 -0.34882697663E+03  0.48667345696E+03  0.00000000000E+00 0.  1.
         15    1    5    5    0    0  0.13868421917E+03 -0.15075575468E+03 -0.52614493420E+01  0.20491815633E+03  0.17770000000E+01 0. -1.
        -15    1    5    5    0    0  0.10484928855E+01  0.12623174302E+02  0.41360164391E+01  0.13442776044E+02  0.17770000000E+01 0.  1.
          3    1    6    6  503    0 -0.24155845042E+03 -0.88828558897E+02  0.19438406867E+02  0.25810627561E+03  0.00000000000E+00 0. -1.
         -3    1    6    6    0  503 -0.29118668459E+03 -0.14424513675E+03 -0.72209191615E+02  0.33288212946E+03  0.00000000000E+00 0.  1.
<mgrwt>
<rscale>  0 0.67045254E+03</rscale>
<asrwt>0</asrwt>
<pdfrwt beam="1">  1        1 0.18457855E+00 0.67045254E+03</pdfrwt>
<pdfrwt beam="2">  1       -1 0.73175142E-01 0.67045254E+03</pdfrwt>
<totfact> 0.20963248E+01</totfact>
</mgrwt>
</event>
<event>
12    1  0.8033771E-008  0.8103137E+03  0.7818608E-02  0.9545207E-01
          1   -1    0    0  501    0  0.00000000000E+00  0.00000000000E+00  0.17267716815E+04  0.17267716815E+04  0.00000000000E+00 0. -1.
         -1   -1    0    0    0  501 -0.00000000000E+00 -0.00000000000E+00 -0.60599634583E+03  0.60599634583E+03  0.00000000000E+00 0.  1.
         23    2    1    2    0    0 -0.78192160643E+03 -0.33791680237E+02  0.10913583675E+04  0.13461717109E+04  0.92584624599E+02 0.  0.
    5000000    2    1    2    0    0  0.78192160643E+03  0.33791680237E+02  0.29416968123E+02  0.98659631636E+03  0.59996971356E+03 0.  0.
         23    2    4    4    0    0  0.91737859010E+02 -0.89222275570E+02 -0.19061300549E+03  0.24591497101E+03  0.88115866192E+02 0.  0.
         23    2    4    4    0    0  0.69018374742E+03  0.12301395581E+03  0.22002997361E+03  0.74068134535E+03  0.93325385286E+02 0.  0.
          3    1    3    3  502    0 -0.48214516920E+03  0.76450309429E+01  0.60980528346E+03  0.77742195390E+03  0.00000000000E+00 0. -1.
         -3    1    3    3    0  502 -0.29977643723E+03 -0.41436711180E+02  0.48155308408E+03  0.56874975704E+03  0.00000000000E+00 0.  1.
         15    1    5    5    0    0  0.42125115234E+02 -0.30865859797E+02 -0.15073383668E+02  0.54383740757E+02  0.17770000000E+01 0.  1.
        -15    1    5    5    0    0  0.49612743776E+02 -0.58356415773E+02 -0.17553962182E+03  0.19153123026E+03  0.17770000000E+01 0. -1.
          1    1    6    6  503    0  0.53659585192E+03  0.13358659429E+03  0.18124713706E+03  0.58192010720E+03  0.00000000000E+00 0. -1.
         -1    1    6    6    0  503  0.15358789549E+03 -0.10572638481E+02  0.38782836549E+02  0.15876123815E+03  0.00000000000E+00 0.  1.
<mgrwt>
<rscale>  0 0.81031370E+03</rscale>
<asrwt>0</asrwt>
<pdfrwt beam="1">  1        1 0.26565718E+00 0.81031370E+03</pdfrwt>
<pdfrwt beam="2">  1       -1 0.93230208E-01 0.81031370E+03</pdfrwt>
<totfact> 0.52816738E+00</totfact>
</mgrwt>
</event>
<event>
12    1  0.8033771E-008  0.6205994E+03  0.7818608E-02  0.9863567E-01
          1   -1    0    0  501    0  0.00000000000E+00  0.00000000000E+00  0.18123172899E+04  0.18123172899E+04  0.00000000000E+00 0. -1.
         -1   -1    0    0    0  501 -0.00000000000E+00 -0.00000000000E+00 -0.48489262173E+03  0.48489262173E+03  0.00000000000E+00 0.  1.
         23    2    1    2    0    0 -0.34862725499E+03 -0.33068363341E+03  0.14398666354E+04  0.15204095729E+04  0.86814245434E+02 0.  0.
    5000000    2    1    2    0    0  0.34862725499E+03  0.33068363341E+03 -0.11244196717E+03  0.77680033882E+03  0.59990244381E+03 0.  0.
         23    2    4    4    0    0  0.38442317314E+03 -0.25376359050E+02 -0.93694648834E+02  0.40712687338E+03  0.92457926443E+02 0.  0.
         23    2    4    4    0    0 -0.35795918153E+02  0.35605999246E+03 -0.18747318336E+02  0.36967346544E+03  0.90812681484E+02 0.  0.
          1    1    3    3  502    0 -0.51431295015E+02 -0.95883274550E+02  0.28790407653E+03  0.30777839061E+03  0.00000000000E+00 0. -1.
         -1    1    3    3    0  502 -0.29719595997E+03 -0.23480035886E+03  0.11519625589E+04  0.12126311822E+04  0.00000000000E+00 0.  1.
         15    1    5    5    0    0  0.59778193638E+02 -0.40631437615E+01  0.18891239458E+02  0.62848852250E+02  0.17770000000E+01 0.  1.
        -15    1    5    5    0    0  0.32464497950E+03 -0.21313215289E+02 -0.11258588829E+03  0.34427802113E+03  0.17770000000E+01 0. -1.
          3    1    6    6  503    0 -0.49585809990E+02  0.97196051626E+02  0.59012964295E+01  0.10927328266E+03  0.00000000000E+00 0. -1.
         -3    1    6    6    0  503  0.13789891837E+02  0.25886394084E+03 -0.24648614765E+02  0.26040018278E+03  0.00000000000E+00 0.  1.
<mgrwt>
<rscale>  0 0.62059942E+03</rscale>
<asrwt>0</asrwt>
<pdfrwt beam="1">  1        1 0.27881804E+00 0.62059942E+03</pdfrwt>
<pdfrwt beam="2">  1       -1 0.74598866E-01 0.62059942E+03</pdfrwt>
<totfact> 0.77240317E+00</totfact>
</mgrwt>
</event>
<event>
12    1  0.8033771E-008  0.6385519E+03  0.7818608E-02  0.9828501E-01
          2   -1    0    0  501    0  0.00000000000E+00  0.00000000000E+00  0.26008407028E+04  0.26008407028E+04  0.00000000000E+00 0. -1.
         -2   -1    0    0    0  501 -0.00000000000E+00 -0.00000000000E+00 -0.41914797003E+03  0.41914797003E+03  0.00000000000E+00 0.  1.
         23    2    1    2    0    0  0.36391166205E+03  0.50579916697E+03 -0.44979822123E+02  0.63116350652E+03  0.89887109649E+02 0.  0.
    5000000    2    1    2    0    0 -0.36391166205E+03 -0.50579916697E+03  0.22266725549E+04  0.23888251664E+04  0.60012541475E+03 0.  0.
         23    2    4    4    0    0 -0.28969934123E+03 -0.49139425077E+03  0.21896100945E+04  0.22644642495E+04  0.89509515344E+02 0.  0.
         23    2    4    4    0    0 -0.74212320813E+02 -0.14404916206E+02  0.37062460469E+02  0.12436091689E+03  0.91526179323E+02 0.  0.
          2    1    3    3  502    0  0.35627968728E+03  0.45360808153E+03 -0.42415214191E+02  0.57835504458E+03  0.00000000000E+00 0. -1.
         -2    1    3    3    0  502  0.76319747695E+01  0.52191085450E+02 -0.25646079317E+01  0.52808461947E+02  0.00000000000E+00 0.  1.
         15    1    5    5    0    0 -0.11510096752E+03 -0.19261712266E+03  0.69555225834E+03  0.73085271463E+03  0.17770000000E+01 0. -1.
        -15    1    5    5    0    0 -0.17459837371E+03 -0.29877712811E+03  0.14940578361E+04  0.15336115348E+04  0.17770000000E+01 0.  1.
          3    1    6    6  503    0 -0.69237392187E+02 -0.17282261063E+02  0.64582907354E+02  0.96246791877E+02  0.00000000000E+00 0. -1.
         -3    1    6    6    0  503 -0.49749286262E+01  0.28773448564E+01 -0.27520446885E+02  0.28114125009E+02  0.00000000000E+00 0.  1.
<mgrwt>
<rscale>  0 0.63855193E+03</rscale>
<asrwt>0</asrwt>
<pdfrwt beam="1">  1        2 0.40012933E+00 0.63855193E+03</pdfrwt>
<pdfrwt beam="2">  1       -2 0.64484305E-01 0.63855193E+03</pdfrwt>
<totfact> 0.72574141E+00</totfact>
</mgrwt>
</event>
<event>
12    1  0.8033771E-008  0.6104982E+03  0.7818608E-02  0.9883862E-01
         -2   -1    0    0    0  501 -0.00000000000E+00  0.00000000000E+00  0.74989271716E+03  0.74989271716E+03  0.00000000000E+00 0.  1.
          2   -1    0    0  501    0  0.00000000000E+00 -0.00000000000E+00 -0.69357236319E+03  0.69357236319E+03  0.00000000000E+00 0. -1.
         23    2    1    2    0    0  0.37191015442E+03  0.34625568930E+03 -0.28258312311E+03  0.58719895610E+03  0.82092796501E+02 0.  0.
    5000000    2    1    2    0    0 -0.37191015442E+03 -0.34625568930E+03  0.33890347709E+03  0.85626612425E+03  0.60010494368E+03 0.  0.
         23    2    4    4    0    0 -0.67987718352E+02  0.11393764918E+03 -0.55902266943E+02  0.17194231901E+03  0.93994573616E+02 0.  0.
         23    2    4    4    0    0 -0.30392243607E+03 -0.46019333848E+03  0.39480574403E+03  0.68432380525E+03  0.90998565807E+02 0.  0.
          3    1    3    3  502    0  0.24137171276E+02  0.25828269856E+02 -0.47200280118E+02  0.58970916596E+02  0.00000000000E+00 0. -1.
         -3    1    3    3    0  502  0.34777298315E+03  0.32042741944E+03 -0.23538284300E+03  0.52822803950E+03  0.00000000000E+00 0.  1.
         15    1    5    5    0    0  0.13956415527E+02  0.44773565592E+02  0.72428916605E+01  0.47487586997E+02  0.17770000000E+01 0. -1.
        -15    1    5    5    0    0 -0.81944133880E+02  0.69164083585E+02 -0.63145158604E+02  0.12445473201E+03  0.17770000000E+01 0.  1.
          2    1    6    6  503    0 -0.38720056073E+02 -0.12676616439E+03  0.10440399401E+03  0.16872787897E+03  0.00000000000E+00 0. -1.
         -2    1    6    6    0  503 -0.26520238000E+03 -0.33342717409E+03  0.29040175003E+03  0.51559592628E+03  0.00000000000E+00 0.  1.
<mgrwt>
<rscale>  0 0.61049821E+03</rscale>
<asrwt>0</asrwt>
<pdfrwt beam="1">  1        2 0.10670344E+00 0.61049821E+03</pdfrwt>
<pdfrwt beam="2">  1       -2 0.11536811E+00 0.61049821E+03</pdfrwt>
<totfact> 0.24922783E+01</totfact>
</mgrwt>
</event>
<event>
12    1  0.8033771E-008  0.6156041E+03  0.7818608E-02  0.9873551E-01
          1   -1    0    0  501    0  0.00000000000E+00  0.00000000000E+00  0.94128791078E+03  0.94128791078E+03  0.00000000000E+00 0. -1.
         -1   -1    0    0    0  501 -0.00000000000E+00 -0.00000000000E+00 -0.57402842782E+03  0.57402842782E+03  0.00000000000E+00 0.  1.
         23    2    1    2    0    0 -0.29426243343E+03 -0.52358168326E+03  0.51941248483E+02  0.60969739052E+03  0.91130982290E+02 0.  0.
    5000000    2    1    2    0    0  0.29426243343E+03  0.52358168326E+03  0.31531823448E+03  0.90561894809E+03  0.59999327609E+03 0.  0.
         23    2    4    4    0    0  0.19753135151E+03  0.43602967771E+03  0.47724846000E+03  0.68217157973E+03  0.91931806025E+02 0.  0.
         23    2    4    4    0    0  0.96731081927E+02  0.87552005558E+02 -0.16193022552E+03  0.22344736835E+03  0.81762293260E+02 0.  0.
          1    1    3    3  502    0 -0.28116167754E+03 -0.49413337232E+03  0.27394949739E+02  0.56918376806E+03  0.00000000000E+00 0. -1.
         -1    1    3    3    0  502 -0.13100755895E+02 -0.29448310948E+02  0.24546298745E+02  0.40513622459E+02  0.00000000000E+00 0.  1.
         15    1    5    5    0    0  0.15421711858E+03  0.23021280244E+03  0.27033337673E+03  0.38712290861E+03  0.17770000000E+01 0. -1.
        -15    1    5    5    0    0  0.43314232930E+02  0.20581687526E+03  0.20691508327E+03  0.29504867112E+03  0.17770000000E+01 0.  1.
          4    1    6    6  503    0  0.87663869812E+02  0.43159984235E+02 -0.67651193836E+02  0.11884621297E+03  0.00000000000E+00 0. -1.
         -4    1    6    6    0  503  0.90672121156E+01  0.44392021323E+02 -0.94279031682E+02  0.10460115538E+03  0.00000000000E+00 0.  1.
<mgrwt>
<rscale>  0 0.61560409E+03</rscale>
<asrwt>0</asrwt>
<pdfrwt beam="1">  1        1 0.14481352E+00 0.61560409E+03</pdfrwt>
<pdfrwt beam="2">  1       -1 0.88312066E-01 0.61560409E+03</pdfrwt>
<totfact> 0.22194089E+01</totfact>
</mgrwt>
</event>
<event>
12    1  0.8033771E-008  0.4214569E+03  0.7818608E-02  0.1036593E+00
         -2   -1    0    0    0  501 -0.00000000000E+00  0.00000000000E+00  0.11296621340E+03  0.11296621340E+03  0.00000000000E+00 0.  1.
          2   -1    0    0  501    0  0.00000000000E+00 -0.00000000000E+00 -0.21510224581E+04  0.21510224581E+04  0.00000000000E+00 0. -1.
         23    2    1    2    0    0  0.54443988570E+02  0.21982006534E+03 -0.11078017834E+04  0.11342792491E+04  0.89886676892E+02 0.  0.
    5000000    2    1    2    0    0 -0.54443988570E+02 -0.21982006534E+03 -0.93025446136E+03  0.11297094224E+04  0.59965407296E+03 0.  0.
         23    2    4    4    0    0 -0.90262464805E+01  0.18362516261E+03 -0.18369859885E+03  0.27481102985E+03  0.89309873145E+02 0.  0.
         23    2    4    4    0    0 -0.45417742090E+02 -0.40344522796E+03 -0.74655586252E+03  0.85489839257E+03  0.93138512482E+02 0.  0.
          3    1    3    3  502    0 -0.21219350525E+02  0.90692286543E+02 -0.47173949693E+03  0.48084665398E+03  0.00000000000E+00 0. -1.
         -3    1    3    3    0  502  0.75663339095E+02  0.12912777880E+03 -0.63606228645E+03  0.65343259513E+03  0.00000000000E+00 0.  1.
         15    1    5    5    0    0 -0.54741552909E+01  0.12652309234E+03 -0.63503993245E+02  0.14168265299E+03  0.17770000000E+01 0. -1.
        -15    1    5    5    0    0 -0.35520911896E+01  0.57102070271E+02 -0.12019460560E+03  0.13312837686E+03  0.17770000000E+01 0.  1.
          3    1    6    6  503    0 -0.64630392586E+02 -0.16824204872E+03 -0.34006813568E+03  0.38487505961E+03  0.00000000000E+00 0. -1.
         -3    1    6    6    0  503  0.19212650496E+02 -0.23520317924E+03 -0.40648772683E+03  0.47002333296E+03  0.00000000000E+00 0.  1.
<mgrwt>
<rscale>  0 0.42145688E+03</rscale>
<asrwt>0</asrwt>
<pdfrwt beam="1">  1        2 0.33092650E+00 0.42145688E+03</pdfrwt>
<pdfrwt beam="2">  1       -2 0.17379419E-01 0.42145688E+03</pdfrwt>
<totfact> 0.16084264E+02</totfact>
</mgrwt>
</event>
<event>
12    1  0.8033771E-008  0.3181035E+03  0.7818608E-02  0.1076525E+00
          1   -1    0    0  501    0  0.00000000000E+00  0.00000000000E+00  0.15836775156E+03  0.15836775156E+03  0.00000000000E+00 0. -1.
         -1   -1    0    0    0  501 -0.00000000000E+00 -0.00000000000E+00 -0.14605803515E+04  0.14605803515E+04  0.00000000000E+00 0.  1.
         23    2    1    2    0    0  0.15343084192E+03 -0.14583925369E+03 -0.85806413814E+02  0.24616917994E+03  0.91795497350E+02 0.  0.
    5000000    2    1    2    0    0 -0.15343084192E+03  0.14583925369E+03 -0.12164061862E+04  0.13727789232E+04  0.60005653978E+03 0.  0.
         23    2    4    4    0    0 -0.25700539204E+03  0.26963415637E+02 -0.11457827598E+04  0.11775586670E+04  0.83949296063E+02 0.  0.
         23    2    4    4    0    0  0.10357455012E+03  0.11887583805E+03 -0.70623426345E+02  0.19522025610E+03  0.90907248010E+02 0.  0.
          4    1    3    3  502    0  0.41508950293E+02 -0.39685155289E+02  0.18063177689E+02  0.60201186807E+02  0.00000000000E+00 0. -1.
         -4    1    3    3    0  502  0.11192189163E+03 -0.10615409840E+03 -0.10386959150E+03  0.18596799314E+03  0.00000000000E+00 0.  1.
         15    1    5    5    0    0 -0.12039603507E+03 -0.34979482174E+01 -0.36603915255E+03  0.38535082695E+03  0.17770000000E+01 0.  1.
        -15    1    5    5    0    0 -0.13660935697E+03  0.30461363854E+02 -0.77974360728E+03  0.79220784010E+03  0.17770000000E+01 0. -1.
          1    1    6    6  503    0  0.99917032413E+02  0.88450072223E+02 -0.88139111135E+02  0.15992289253E+03  0.00000000000E+00 0. -1.
         -1    1    6    6    0  503  0.36575177048E+01  0.30425765826E+02  0.17515684790E+02  0.35297363577E+02  0.00000000000E+00 0.  1.
<mgrwt>
<rscale>  0 0.31810346E+03</rscale>
<asrwt>0</asrwt>
<pdfrwt beam="1">  1        1 0.24364271E-01 0.31810346E+03</pdfrwt>
<pdfrwt beam="2">  1       -1 0.22470466E+00 0.31810346E+03</pdfrwt>
<totfact> 0.22635672E+01</totfact>
</mgrwt>
</event>
<event>
12    1  0.8033771E-008  0.6598003E+03  0.7818608E-02  0.9788562E-01
          2   -1    0    0  501    0  0.00000000000E+00  0.00000000000E+00  0.11511418637E+04  0.11511418637E+04  0.00000000000E+00 0. -1.
         -2   -1    0    0    0  501 -0.00000000000E+00 -0.00000000000E+00 -0.39125656203E+03  0.39125656203E+03  0.00000000000E+00 0.  1.
         23    2    1    2    0    0  0.51204319215E+03 -0.13448992078E+03  0.24353120470E+03  0.59002404329E+03  0.92440005292E+02 0.  0.
    5000000    2    1    2    0    0 -0.51204319215E+03  0.13448992078E+03  0.51635409699E+03  0.95237438247E+03  0.60009969296E+03 0.  0.
         23    2    4    4    0    0  0.18642078929E+02 -0.15879520804E+03  0.85068390219E+02  0.20261361771E+03  0.90841630676E+02 0.  0.
         23    2    4    4    0    0 -0.53068527108E+03  0.29328512882E+03  0.43128570677E+03  0.74976076476E+03  0.92145644423E+02 0.  0.
          4    1    3    3  502    0  0.40261316487E+03 -0.65097566861E+02  0.18542027655E+03  0.44801309434E+03  0.00000000000E+00 0. -1.
         -4    1    3    3    0  502  0.10943002727E+03 -0.69392353918E+02  0.58110928152E+02  0.14201094895E+03  0.00000000000E+00 0.  1.
         15    1    5    5    0    0  0.13457334637E+02  0.21638049609E+01 -0.86858904658E+01  0.16259899434E+02  0.17770000000E+01 0.  1.
        -15    1    5    5    0    0  0.51847442922E+01 -0.16095901300E+03  0.93754280685E+02  0.18635371827E+03  0.17770000000E+01 0. -1.
          1    1    6    6  503    0 -0.45742513005E+03  0.23823743722E+03  0.40084249869E+03  0.65319946023E+03  0.00000000000E+00 0. -1.
         -1    1    6    6    0  503 -0.73260141032E+02  0.55047691591E+02  0.30443208076E+02  0.96561304525E+02  0.00000000000E+00 0.  1.
<mgrwt>
<rscale>  0 0.65980026E+03</rscale>
<asrwt>0</asrwt>
<pdfrwt beam="1">  1        2 0.17709875E+00 0.65980026E+03</pdfrwt>
<pdfrwt beam="2">  1       -2 0.60193318E-01 0.65980026E+03</pdfrwt>
<totfact> 0.53495144E+01</totfact>
</mgrwt>
</event>
<event>
12    1  0.8033771E-008  0.4850854E+03  0.7818608E-02  0.1017747E+00
         -2   -1    0    0    0  501 -0.00000000000E+00  0.00000000000E+00  0.31771366032E+03  0.31771366032E+03  0.00000000000E+00 0.  1.
          2   -1    0    0  501    0  0.00000000000E+00 -0.00000000000E+00 -0.82067761371E+03  0.82067761371E+03  0.00000000000E+00 0. -1.
         23    2    1    2    0    0 -0.21793100630E+03  0.23710131991E+03 -0.22278641602E+03  0.40191144003E+03  0.90487894516E+02 0.  0.
    5000000    2    1    2    0    0  0.21793100630E+03 -0.23710131991E+03 -0.28017753737E+03  0.73647983400E+03  0.60016009033E+03 0.  0.
         23    2    4    4    0    0 -0.15256916507E+03  0.55222114278E+02 -0.19316496794E+02  0.18949497672E+03  0.95960341391E+02 0.  0.
         23    2    4    4    0    0  0.37050017137E+03 -0.29232343419E+03 -0.26086104057E+03  0.54698485728E+03  0.91763742530E+02 0.  0.
          3    1    3    3  502    0 -0.21153767751E+02 -0.12863200527E+01 -0.54471479270E+00  0.21199840177E+02  0.00000000000E+00 0. -1.
         -3    1    3    3    0  502 -0.19677723855E+03  0.23838763997E+03 -0.22224170123E+03  0.38071159986E+03  0.00000000000E+00 0.  1.
         15    1    5    5    0    0 -0.96674249770E+02  0.54426577530E+02 -0.54295471253E+02  0.12352861546E+03  0.17770000000E+01 0.  1.
        -15    1    5    5    0    0 -0.55894915296E+02  0.79553674761E+00  0.34978974458E+02  0.65966361259E+02  0.17770000000E+01 0. -1.
          3    1    6    6  503    0  0.26003807780E+03 -0.22304895405E+03 -0.14306019186E+03  0.37126386345E+03  0.00000000000E+00 0. -1.
         -3    1    6    6    0  503  0.11046209356E+03 -0.69274480138E+02 -0.11780084872E+03  0.17572099383E+03  0.00000000000E+00 0.  1.
<mgrwt>
<rscale>  0 0.48508540E+03</rscale>
<asrwt>0</asrwt>
<pdfrwt beam="1">  1        2 0.12625809E+00 0.48508540E+03</pdfrwt>
<pdfrwt beam="2">  1       -2 0.48879026E-01 0.48508540E+03</pdfrwt>
<totfact> 0.13608865E+02</totfact>
</mgrwt>
</event>
<event>
12    1  0.8033771E-008  0.7814066E+03  0.7818608E-02  0.9587327E-01
         -2   -1    0    0    0  501 -0.00000000000E+00  0.00000000000E+00  0.79150536222E+03  0.79150536222E+03  0.00000000000E+00 0.  1.
          2   -1    0    0  501    0  0.00000000000E+00 -0.00000000000E+00 -0.15931787133E+04  0.15931787133E+04  0.00000000000E+00 0. -1.
         23    2    1    2    0    0  0.34880493084E+03  0.68795858047E+03  0.36945279059E+03  0.85966703706E+03  0.87064125300E+02 0.  0.
    5000000    2    1    2    0    0 -0.34880493084E+03 -0.68795858047E+03 -0.11711261417E+04  0.15250170385E+04  0.59932348502E+03 0.  0.
         23    2    4    4    0    0 -0.12276582576E+03 -0.13241200036E+03  0.67690331269E+01  0.20070653874E+03  0.87366521452E+02 0.  0.
         23    2    4    4    0    0 -0.22603910508E+03 -0.55554658011E+03 -0.11778951748E+04  0.13243104998E+04  0.81459052026E+02 0.  0.
          4    1    3    3  502    0  0.17189921645E+03  0.27908830763E+03  0.11981724696E+03  0.34899254540E+03  0.00000000000E+00 0. -1.
         -4    1    3    3    0  502  0.17690571439E+03  0.40887027284E+03  0.24963554362E+03  0.51067449166E+03  0.00000000000E+00 0.  1.
         15    1    5    5    0    0 -0.20699958468E+02 -0.55456878797E+02 -0.31744653572E+02  0.67192517782E+02  0.17770000000E+01 0.  1.
        -15    1    5    5    0    0 -0.10206586729E+03 -0.76955121564E+02  0.38513686699E+02  0.13351402096E+03  0.17770000000E+01 0. -1.
          4    1    6    6  503    0 -0.22059433148E+02 -0.11363726000E+03 -0.17936482476E+03  0.21347549230E+03  0.00000000000E+00 0. -1.
         -4    1    6    6    0  503 -0.20397967193E+03 -0.44190932010E+03 -0.99853035008E+03  0.11108350075E+04  0.00000000000E+00 0.  1.
<mgrwt>
<rscale>  0 0.78140659E+03</rscale>
<asrwt>0</asrwt>
<pdfrwt beam="1">  1        2 0.24510441E+00 0.78140659E+03</pdfrwt>
<pdfrwt beam="2">  1       -2 0.12177006E+00 0.78140659E+03</pdfrwt>
<totfact> 0.58885176E+00</totfact>
</mgrwt>
</event>
<event>
12    1  0.8033771E-008  0.6735480E+03  0.7818608E-02  0.9763569E-01
         -2   -1    0    0    0  501 -0.00000000000E+00  0.00000000000E+00  0.38947078908E+03  0.38947078908E+03  0.00000000000E+00 0.  1.
          2   -1    0    0  501    0  0.00000000000E+00 -0.00000000000E+00 -0.16622500114E+04  0.16622500114E+04  0.00000000000E+00 0. -1.
         23    2    1    2    0    0 -0.10437008570E+03 -0.64270789888E+03 -0.83857933823E+03  0.10656349364E+04  0.91629433953E+02 0.  0.
    5000000    2    1    2    0    0  0.10437008570E+03  0.64270789888E+03 -0.43419988408E+03  0.98608586404E+03  0.59989101832E+03 0.  0.
         23    2    4    4    0    0  0.10395554947E+03  0.17557701220E+03 -0.45706516783E+03  0.50933754142E+03  0.94244999743E+02 0.  0.
         23    2    4    4    0    0  0.41453622882E+00  0.46713088668E+03  0.22865283748E+02  0.47674832262E+03  0.92491647156E+02 0.  0.
          1    1    3    3  502    0 -0.36760599231E+02 -0.47206937194E+03 -0.58539831152E+03  0.75292231785E+03  0.00000000000E+00 0. -1.
         -1    1    3    3    0  502 -0.67609486472E+02 -0.17063852693E+03 -0.25318102670E+03  0.31271261858E+03  0.00000000000E+00 0.  1.
         15    1    5    5    0    0  0.97813127780E+02  0.86558547675E+02 -0.21778606198E+03  0.25395613138E+03  0.17770000000E+01 0.  1.
        -15    1    5    5    0    0  0.61424216944E+01  0.89018464525E+02 -0.23927910585E+03  0.25538141004E+03  0.17770000000E+01 0. -1.
          3    1    6    6  503    0  0.25287383153E+02  0.31658634854E+03 -0.20097207597E+02  0.31822989423E+03  0.00000000000E+00 0. -1.
         -3    1    6    6    0  503 -0.24872846924E+02  0.15054453813E+03  0.42962491345E+02  0.15851842839E+03  0.00000000000E+00 0.  1.
<mgrwt>
<rscale>  0 0.67354803E+03</rscale>
<asrwt>0</asrwt>
<pdfrwt beam="1">  1        2 0.25573077E+00 0.67354803E+03</pdfrwt>
<pdfrwt beam="2">  1       -2 0.59918583E-01 0.67354803E+03</pdfrwt>
<totfact> 0.27711521E+01</totfact>
</mgrwt>
</event>
<event>
12    1  0.8033771E-008  0.1217322E+04  0.7818608E-02  0.9097829E-01
          2   -1    0    0  501    0  0.00000000000E+00  0.00000000000E+00  0.15607498421E+04  0.15607498421E+04  0.00000000000E+00 0. -1.
         -2   -1    0    0    0  501 -0.00000000000E+00 -0.00000000000E+00 -0.13283123174E+04  0.13283123174E+04  0.00000000000E+00 0.  1.
         23    2    1    2    0    0 -0.11868964359E+04 -0.25201320285E+02  0.80874255636E+03  0.14394112065E+04  0.92096920554E+02 0.  0.
    5000000    2    1    2    0    0  0.11868964359E+04  0.25201320285E+02 -0.57630503161E+03  0.14496509530E+04  0.60000178314E+03 0.  0.
         23    2    4    4    0    0  0.17744047863E+03  0.11129366349E+03 -0.33285224580E+03  0.40357873789E+03  0.90629891020E+02 0.  0.
         23    2    4    4    0    0  0.10094559573E+04 -0.86092343209E+02 -0.24345278581E+03  0.10460722151E+04  0.92653110751E+02 0.  0.
          4    1    3    3  502    0 -0.80999154301E+03  0.21938606361E+02  0.57179344357E+03  0.99172342128E+03  0.00000000000E+00 0. -1.
         -4    1    3    3    0  502 -0.37690489292E+03 -0.47139926646E+02  0.23694911279E+03  0.44768778523E+03  0.00000000000E+00 0.  1.
         15    1    5    5    0    0  0.15908149708E+03  0.54382340316E+02 -0.23672848456E+03  0.29035821804E+03  0.17770000000E+01 0. -1.
        -15    1    5    5    0    0  0.18358981547E+02  0.56911323179E+02 -0.96123761249E+02  0.11322051985E+03  0.17770000000E+01 0.  1.
          4    1    6    6  503    0  0.20856892866E+03 -0.51962664097E+02 -0.68422725260E+02  0.22557212991E+03  0.00000000000E+00 0. -1.
         -4    1    6    6    0  503  0.80088702864E+03 -0.34129679112E+02 -0.17503006055E+03  0.82050008516E+03  0.00000000000E+00 0.  1.
<mgrwt>
<rscale>  0 0.12173217E+04</rscale>
<asrwt>0</asrwt>
<pdfrwt beam="1">  1        2 0.24011536E+00 0.12173217E+04</pdfrwt>
<pdfrwt beam="2">  1       -2 0.20435574E+00 0.12173217E+04</pdfrwt>
<totfact> 0.14147692E+00</totfact>
</mgrwt>
</event>
<event>
12    1  0.8033771E-008  0.7420005E+03  0.7818608E-02  0.9647985E-01
          1   -1    0    0  501    0  0.00000000000E+00  0.00000000000E+00  0.21445782959E+03  0.21445782959E+03  0.00000000000E+00 0. -1.
         -1   -1    0    0    0  501 -0.00000000000E+00 -0.00000000000E+00 -0.28131665237E+04  0.28131665237E+04  0.00000000000E+00 0.  1.
         23    2    1    2    0    0 -0.63435073943E+03 -0.20047602140E+02 -0.14428659581E+04  0.15789492519E+04  0.91737669632E+02 0.  0.
    5000000    2    1    2    0    0  0.63435073943E+03  0.20047602140E+02 -0.11558427360E+04  0.14486751014E+04  0.59990361900E+03 0.  0.
         23    2    4    4    0    0  0.54327833427E+03  0.24792654703E+03 -0.73665574424E+03  0.95238479257E+03  0.88069213606E+02 0.  0.
         23    2    4    4    0    0  0.91072405154E+02 -0.22787894489E+03 -0.41918699179E+03  0.49629030886E+03  0.10180049150E+03 0.  0.
          4    1    3    3  502    0 -0.22332371920E+03 -0.23642605315E+02 -0.61353678962E+03  0.65334512209E+03  0.00000000000E+00 0. -1.
         -4    1    3    3    0  502 -0.41102702022E+03  0.35950031752E+01 -0.82932916848E+03  0.92560412980E+03  0.00000000000E+00 0.  1.
         15    1    5    5    0    0  0.32496522567E+03  0.19078002414E+03 -0.43223078868E+03  0.57343354272E+03  0.17770000000E+01 0. -1.
        -15    1    5    5    0    0  0.21831310860E+03  0.57146522894E+02 -0.30442495556E+03  0.37895124985E+03  0.17770000000E+01 0.  1.
          2    1    6    6  503    0  0.84502062603E+02 -0.21967966900E+03 -0.32369871800E+03  0.40022570581E+03  0.00000000000E+00 0. -1.
         -2    1    6    6    0  503  0.65703425510E+01 -0.81992758926E+01 -0.95488273793E+02  0.96064603046E+02  0.00000000000E+00 0.  1.
<mgrwt>
<rscale>  0 0.74200047E+03</rscale>
<asrwt>0</asrwt>
<pdfrwt beam="1">  1        1 0.32993513E-01 0.74200047E+03</pdfrwt>
<pdfrwt beam="2">  1       -1 0.43279484E+00 0.74200047E+03</pdfrwt>
<totfact> 0.61825391E-01</totfact>
</mgrwt>
</event>
<event>
12    1  0.8033771E-008  0.1895404E+04  0.7818608E-02  0.8657147E-01
          2   -1    0    0  501    0  0.00000000000E+00  0.00000000000E+00  0.30488945839E+04  0.30488945839E+04  0.00000000000E+00 0. -1.
         -2   -1    0    0    0  501 -0.00000000000E+00 -0.00000000000E+00 -0.12257834808E+04  0.12257834808E+04  0.00000000000E+00 0.  1.
         23    2    1    2    0    0 -0.16179994194E+02  0.18739188500E+04  0.11198825453E+04  0.21850965605E+04  0.93147273108E+02 0.  0.
    5000000    2    1    2    0    0  0.16179994194E+02 -0.18739188500E+04  0.70322855768E+03  0.20895815042E+04  0.59998900808E+03 0.  0.
         23    2    4    4    0    0 -0.17678971416E+03 -0.10904751686E+04  0.17859483891E+03  0.11228268263E+04  0.91941661072E+02 0.  0.
         23    2    4    4    0    0  0.19296970836E+03 -0.78344368146E+03  0.52463371877E+03  0.96675467795E+03  0.91393424863E+02 0.  0.
          1    1    3    3  502    0 -0.18288590359E+02  0.14192657121E+04  0.89348128883E+03  0.16771876602E+04  0.00000000000E+00 0. -1.
         -1    1    3    3    0  502  0.21085961648E+01  0.45465313790E+03  0.22640125651E+03  0.50790890023E+03  0.00000000000E+00 0.  1.
         15    1    5    5    0    0 -0.13889441506E+02 -0.76192116483E+02  0.36936031112E+02  0.85822976660E+02  0.17770000000E+01 0. -1.
        -15    1    5    5    0    0 -0.16290027266E+03 -0.10142830521E+04  0.14165880780E+03  0.10370038496E+04  0.17770000000E+01 0.  1.
          3    1    6    6  503    0 -0.92417618055E+01 -0.65140129767E+02  0.43175503386E+02  0.78694159630E+02  0.00000000000E+00 0. -1.
         -3    1    6    6    0  503  0.20221147016E+03 -0.71830355169E+03  0.48145821539E+03  0.88806051832E+03  0.00000000000E+00 0.  1.
<mgrwt>
<rscale>  0 0.18954042E+04</rscale>
<asrwt>0</asrwt>
<pdfrwt beam="1">  1        2 0.46906070E+00 0.18954042E+04</pdfrwt>
<pdfrwt beam="2">  1       -2 0.18858207E+00 0.18954042E+04</pdfrwt>
<totfact> 0.23238129E-01</totfact>
</mgrwt>
</event>
<event>
12    1  0.8033771E-008  0.4544163E+03  0.7818608E-02  0.1026413E+00
          1   -1    0    0  501    0  0.00000000000E+00  0.00000000000E+00  0.39465460468E+03  0.39465460468E+03  0.00000000000E+00 0. -1.
         -1   -1    0    0    0  501 -0.00000000000E+00 -0.00000000000E+00 -0.92622675981E+03  0.92622675981E+03  0.00000000000E+00 0.  1.
         23    2    1    2    0    0 -0.33051666205E+03 -0.28080291319E+03 -0.71335770110E+02  0.44914296441E+03  0.92461183352E+02 0.  0.
    5000000    2    1    2    0    0  0.33051666205E+03  0.28080291319E+03 -0.46023638501E+03  0.87173840008E+03  0.60001563990E+03 0.  0.
         23    2    4    4    0    0  0.13214449189E+03  0.14978238740E+03  0.11057100227E+03  0.24673723419E+03  0.93575562435E+02 0.  0.
         23    2    4    4    0    0  0.19837217017E+03  0.13102052580E+03 -0.57080738728E+03  0.62500116588E+03  0.91035640853E+02 0.  0.
          3    1    3    3  502    0 -0.17177626399E+03 -0.16004900246E+03  0.69363771025E+01  0.23488482579E+03  0.00000000000E+00 0. -1.
         -3    1    3    3    0  502 -0.15874039806E+03 -0.12075391073E+03 -0.78272147213E+02  0.21425813861E+03  0.00000000000E+00 0.  1.
         15    1    5    5    0    0  0.12180799613E+03  0.71611909157E+02  0.77973819517E+02  0.16139556287E+03  0.17770000000E+01 0.  1.
        -15    1    5    5    0    0  0.10336495760E+02  0.78170478240E+02  0.32597182749E+02  0.85341671328E+02  0.17770000000E+01 0. -1.
          1    1    6    6  503    0  0.19566553380E+02  0.58117685794E+02 -0.14691597208E+03  0.15920055988E+03  0.00000000000E+00 0. -1.
         -1    1    6    6    0  503  0.17880561679E+03  0.72902840004E+02 -0.42389141520E+03  0.46580060600E+03  0.00000000000E+00 0.  1.
<mgrwt>
<rscale>  0 0.45441626E+03</rscale>
<asrwt>0</asrwt>
<pdfrwt beam="1">  1        1 0.60716094E-01 0.45441626E+03</pdfrwt>
<pdfrwt beam="2">  1       -1 0.14249642E+00 0.45441626E+03</pdfrwt>
<totfact> 0.25983069E+01</totfact>
</mgrwt>
</event>
<event>
12    1  0.8033771E-008  0.1168044E+04  0.7818608E-02  0.9141296E-01
         -2   -1    0    0    0  501 -0.00000000000E+00  0.00000000000E+00  0.13834283423E+04  0.13834283423E+04  0.00000000000E+00 0.  1.
          2   -1    0    0  501    0  0.00000000000E+00 -0.00000000000E+00 -0.11172539549E+04  0.11172539549E+04  0.00000000000E+00 0. -1.
         23    2    1    2    0    0 -0.22222704023E+03  0.11459870385E+04  0.18782023714E+03  0.11858976416E+04  0.91682196481E+02 0.  0.
    5000000    2    1    2    0    0  0.22222704023E+03 -0.11459870385E+04  0.78354150240E+02  0.13147846555E+04  0.59987345967E+03 0.  0.
         23    2    4    4    0    0  0.56618310476E+02 -0.37002815754E+03 -0.24132137980E+03  0.45444557875E+03  0.90323337184E+02 0.  0.
         23    2    4    4    0    0  0.16560872975E+03 -0.77595888096E+03  0.31967553004E+03  0.86033907674E+03  0.91937185898E+02 0.  0.
          1    1    3    3  502    0 -0.41164397349E+02  0.25254768952E+03  0.79145714161E+02  0.26784116032E+03  0.00000000000E+00 0. -1.
         -1    1    3    3    0  502 -0.18106264288E+03  0.89343934898E+03  0.10867452298E+03  0.91805648133E+03  0.00000000000E+00 0.  1.
         15    1    5    5    0    0  0.14193625672E+01 -0.73856937970E+02 -0.92578452310E+02  0.11845163333E+03  0.17770000000E+01 0. -1.
        -15    1    5    5    0    0  0.55198947908E+02 -0.29617121957E+03 -0.14874292749E+03  0.33599394542E+03  0.17770000000E+01 0.  1.
          3    1    6    6  503    0  0.10373222803E+03 -0.49155712719E+03  0.15411313107E+03  0.52548990627E+03  0.00000000000E+00 0. -1.
         -3    1    6    6    0  503  0.61876501723E+02 -0.28440175377E+03  0.16556239897E+03  0.33484917047E+03  0.00000000000E+00 0.  1.
<mgrwt>
<rscale>  0 0.11680444E+04</rscale>
<asrwt>0</asrwt>
<pdfrwt beam="1">  1        2 0.17188522E+00 0.11680444E+04</pdfrwt>
<pdfrwt beam="2">  1       -2 0.21283513E+00 0.11680444E+04</pdfrwt>
<totfact> 0.22755896E+00</totfact>
</mgrwt>
</event>
<event>
12    1  0.8033771E-008  0.5815062E+03  0.7818608E-02  0.9944535E-01
         -2   -1    0    0    0  501 -0.00000000000E+00  0.00000000000E+00  0.80587338028E+03  0.80587338028E+03  0.00000000000E+00 0.  1.
          2   -1    0    0  501    0  0.00000000000E+00 -0.00000000000E+00 -0.59056061301E+03  0.59056061301E+03  0.00000000000E+00 0. -1.
         23    2    1    2    0    0 -0.38487803216E+03  0.30571212931E+03  0.34824733697E+03  0.60948161776E+03  0.92739576429E+02 0.  0.
    5000000    2    1    2    0    0  0.38487803216E+03 -0.30571212931E+03 -0.13293456970E+03  0.78695237552E+03  0.60002619599E+03 0.  0.
         23    2    4    4    0    0  0.40013840988E+03 -0.39967025149E+03 -0.23618781148E+03  0.61931106064E+03  0.88963197780E+02 0.  0.
         23    2    4    4    0    0 -0.15260377714E+02  0.93958122186E+02  0.10325324178E+03  0.16764131488E+03  0.91549826125E+02 0.  0.
          4    1    3    3  502    0 -0.22295521880E+03  0.19423121621E+03  0.26098724028E+03  0.39439717865E+03  0.00000000000E+00 0. -1.
         -4    1    3    3    0  502 -0.16192281336E+03  0.11148091310E+03  0.87260096691E+02  0.21508443911E+03  0.00000000000E+00 0.  1.
         15    1    5    5    0    0  0.26867767097E+03 -0.31756123347E+03 -0.19186802762E+03  0.45809314078E+03  0.17770000000E+01 0.  1.
        -15    1    5    5    0    0  0.13146073890E+03 -0.82109018022E+02 -0.44319783861E+02  0.16121791986E+03  0.17770000000E+01 0. -1.
          1    1    6    6  503    0  0.78399815737E+01  0.44189214365E+02  0.10345739282E+03  0.11277226657E+03  0.00000000000E+00 0. -1.
         -1    1    6    6    0  503 -0.23100359288E+02  0.49768907821E+02 -0.20415104295E+00  0.54869048311E+02  0.00000000000E+00 0.  1.
<mgrwt>
<rscale>  0 0.58150621E+03</rscale>
<asrwt>0</asrwt>
<pdfrwt beam="1">  1        2 0.90855479E-01 0.58150621E+03</pdfrwt>
<pdfrwt beam="2">  1       -2 0.12398052E+00 0.58150621E+03</pdfrwt>
<totfact> 0.25474266E+01</totfact>
</mgrwt>
</event>
<event>
12    1  0.8033771E-008  0.8807283E+03  0.7818608E-02  0.9449998E-01
          2   -1    0    0  501    0  0.00000000000E+00  0.00000000000E+00  0.11831298431E+04  0.11831298431E+04  0.00000000000E+00 0. -1.
         -2   -1    0    0    0  501 -0.00000000000E+00 -0.00000000000E+00 -0.67839421467E+03  0.67839421467E+03  0.00000000000E+00 0.  1.
         23    2    1    2    0    0  0.46300808816E+03  0.63520366010E+03  0.11973705814E+03  0.80033254910E+03  0.91296476134E+02 0.  0.
    5000000    2    1    2    0    0 -0.46300808816E+03 -0.63520366010E+03  0.38499857030E+03  0.10611915087E+04  0.60003611513E+03 0.  0.
         23    2    4    4    0    0 -0.57580715829E+03 -0.40360967780E+03  0.21851604988E+03  0.74124549019E+03  0.85093813687E+02 0.  0.
         23    2    4    4    0    0  0.11279907013E+03 -0.23159398230E+03  0.16648252043E+03  0.31994601849E+03  0.91047362846E+02 0.  0.
          1    1    3    3  502    0  0.44203147745E+03  0.56600025444E+03  0.11943121008E+03  0.72801918177E+03  0.00000000000E+00 0. -1.
         -1    1    3    3    0  502  0.20976610708E+02  0.69203405665E+02  0.30584806171E+00  0.72313367336E+02  0.00000000000E+00 0.  1.
         15    1    5    5    0    0 -0.19006770879E+03 -0.16465270914E+03  0.11122326486E+03  0.27497276397E+03  0.17770000000E+01 0.  1.
        -15    1    5    5    0    0 -0.38573944950E+03 -0.23895696866E+03  0.10729278501E+03  0.46627272622E+03  0.17770000000E+01 0. -1.
          1    1    6    6  503    0  0.39899318071E+02 -0.15483432626E+03  0.13566342857E+03  0.20969070085E+03  0.00000000000E+00 0. -1.
         -1    1    6    6    0  503  0.72899752058E+02 -0.76759656049E+02  0.30819091854E+02  0.11025531765E+03  0.00000000000E+00 0.  1.
<mgrwt>
<rscale>  0 0.88072828E+03</rscale>
<asrwt>0</asrwt>
<pdfrwt beam="1">  1        2 0.18201998E+00 0.88072828E+03</pdfrwt>
<pdfrwt beam="2">  1       -2 0.10436834E+00 0.88072828E+03</pdfrwt>
<totfact> 0.14529807E+01</totfact>
</mgrwt>
</event>
<event>
12    1  0.8033771E-008  0.4376445E+03  0.7818608E-02  0.1031472E+00
          2   -1    0    0  501    0  0.00000000000E+00  0.00000000000E+00  0.15046345123E+04  0.15046345123E+04  0.00000000000E+00 0. -1.
         -2   -1    0    0    0  501 -0.00000000000E+00 -0.00000000000E+00 -0.16569928754E+03  0.16569928754E+03  0.00000000000E+00 0.  1.
         23    2    1    2    0    0 -0.15932458328E+03 -0.24907239294E+03  0.27889274311E+03  0.41686116067E+03  0.92577996059E+02 0.  0.
    5000000    2    1    2    0    0  0.15932458328E+03  0.24907239294E+03  0.10600424816E+04  0.12534726392E+04  0.60006850816E+03 0.  0.
         23    2    4    4    0    0 -0.16868157723E+03  0.48931031340E+02  0.11052746699E+03  0.22532517770E+03  0.87791767404E+02 0.  0.
         23    2    4    4    0    0  0.32800616051E+03  0.20014136160E+03  0.94951501464E+03  0.10281474614E+04  0.88678258341E+02 0.  0.
          3    1    3    3  502    0 -0.23280421463E+02 -0.85563321060E+02  0.12944139308E+03  0.15690167041E+03  0.00000000000E+00 0. -1.
         -3    1    3    3    0  502 -0.13604416181E+03 -0.16350907188E+03  0.14945135002E+03  0.25995949025E+03  0.00000000000E+00 0.  1.
         15    1    5    5    0    0 -0.31333638555E+02 -0.10432565655E+02  0.57941326148E+02  0.66715742790E+02  0.17770000000E+01 0. -1.
        -15    1    5    5    0    0 -0.13734793867E+03  0.59363596995E+02  0.52586140842E+02  0.15860943491E+03  0.17770000000E+01 0.  1.
          3    1    6    6  503    0  0.10998505878E+03  0.28217952249E+02  0.33769288361E+03  0.35627159531E+03  0.00000000000E+00 0. -1.
         -3    1    6    6    0  503  0.21802110172E+03  0.17192340935E+03  0.61182213103E+03  0.67187586614E+03  0.00000000000E+00 0.  1.
<mgrwt>
<rscale>  0 0.43764450E+03</rscale>
<asrwt>0</asrwt>
<pdfrwt beam="1">  1        2 0.23148222E+00 0.43764450E+03</pdfrwt>
<pdfrwt beam="2">  1       -2 0.25492199E-01 0.43764450E+03</pdfrwt>
<totfact> 0.18289376E+02</totfact>
</mgrwt>
</event>
<event>
12    1  0.8033771E-008  0.5282346E+03  0.7818608E-02  0.1006661E+00
         -1   -1    0    0    0  501 -0.00000000000E+00  0.00000000000E+00  0.15326161908E+03  0.15326161908E+03  0.00000000000E+00 0.  1.
          1   -1    0    0  501    0  0.00000000000E+00 -0.00000000000E+00 -0.19658372625E+04  0.19658372625E+04  0.00000000000E+00 0. -1.
         23    2    1    2    0    0  0.61867271498E+02 -0.36293927106E+03 -0.80455077792E+03  0.88968279828E+03  0.93172171520E+02 0.  0.
    5000000    2    1    2    0    0 -0.61867271498E+02  0.36293927106E+03 -0.10080248655E+04  0.12294160833E+04  0.59983106177E+03 0.  0.
         23    2    4    4    0    0 -0.66062430059E+02 -0.14928936294E+03 -0.25482791484E+03  0.31366905335E+03  0.82458779356E+02 0.  0.
         23    2    4    4    0    0  0.41951585617E+01  0.51222863400E+03 -0.75319695067E+03  0.91574702997E+03  0.94293178708E+02 0.  0.
          4    1    3    3  502    0  0.23729025757E+02 -0.39767029891E+02 -0.17472145476E+03  0.18075417030E+03  0.00000000000E+00 0. -1.
         -4    1    3    3    0  502  0.38138245740E+02 -0.32317224117E+03 -0.62982932316E+03  0.70892862797E+03  0.00000000000E+00 0.  1.
         15    1    5    5    0    0 -0.22479828915E+02 -0.99315779467E+02 -0.89690407123E+02  0.13570738233E+03  0.17770000000E+01 0. -1.
        -15    1    5    5    0    0 -0.43582601145E+02 -0.49973583472E+02 -0.16513750772E+03  0.17796167102E+03  0.17770000000E+01 0.  1.
          4    1    6    6  503    0 -0.31172274555E+02  0.26413414788E+03 -0.32904916414E+03  0.42309799243E+03  0.00000000000E+00 0. -1.
         -4    1    6    6    0  503  0.35367433117E+02  0.24809448612E+03 -0.42414778653E+03  0.49264903754E+03  0.00000000000E+00 0.  1.
<mgrwt>
<rscale>  0 0.52823459E+03</rscale>
<asrwt>0</asrwt>
<pdfrwt beam="1">  1        1 0.30243649E+00 0.52823459E+03</pdfrwt>
<pdfrwt beam="2">  1       -1 0.23578712E-01 0.52823459E+03</pdfrwt>
<totfact> 0.51845528E+01</totfact>
</mgrwt>
</event>
<event>
12    1  0.8033771E-008  0.6326747E+03  0.7818608E-02  0.9839843E-01
         -1   -1    0    0    0  501 -0.00000000000E+00  0.00000000000E+00  0.23242437914E+03  0.23242437914E+03  0.00000000000E+00 0.  1.
          1   -1    0    0  501    0  0.00000000000E+00 -0.00000000000E+00 -0.19001974280E+04  0.19001974280E+04  0.00000000000E+00 0. -1.
         23    2    1    2    0    0  0.35641121276E+03  0.38132773047E+03 -0.59024788318E+03  0.79345794142E+03  0.93504815852E+02 0.  0.
    5000000    2    1    2    0    0 -0.35641121276E+03 -0.38132773047E+03 -0.10775251656E+04  0.13391638657E+04  0.59988297691E+03 0.  0.
         23    2    4    4    0    0 -0.47572057011E+03 -0.25203254646E+03 -0.54765836493E+03  0.77346820465E+03  0.92157005256E+02 0.  0.
         23    2    4    4    0    0  0.11930935736E+03 -0.12929518401E+03 -0.52986680072E+03  0.56569566105E+03  0.91108655290E+02 0.  0.
          3    1    3    3  502    0  0.10022510631E+02  0.26273164726E+02 -0.65967918722E+02  0.71711199994E+02  0.00000000000E+00 0. -1.
         -3    1    3    3    0  502  0.34638870213E+03  0.35505456574E+03 -0.52427996446E+03  0.72174674142E+03  0.00000000000E+00 0.  1.
         15    1    5    5    0    0 -0.43422350307E+03 -0.19847253529E+03 -0.49413085599E+03  0.68710250942E+03  0.17770000000E+01 0. -1.
        -15    1    5    5    0    0 -0.41497067044E+02 -0.53560011165E+02 -0.53527508941E+02  0.86365695225E+02  0.17770000000E+01 0.  1.
          3    1    6    6  503    0  0.10629666771E+03 -0.14227849756E+03 -0.50021790849E+03  0.53081080284E+03  0.00000000000E+00 0. -1.
         -3    1    6    6    0  503  0.13012689642E+02  0.12983313546E+02 -0.29648892230E+02  0.34884858217E+02  0.00000000000E+00 0.  1.
<mgrwt>
<rscale>  0 0.63267469E+03</rscale>
<asrwt>0</asrwt>
<pdfrwt beam="1">  1        1 0.29233806E+00 0.63267469E+03</pdfrwt>
<pdfrwt beam="2">  1       -1 0.35757598E-01 0.63267469E+03</pdfrwt>
<totfact> 0.27431107E+01</totfact>
</mgrwt>
</event>
<event>
12    1  0.8033771E-008  0.4656426E+03  0.7818608E-02  0.1023157E+00
          2   -1    0    0  501    0  0.00000000000E+00  0.00000000000E+00  0.97720754550E+03  0.97720754550E+03  0.00000000000E+00 0.  1.
         -2   -1    0    0    0  501 -0.00000000000E+00 -0.00000000000E+00 -0.33034675278E+03  0.33034675278E+03  0.00000000000E+00 0. -1.
         23    2    1    2    0    0  0.17961220494E+03  0.35333131775E+03  0.15218816679E+03  0.43472929771E+03  0.93406423296E+02 0.  0.
    5000000    2    1    2    0    0 -0.17961220494E+03 -0.35333131775E+03  0.49467262594E+03  0.87282500056E+03  0.60001575854E+03 0.  0.
         23    2    4    4    0    0  0.72921400252E+02 -0.19197420429E+03  0.51299428446E+03  0.55880523094E+03  0.83237758917E+02 0.  0.
         23    2    4    4    0    0 -0.25253360519E+03 -0.16135711346E+03 -0.18321658527E+02  0.31401976962E+03  0.91996699546E+02 0.  0.
          4    1    3    3  502    0  0.58036115948E+02  0.12782523580E+03  0.76813179145E+01  0.14059332952E+03  0.00000000000E+00 0. -1.
         -4    1    3    3    0  502  0.12157608899E+03  0.22550608195E+03  0.14450684887E+03  0.29413596819E+03  0.00000000000E+00 0.  1.
         15    1    5    5    0    0 -0.18276772424E+02 -0.44794647888E+02  0.10902900068E+03  0.11929409713E+03  0.17770000000E+01 0. -1.
        -15    1    5    5    0    0  0.91198172676E+02 -0.14717955640E+03  0.40396528378E+03  0.43951113382E+03  0.17770000000E+01 0.  1.
          1    1    6    6  503    0 -0.92896930052E+02 -0.11312770109E+03 -0.12750937819E+01  0.14638764371E+03  0.00000000000E+00 0. -1.
         -1    1    6    6    0  503 -0.15963667514E+03 -0.48229412364E+02 -0.17046564745E+02  0.16763212591E+03  0.00000000000E+00 0.  1.
<mgrwt>
<rscale>  0 0.46564257E+03</rscale>
<asrwt>0</asrwt>
<pdfrwt beam="1">  1        2 0.15033962E+00 0.46564257E+03</pdfrwt>
<pdfrwt beam="2">  1       -2 0.50822578E-01 0.46564257E+03</pdfrwt>
<totfact> 0.99207818E+01</totfact>
</mgrwt>
</event>
<event>
12    1  0.8033771E-008  0.4983158E+03  0.7818608E-02  0.1014219E+00
          1   -1    0    0  501    0  0.00000000000E+00  0.00000000000E+00  0.34250164677E+03  0.34250164677E+03  0.00000000000E+00 0. -1.
         -1   -1    0    0    0  501 -0.00000000000E+00 -0.00000000000E+00 -0.78802813601E+03  0.78802813601E+03  0.00000000000E+00 0.  1.
         23    2    1    2    0    0 -0.18832135055E+02 -0.32349760829E+03 -0.46233946271E+02  0.34028884274E+03  0.93024549578E+02 0.  0.
    5000000    2    1    2    0    0  0.18832135055E+02  0.32349760829E+03 -0.39929254297E+03  0.79024094005E+03  0.60003404618E+03 0.  0.
         23    2    4    4    0    0  0.14189650227E+03 -0.11945634923E+03 -0.98247348382E+02  0.23292678281E+03  0.10098469170E+03 0.  0.
         23    2    4    4    0    0 -0.12306436722E+03  0.44295395752E+03 -0.30104519459E+03  0.55731415724E+03  0.92832180365E+02 0.  0.
          3    1    3    3  502    0 -0.11569581834E+02 -0.30784140153E+02  0.22093450772E+02  0.39618670798E+02  0.00000000000E+00 0. -1.
         -3    1    3    3    0  502 -0.72625532207E+01 -0.29271346814E+03 -0.68327397043E+02  0.30067017194E+03  0.00000000000E+00 0.  1.
         15    1    5    5    0    0  0.18906786974E+02 -0.79635553984E+02 -0.35987324475E+02  0.89428928786E+02  0.17770000000E+01 0. -1.
        -15    1    5    5    0    0  0.12298971530E+03 -0.39820795248E+02 -0.62260023907E+02  0.14349785403E+03  0.17770000000E+01 0.  1.
          4    1    6    6  503    0 -0.95221101794E+01  0.27842191663E+02 -0.52915215093E+02  0.60546496242E+02  0.00000000000E+00 0. -1.
         -4    1    6    6    0  503 -0.11354225704E+03  0.41511176586E+03 -0.24812997949E+03  0.49676766100E+03  0.00000000000E+00 0.  1.
<mgrwt>
<rscale>  0 0.49831578E+03</rscale>
<asrwt>0</asrwt>
<pdfrwt beam="1">  1        1 0.52692561E-01 0.49831578E+03</pdfrwt>
<pdfrwt beam="2">  1       -1 0.12123510E+00 0.49831578E+03</pdfrwt>
<totfact> 0.46565927E+01</totfact>
</mgrwt>
</event>
<event>
12    1  0.8033771E-008  0.1520233E+04  0.7818608E-02  0.8871109E-01
         -1   -1    0    0    0  501 -0.00000000000E+00  0.00000000000E+00  0.12473145926E+04  0.12473145926E+04  0.00000000000E+00 0.  1.
          1   -1    0    0  501    0  0.00000000000E+00 -0.00000000000E+00 -0.18849129354E+04  0.18849129354E+04  0.00000000000E+00 0. -1.
         23    2    1    2    0    0 -0.10752048271E+03  0.14646311213E+04 -0.42357752015E+03  0.15314491706E+04  0.95987867890E+02 0.  0.
    5000000    2    1    2    0    0  0.10752048271E+03 -0.14646311213E+04 -0.21402082265E+03  0.16007783574E+04  0.59998455086E+03 0.  0.
         23    2    4    4    0    0  0.23173445597E+03 -0.22850945854E+03 -0.85779492974E+02  0.34860287366E+03  0.90820765141E+02 0.  0.
         23    2    4    4    0    0 -0.12421397326E+03 -0.12361216628E+04 -0.12824132967E+03  0.12521754837E+04  0.89842791149E+02 0.  0.
          1    1    3    3  502    0 -0.33960348088E+02  0.30797556060E+03 -0.12887719545E+03  0.33557649303E+03  0.00000000000E+00 0. -1.
         -1    1    3    3    0  502 -0.73560134618E+02  0.11566555607E+04 -0.29470032471E+03  0.11958726775E+04  0.00000000000E+00 0.  1.
         15    1    5    5    0    0  0.50639732538E+02 -0.66500040899E+02 -0.62724675417E+02  0.10451880494E+03  0.17770000000E+01 0. -1.
        -15    1    5    5    0    0  0.18109472343E+03 -0.16200941764E+03 -0.23054817557E+02  0.24408406872E+03  0.17770000000E+01 0.  1.
          1    1    6    6  503    0 -0.87083635464E+02 -0.46917531500E+03 -0.67385424707E+02  0.48192305531E+03  0.00000000000E+00 0. -1.
         -1    1    6    6    0  503 -0.37130337800E+02 -0.76694634776E+03 -0.60855904966E+02  0.77025242843E+03  0.00000000000E+00 0.  1.
<mgrwt>
<rscale>  0 0.15202329E+04</rscale>
<asrwt>0</asrwt>
<pdfrwt beam="1">  1        1 0.28998661E+00 0.15202329E+04</pdfrwt>
<pdfrwt beam="2">  1       -1 0.19189455E+00 0.15202329E+04</pdfrwt>
<totfact> 0.57724472E-01</totfact>
</mgrwt>
</event>
<event>
12    1  0.8033771E-008  0.1084490E+04  0.7818608E-02  0.9220442E-01
         -1   -1    0    0    0  501 -0.00000000000E+00  0.00000000000E+00  0.89034273765E+03  0.89034273765E+03  0.00000000000E+00 0.  1.
          1   -1    0    0  501    0  0.00000000000E+00 -0.00000000000E+00 -0.23920770701E+04  0.23920770701E+04  0.00000000000E+00 0. -1.
         23    2    1    2    0    0 -0.85566474227E+03 -0.64109057927E+03  0.28977464960E+03  0.11115517496E+04  0.91753269593E+02 0.  0.
    5000000    2    1    2    0    0  0.85566474227E+03  0.64109057927E+03 -0.17915089821E+04  0.21708680582E+04  0.60000367598E+03 0.  0.
         23    2    4    4    0    0  0.30789178564E+03  0.14143379095E+03 -0.10937398741E+04  0.11486739034E+04  0.91563940782E+02 0.  0.
         23    2    4    4    0    0  0.54777295663E+03  0.49965678833E+03 -0.69776910801E+03  0.10221941548E+04  0.91033202296E+02 0.  0.
          3    1    3    3  502    0 -0.27487507751E+03 -0.15785134921E+03  0.10271376793E+03  0.33320185294E+03  0.00000000000E+00 0. -1.
         -3    1    3    3    0  502 -0.58078966477E+03 -0.48323923007E+03  0.18706088166E+03  0.77834989666E+03  0.00000000000E+00 0.  1.
         15    1    5    5    0    0  0.18856279712E+03  0.38401885798E+02 -0.56069239822E+03  0.59279824260E+03  0.17770000000E+01 0. -1.
        -15    1    5    5    0    0  0.11932898852E+03  0.10303190515E+03 -0.53304747587E+03  0.55587566077E+03  0.17770000000E+01 0.  1.
          1    1    6    6  503    0  0.30503639917E+03  0.33487376850E+03 -0.44390096998E+03  0.63422055848E+03  0.00000000000E+00 0. -1.
         -1    1    6    6    0  503  0.24273655747E+03  0.16478301983E+03 -0.25386813803E+03  0.38797359634E+03  0.00000000000E+00 0.  1.
<mgrwt>
<rscale>  0 0.10844900E+04</rscale>
<asrwt>0</asrwt>
<pdfrwt beam="1">  1        1 0.36801185E+00 0.10844900E+04</pdfrwt>
<pdfrwt beam="2">  1       -1 0.13697581E+00 0.10844900E+04</pdfrwt>
<totfact> 0.71602759E-01</totfact>
</mgrwt>
</event>
<event>
12    1  0.8033771E-008  0.1194054E+04  0.7818608E-02  0.9118077E-01
          2   -1    0    0  501    0  0.00000000000E+00  0.00000000000E+00  0.60380478441E+03  0.60380478441E+03  0.00000000000E+00 0.  1.
         -2   -1    0    0    0  501 -0.00000000000E+00 -0.00000000000E+00 -0.29576356714E+04  0.29576356714E+04  0.00000000000E+00 0. -1.
         23    2    1    2    0    0  0.42359949107E+03 -0.10982481789E+04 -0.17445225517E+04  0.21064795405E+04  0.91167590322E+02 0.  0.
    5000000    2    1    2    0    0 -0.42359949107E+03  0.10982481789E+04 -0.60930833522E+03  0.14549609153E+04  0.60005751923E+03 0.  0.
         23    2    4    4    0    0 -0.37686784139E+03  0.60382892420E+03 -0.62293261522E+03  0.94995925402E+03  0.87970458795E+02 0.  0.
         23    2    4    4    0    0 -0.46731649678E+02  0.49441925472E+03  0.13624280001E+02  0.50500166129E+03  0.90591447630E+02 0.  0.
          3    1    3    3  502    0  0.41621244580E+03 -0.10774658571E+04 -0.16839978054E+04  0.20420612336E+04  0.00000000000E+00 0. -1.
         -3    1    3    3    0  502  0.73870452625E+01 -0.20782321863E+02 -0.60524746357E+02  0.64418306881E+02  0.00000000000E+00 0.  1.
         15    1    5    5    0    0 -0.20593174708E+03  0.33567260692E+03 -0.40188499344E+03  0.56267103104E+03  0.17770000000E+01 0.  1.
        -15    1    5    5    0    0 -0.17093609431E+03  0.26815631728E+03 -0.22104762178E+03  0.38728822298E+03  0.17770000000E+01 0. -1.
          2    1    6    6  503    0  0.82203285488E+01  0.16458048282E+03 -0.30924226997E+02  0.16766221083E+03  0.00000000000E+00 0.  1.
         -2    1    6    6    0  503 -0.54951978227E+02  0.32983877190E+03  0.44548506998E+02  0.33733945046E+03  0.00000000000E+00 0. -1.
<mgrwt>
<rscale>  0 0.11940541E+04</rscale>
<asrwt>0</asrwt>
<pdfrwt beam="1">  1        2 0.92893044E-01 0.11940541E+04</pdfrwt>
<pdfrwt beam="2">  1       -2 0.45502087E+00 0.11940541E+04</pdfrwt>
<totfact> 0.15690720E-01</totfact>
</mgrwt>
</event>
<event>
12    1  0.8033771E-008  0.1226490E+04  0.7818608E-02  0.9089981E-01
          2   -1    0    0  501    0  0.00000000000E+00  0.00000000000E+00  0.34655740342E+04  0.34655740342E+04  0.00000000000E+00 0. -1.
         -2   -1    0    0    0  501 -0.00000000000E+00 -0.00000000000E+00 -0.45731698149E+03  0.45731698149E+03  0.00000000000E+00 0.  1.
         23    2    1    2    0    0  0.11846280810E+04  0.29807865620E+02  0.14761766889E+04  0.18952289862E+04  0.92536988777E+02 0.  0.
    5000000    2    1    2    0    0 -0.11846280810E+04 -0.29807865620E+02  0.15320803638E+04  0.20276620294E+04  0.59992571655E+03 0.  0.
         23    2    4    4    0    0 -0.89906393895E+03 -0.20106568717E+03  0.82031106854E+03  0.12368675222E+04  0.90485586996E+02 0.  0.
         23    2    4    4    0    0 -0.28556414205E+03  0.17125782155E+03  0.71176929526E+03  0.79079450724E+03  0.88680901744E+02 0.  0.
          3    1    3    3  502    0  0.16290344295E+03 -0.26273601639E+02  0.18962583179E+03  0.25136783794E+03  0.00000000000E+00 0. -1.
         -3    1    3    3    0  502  0.10217246380E+04  0.56081467260E+02  0.12865508571E+04  0.16438611483E+04  0.00000000000E+00 0.  1.
         15    1    5    5    0    0 -0.56263142399E+03 -0.11155307706E+03  0.45406952746E+03  0.73156031997E+03  0.17770000000E+01 0. -1.
        -15    1    5    5    0    0 -0.33643251496E+03 -0.89512610110E+02  0.36624154109E+03  0.50530720224E+03  0.17770000000E+01 0.  1.
          4    1    6    6  503    0 -0.12034964912E+02  0.35758432649E+02  0.56841705034E+02  0.68223788499E+02  0.00000000000E+00 0. -1.
         -4    1    6    6    0  503 -0.27352917714E+03  0.13549938890E+03  0.65492759023E+03  0.72257071874E+03  0.00000000000E+00 0.  1.
<mgrwt>
<rscale>  0 0.12264898E+04</rscale>
<asrwt>0</asrwt>
<pdfrwt beam="1">  1        2 0.53316522E+00 0.12264898E+04</pdfrwt>
<pdfrwt beam="2">  1       -2 0.70356461E-01 0.12264898E+04</pdfrwt>
<totfact> 0.15804093E+00</totfact>
</mgrwt>
</event>
<event>
12    1  0.8033771E-008  0.1042971E+04  0.7818608E-02  0.9262631E-01
         -2   -1    0    0    0  501 -0.00000000000E+00  0.00000000000E+00  0.64814691803E+03  0.64814691803E+03  0.00000000000E+00 0. -1.
          2   -1    0    0  501    0  0.00000000000E+00 -0.00000000000E+00 -0.19655975339E+04  0.19655975339E+04  0.00000000000E+00 0.  1.
         23    2    1    2    0    0 -0.66296061478E+03  0.78954728389E+03 -0.40305185050E+03  0.11105629307E+04  0.89428958297E+02 0.  0.
    5000000    2    1    2    0    0  0.66296061478E+03 -0.78954728389E+03 -0.91439876534E+03  0.15031815212E+04  0.60043975004E+03 0.  0.
         23    2    4    4    0    0  0.10250336138E+03 -0.19260951084E+03 -0.55710303073E+03  0.60524356885E+03  0.91381770735E+02 0.  0.
         23    2    4    4    0    0  0.56045725340E+03 -0.59693777305E+03 -0.35729573461E+03  0.89793795237E+03  0.90472573477E+02 0.  0.
          2    1    3    3  502    0 -0.37413561312E+03  0.42413090199E+03 -0.17548052432E+03  0.59216373872E+03  0.00000000000E+00 0. -1.
         -2    1    3    3    0  502 -0.28882500165E+03  0.36541638189E+03 -0.22757132618E+03  0.51839919197E+03  0.00000000000E+00 0.  1.
         15    1    5    5    0    0 -0.13207059013E+02 -0.35131398443E+01 -0.48552839235E+02  0.50470828071E+02  0.17770000000E+01 0. -1.
        -15    1    5    5    0    0  0.11571042039E+03 -0.18909637099E+03 -0.50855019150E+03  0.55477274078E+03  0.17770000000E+01 0.  1.
          1    1    6    6  503    0  0.36348499437E+03 -0.37124569385E+03 -0.18007639500E+03  0.54988381897E+03  0.00000000000E+00 0. -1.
         -1    1    6    6    0  503  0.19697225903E+03 -0.22569207920E+03 -0.17721933961E+03  0.34805413340E+03  0.00000000000E+00 0.  1.
<mgrwt>
<rscale>  0 0.10429709E+04</rscale>
<asrwt>0</asrwt>
<pdfrwt beam="1">  1        2 0.30239962E+00 0.10429709E+04</pdfrwt>
<pdfrwt beam="2">  1       -2 0.99714911E-01 0.10429709E+04</pdfrwt>
<totfact> 0.57778830E+00</totfact>
</mgrwt>
</event>
<event>
12    1  0.8033771E-008  0.1074262E+04  0.7818608E-02  0.9230648E-01
          2   -1    0    0  501    0  0.00000000000E+00  0.00000000000E+00  0.13468063405E+04  0.13468063405E+04  0.00000000000E+00 0. -1.
         -2   -1    0    0    0  501 -0.00000000000E+00 -0.00000000000E+00 -0.10603706379E+04  0.10603706379E+04  0.00000000000E+00 0.  1.
         23    2    1    2    0    0  0.87081184031E+03 -0.48969728416E+03 -0.37037535772E+03  0.10694714745E+04  0.92057796668E+02 0.  0.
    5000000    2    1    2    0    0 -0.87081184031E+03  0.48969728416E+03  0.65681106029E+03  0.13377055038E+04  0.59994879334E+03 0.  0.
         23    2    4    4    0    0 -0.66831487342E+03  0.62678322799E+02  0.31323524483E+03  0.74630178640E+03  0.90976346371E+02 0.  0.
         23    2    4    4    0    0 -0.20249696689E+03  0.42701896136E+03  0.34357581546E+03  0.59140371740E+03  0.91453819044E+02 0.  0.
          2    1    3    3  502    0  0.34666007218E+03 -0.17463873839E+03 -0.18805587600E+03  0.43131995907E+03  0.00000000000E+00 0. -1.
         -2    1    3    3    0  502  0.52415176812E+03 -0.31505854578E+03 -0.18231948172E+03  0.63815151548E+03  0.00000000000E+00 0.  1.
         15    1    5    5    0    0 -0.56493992920E+03  0.81718293465E+02  0.28168289044E+03  0.63654018851E+03  0.17770000000E+01 0. -1.
        -15    1    5    5    0    0 -0.10337494421E+03 -0.19039970666E+02  0.31552354389E+02  0.10976159789E+03  0.17770000000E+01 0.  1.
          1    1    6    6  503    0 -0.14582145894E+03  0.29071717021E+03  0.18259892918E+03  0.37299160833E+03  0.00000000000E+00 0. -1.
         -1    1    6    6    0  503 -0.56675507944E+02  0.13630179115E+03  0.16097688628E+03  0.21841210907E+03  0.00000000000E+00 0.  1.
<mgrwt>
<rscale>  0 0.10742616E+04</rscale>
<asrwt>0</asrwt>
<pdfrwt beam="1">  1        2 0.20720098E+00 0.10742616E+04</pdfrwt>
<pdfrwt beam="2">  1       -2 0.16313394E+00 0.10742616E+04</pdfrwt>
<totfact> 0.36486706E+00</totfact>
</mgrwt>
</event>
<event>
12    1  0.8033771E-008  0.1569222E+04  0.7818608E-02  0.8839682E-01
          2   -1    0    0  501    0  0.00000000000E+00  0.00000000000E+00  0.33121016452E+04  0.33121016452E+04  0.00000000000E+00 0. -1.
         -2   -1    0    0    0  501 -0.00000000000E+00 -0.00000000000E+00 -0.11086325000E+04  0.11086325000E+04  0.00000000000E+00 0.  1.
         23    2    1    2    0    0  0.15149380594E+04  0.38794828091E+03  0.22540790671E+04  0.27449720974E+04  0.91968377565E+02 0.  0.
    5000000    2    1    2    0    0 -0.15149380594E+04 -0.38794828091E+03 -0.50609921876E+02  0.16757620478E+04  0.60006323355E+03 0.  0.
         23    2    4    4    0    0 -0.54402952820E+03 -0.21807035226E+03 -0.28552800591E+03  0.65839088321E+03  0.91812345866E+02 0.  0.
         23    2    4    4    0    0 -0.97090853122E+03 -0.16987792865E+03  0.23491808403E+03  0.10173711646E+04  0.91300020672E+02 0.  0.
          4    1    3    3  502    0  0.32988885185E+03  0.67976584840E+02  0.54721964693E+03  0.64257047291E+03  0.00000000000E+00 0. -1.
         -4    1    3    3    0  502  0.11850492076E+04  0.31997169607E+03  0.17068594201E+04  0.21024016245E+04  0.00000000000E+00 0.  1.
         15    1    5    5    0    0 -0.22185199361E+03 -0.11191413397E+03 -0.16551755071E+03  0.29856707416E+03  0.17770000000E+01 0.  1.
        -15    1    5    5    0    0 -0.32217753459E+03 -0.10615621829E+03 -0.12001045520E+03  0.35982380905E+03  0.17770000000E+01 0. -1.
          1    1    6    6  503    0 -0.46843747485E+03 -0.62177821679E+02  0.15495362215E+03  0.49730310111E+03  0.00000000000E+00 0. -1.
         -1    1    6    6    0  503 -0.50247105637E+03 -0.10770010698E+03  0.79964461879E+02  0.52006806352E+03  0.00000000000E+00 0.  1.
<mgrwt>
<rscale>  0 0.15692223E+04</rscale>
<asrwt>0</asrwt>
<pdfrwt beam="1">  1        2 0.50955410E+00 0.15692223E+04</pdfrwt>
<pdfrwt beam="2">  1       -2 0.17055885E+00 0.15692223E+04</pdfrwt>
<totfact> 0.21708641E-01</totfact>
</mgrwt>
</event>
<event>
12    1  0.8033771E-008  0.6046392E+03  0.7818608E-02  0.9895828E-01
          1   -1    0    0  501    0  0.00000000000E+00  0.00000000000E+00  0.21991596193E+04  0.21991596193E+04  0.00000000000E+00 0. -1.
         -1   -1    0    0    0  501 -0.00000000000E+00 -0.00000000000E+00 -0.34557644706E+03  0.34557644706E+03  0.00000000000E+00 0.  1.
         23    2    1    2    0    0  0.44137478964E+03  0.14199142790E+03 -0.68787018456E+02  0.47823816803E+03  0.94904272449E+02 0.  0.
    5000000    2    1    2    0    0 -0.44137478964E+03 -0.14199142790E+03  0.19223701907E+04  0.20664978983E+04  0.59994428344E+03 0.  0.
         23    2    4    4    0    0 -0.98344288399E+02 -0.32893916727E+03  0.83195751294E+03  0.90448750640E+03  0.89843035752E+02 0.  0.
         23    2    4    4    0    0 -0.34303050124E+03  0.18694773937E+03  0.10904126778E+04  0.11620103919E+04  0.92999790946E+02 0.  0.
          2    1    3    3  502    0  0.17312404844E+03  0.79605048122E+02  0.12855626112E+02  0.19098211162E+03  0.00000000000E+00 0. -1.
         -2    1    3    3    0  502  0.26825074120E+03  0.62386379777E+02 -0.81642644568E+02  0.28725605641E+03  0.00000000000E+00 0.  1.
         15    1    5    5    0    0 -0.22925405802E+01  0.45444919913E+01  0.32624956740E+02  0.33067411163E+02  0.17770000000E+01 0.  1.
        -15    1    5    5    0    0 -0.96051747819E+02 -0.33348365926E+03  0.79933255620E+03  0.87142009523E+03  0.17770000000E+01 0. -1.
          4    1    6    6  503    0 -0.23113511962E+03  0.11895222623E+03  0.58953598055E+03  0.64430252833E+03  0.00000000000E+00 0. -1.
         -4    1    6    6    0  503 -0.11189538161E+03  0.67995513140E+02  0.50087669720E+03  0.51770786360E+03  0.00000000000E+00 0.  1.
<mgrwt>
<rscale>  0 0.60463922E+03</rscale>
<asrwt>0</asrwt>
<pdfrwt beam="1">  1        1 0.33833224E+00 0.60463922E+03</pdfrwt>
<pdfrwt beam="2">  1       -1 0.53165609E-01 0.60463922E+03</pdfrwt>
<totfact> 0.83971466E+00</totfact>
</mgrwt>
</event>
<event>
12    1  0.8033771E-008  0.5116079E+03  0.7818608E-02  0.1010793E+00
          2   -1    0    0  501    0  0.00000000000E+00  0.00000000000E+00  0.10685829282E+04  0.10685829282E+04  0.00000000000E+00 0.  1.
         -2   -1    0    0    0  501 -0.00000000000E+00 -0.00000000000E+00 -0.34534054849E+03  0.34534054849E+03  0.00000000000E+00 0. -1.
         23    2    1    2    0    0  0.32981060977E+03 -0.17202596638E+03 -0.27037636130E+02  0.38378171475E+03  0.90495300330E+02 0.  0.
    5000000    2    1    2    0    0 -0.32981060977E+03  0.17202596638E+03  0.75028001587E+03  0.10301417620E+04  0.59991997477E+03 0.  0.
         23    2    4    4    0    0 -0.22476642477E+03 -0.16919942609E+03  0.51492078642E+03  0.59373832979E+03  0.90738065224E+02 0.  0.
         23    2    4    4    0    0 -0.10504418500E+03  0.34122539247E+03  0.23535922945E+03  0.43640343219E+03  0.87091557979E+02 0.  0.
          2    1    3    3  502    0  0.14675361894E+03 -0.11107930336E+03 -0.46589661405E+02  0.18985740137E+03  0.00000000000E+00 0.  1.
         -2    1    3    3    0  502  0.18305699083E+03 -0.60946663017E+02  0.19552025275E+02  0.19392431337E+03  0.00000000000E+00 0. -1.
         15    1    5    5    0    0 -0.19245586594E+03 -0.11519254642E+03  0.45269658243E+03  0.50521870172E+03  0.17770000000E+01 0.  1.
        -15    1    5    5    0    0 -0.32310558825E+02 -0.54006879673E+02  0.62224203984E+02  0.88519628072E+02  0.17770000000E+01 0. -1.
          4    1    6    6  503    0 -0.97791369385E+02  0.26627070296E+03  0.14434468941E+03  0.31827445474E+03  0.00000000000E+00 0. -1.
         -4    1    6    6    0  503 -0.72528156179E+01  0.74954689508E+02  0.91014540042E+02  0.11812897745E+03  0.00000000000E+00 0.  1.
<mgrwt>
<rscale>  0 0.51160785E+03</rscale>
<asrwt>0</asrwt>
<pdfrwt beam="1">  1        2 0.16439737E+00 0.51160785E+03</pdfrwt>
<pdfrwt beam="2">  1       -2 0.53129316E-01 0.51160785E+03</pdfrwt>
<totfact> 0.79076615E+01</totfact>
</mgrwt>
</event>
<event>
12    1  0.1067792E-007  0.1616093E+04  0.7818608E-02  0.8810722E-01
         -3   -1    0    0    0  501 -0.00000000000E+00  0.00000000000E+00  0.15407598007E+04  0.15407598007E+04  0.00000000000E+00 0.  1.
          3   -1    0    0  501    0  0.00000000000E+00 -0.00000000000E+00 -0.18921638045E+04  0.18921638045E+04  0.00000000000E+00 0. -1.
         23    2    1    2    0    0 -0.56801557226E+03 -0.14770371142E+04 -0.65197795798E+03  0.17139739019E+04  0.91383540777E+02 0.  0.
    5000000    2    1    2    0    0  0.56801557226E+03  0.14770371142E+04  0.30057395422E+03  0.17189497033E+04  0.60013586262E+03 0.  0.
         23    2    4    4    0    0  0.62436247962E+03  0.13316734023E+04  0.14602879852E+03  0.14807970618E+04  0.90845869115E+02 0.  0.
         23    2    4    4    0    0 -0.56346907359E+02  0.14536371194E+03  0.15454515570E+03  0.23815264156E+03  0.92341176159E+02 0.  0.
          3    1    3    3  502    0 -0.22857668184E+03 -0.65917481406E+03 -0.24528845931E+03  0.73954388865E+03  0.00000000000E+00 0. -1.
         -3    1    3    3    0  502 -0.33943889043E+03 -0.81786230014E+03 -0.40668949867E+03  0.97443001321E+03  0.00000000000E+00 0.  1.
         15    1    5    5    0    0  0.44077867956E+03  0.10184593254E+04  0.13065529852E+03  0.11174163086E+04  0.17770000000E+01 0.  1.
        -15    1    5    5    0    0  0.18358380006E+03  0.31321407685E+03  0.15373500000E+02  0.36338075322E+03  0.17770000000E+01 0. -1.
          2    1    6    6  503    0  0.13307397330E+02 -0.17514004810E+01  0.31076465780E+02  0.33851158809E+02  0.00000000000E+00 0. -1.
         -2    1    6    6    0  503 -0.69654304688E+02  0.14711511242E+03  0.12346868992E+03  0.20430148275E+03  0.00000000000E+00 0.  1.
<mgrwt>
<rscale>  0 0.16160928E+04</rscale>
<asrwt>0</asrwt>
<pdfrwt beam="1">  1        3 0.29110212E+00 0.16160928E+04</pdfrwt>
<pdfrwt beam="2">  1       -3 0.23703997E+00 0.16160928E+04</pdfrwt>
<totfact> 0.89383019E-03</totfact>
</mgrwt>
</event>
<event>
12    1  0.8033771E-008  0.3816867E+03  0.7818608E-02  0.1050312E+00
         -2   -1    0    0    0  501 -0.00000000000E+00  0.00000000000E+00  0.95120320859E+02  0.95120320859E+02  0.00000000000E+00 0.  1.
          2   -1    0    0  501    0  0.00000000000E+00 -0.00000000000E+00 -0.16470933339E+04  0.16470933339E+04  0.00000000000E+00 0. -1.
         23    2    1    2    0    0 -0.40887078573E+02 -0.13974025123E+03 -0.39780643603E+03  0.43331844589E+03  0.91191139873E+02 0.  0.
    5000000    2    1    2    0    0  0.40887078573E+02  0.13974025123E+03 -0.11541665771E+04  0.13088952089E+04  0.59992256944E+03 0.  0.
         23    2    4    4    0    0 -0.12588812919E+03 -0.18107205910E+03 -0.53916652430E+03  0.58964060375E+03  0.91326825217E+02 0.  0.
         23    2    4    4    0    0  0.16677520776E+03  0.32081231033E+03 -0.61500005275E+03  0.71925460516E+03  0.91474661974E+02 0.  0.
          2    1    3    3  502    0  0.26985979839E+02 -0.44729170569E+02 -0.89337097577E+02  0.10348941400E+03  0.00000000000E+00 0. -1.
         -2    1    3    3    0  502 -0.67873058412E+02 -0.95011080659E+02 -0.30846933845E+03  0.32982903188E+03  0.00000000000E+00 0.  1.
         15    1    5    5    0    0 -0.54582350329E+02 -0.38234678340E+02 -0.25629115509E+03  0.26481963201E+03  0.17770000000E+01 0. -1.
        -15    1    5    5    0    0 -0.71305778858E+02 -0.14283738076E+03 -0.28287536922E+03  0.32482097174E+03  0.17770000000E+01 0.  1.
          4    1    6    6  503    0  0.21346523987E+01  0.57240754854E+02 -0.58571486745E+02  0.81924842488E+02  0.00000000000E+00 0. -1.
         -4    1    6    6    0  503  0.16464055536E+03  0.26357155548E+03 -0.55642856600E+03  0.63732976267E+03  0.00000000000E+00 0.  1.
<mgrwt>
<rscale>  0 0.38168670E+03</rscale>
<asrwt>0</asrwt>
<pdfrwt beam="1">  1        2 0.25339897E+00 0.38168670E+03</pdfrwt>
<pdfrwt beam="2">  1       -2 0.14633896E-01 0.38168670E+03</pdfrwt>
<totfact> 0.40192991E+02</totfact>
</mgrwt>
</event>
<event>
12    1  0.8033771E-008  0.1464711E+04  0.7818608E-02  0.8908265E-01
          1   -1    0    0  501    0  0.00000000000E+00  0.00000000000E+00  0.29034880537E+04  0.29034880537E+04  0.00000000000E+00 0. -1.
         -1   -1    0    0    0  501 -0.00000000000E+00 -0.00000000000E+00 -0.84022728744E+03  0.84022728744E+03  0.00000000000E+00 0.  1.
         23    2    1    2    0    0  0.71171105120E+03  0.12169598993E+04  0.37012209843E+03  0.14602316265E+04  0.88102318407E+02 0.  0.
    5000000    2    1    2    0    0 -0.71171105120E+03 -0.12169598993E+04  0.16931386678E+04  0.22834837146E+04  0.60004608941E+03 0.  0.
         23    2    4    4    0    0 -0.29895728638E+03 -0.88264662192E+02  0.29530936356E+03  0.43785309191E+03  0.85683138474E+02 0.  0.
         23    2    4    4    0    0 -0.41275376481E+03 -0.11286952371E+04  0.13978293043E+04  0.18456306227E+04  0.90039007402E+02 0.  0.
          1    1    3    3  502    0  0.29887731514E+03  0.59766236314E+03  0.18006656770E+03  0.69206352210E+03  0.00000000000E+00 0. -1.
         -1    1    3    3    0  502  0.41283373606E+03  0.61929753616E+03  0.19005553072E+03  0.76816810444E+03  0.00000000000E+00 0.  1.
         15    1    5    5    0    0 -0.23214244240E+03 -0.61368442989E+02  0.17318866690E+03  0.29606362734E+03  0.17770000000E+01 0. -1.
        -15    1    5    5    0    0 -0.66814843980E+02 -0.26896219202E+02  0.12212069666E+03  0.14178946458E+03  0.17770000000E+01 0.  1.
          2    1    6    6  503    0 -0.57452236263E+02 -0.25840822208E+03  0.32778654880E+03  0.42133073738E+03  0.00000000000E+00 0. -1.
         -2    1    6    6    0  503 -0.35530152855E+03 -0.87028701503E+03  0.10700427555E+04  0.14242998853E+04  0.00000000000E+00 0.  1.
<mgrwt>
<rscale>  0 0.14647112E+04</rscale>
<asrwt>0</asrwt>
<pdfrwt beam="1">  1        1 0.44669047E+00 0.14647112E+04</pdfrwt>
<pdfrwt beam="2">  1       -1 0.12926574E+00 0.14647112E+04</pdfrwt>
<totfact> 0.34621091E-01</totfact>
</mgrwt>
</event>
<event>
12    1  0.8994884E-008  0.1285157E+04  0.7818608E-02  0.9041419E-01
         -2   -1    0    0    0  501 -0.00000000000E+00  0.00000000000E+00  0.71960051730E+03  0.71960051730E+03  0.00000000000E+00 0.  1.
          2   -1    0    0  501    0  0.00000000000E+00 -0.00000000000E+00 -0.23943357062E+04  0.23943357062E+04  0.00000000000E+00 0. -1.
         23    2    1    2    0    0  0.86406392989E+03 -0.86455979054E+03 -0.10577770218E+04  0.16189975316E+04  0.90502337976E+02 0.  0.
    5000000    2    1    2    0    0 -0.86406392989E+03  0.86455979054E+03 -0.61695816714E+03  0.14949386919E+04  0.60011182807E+03 0.  0.
         23    2    4    4    0    0 -0.17416683904E+03  0.55263424102E+03 -0.17006372744E+03  0.61070678013E+03  0.91117549003E+02 0.  0.
         23    2    4    4    0    0 -0.68989709085E+03  0.31192554953E+03 -0.44689443970E+03  0.88423191178E+03  0.94318021372E+02 0.  0.
          3    1    3    3  502    0  0.34188781214E+03 -0.28427539726E+03 -0.36421658712E+03  0.57476386448E+03  0.00000000000E+00 0. -1.
         -3    1    3    3    0  502  0.52217611775E+03 -0.58028439328E+03 -0.69356043464E+03  0.10442336671E+04  0.00000000000E+00 0.  1.
         15    1    5    5    0    0 -0.70974888234E+01  0.15544123268E+03 -0.48010944245E+02  0.16285134221E+03  0.17770000000E+01 0.  1.
        -15    1    5    5    0    0 -0.16706935021E+03  0.39719300834E+03 -0.12205278319E+03  0.44785543792E+03  0.17770000000E+01 0. -1.
          3    1    6    6  503    0 -0.62436330980E+03  0.29655017159E+03 -0.37759832618E+03  0.78762430310E+03  0.00000000000E+00 0. -1.
         -3    1    6    6    0  503 -0.65533781049E+02  0.15375377935E+02 -0.69296113521E+02  0.96607608678E+02  0.00000000000E+00 0.  1.
<mgrwt>
<rscale>  0 0.12851570E+04</rscale>
<asrwt>0</asrwt>
<pdfrwt beam="1">  1        2 0.36835934E+00 0.12851570E+04</pdfrwt>
<pdfrwt beam="2">  1       -2 0.11070777E+00 0.12851570E+04</pdfrwt>
<totfact> 0.25171364E+00</totfact>
</mgrwt>
</event>
<event>
12    1  0.8033771E-008  0.1144877E+04  0.7818608E-02  0.9162522E-01
          2   -1    0    0  501    0  0.00000000000E+00  0.00000000000E+00  0.20069315254E+04  0.20069315254E+04  0.00000000000E+00 0. -1.
         -2   -1    0    0    0  501 -0.00000000000E+00 -0.00000000000E+00 -0.77023576005E+03  0.77023576005E+03  0.00000000000E+00 0.  1.
         23    2    1    2    0    0  0.39751632585E+03  0.10680154034E+04  0.29261372568E+03  0.11802880591E+04  0.93706876861E+02 0.  0.
    5000000    2    1    2    0    0 -0.39751632585E+03 -0.10680154034E+04  0.94408203969E+03  0.15968792264E+04  0.60004686038E+03 0.  0.
         23    2    4    4    0    0 -0.45506354558E+02 -0.24809797344E+03 -0.34832943075E+02  0.26915434660E+03  0.87219812215E+02 0.  0.
         23    2    4    4    0    0 -0.35200997129E+03 -0.81991742998E+03  0.97891498277E+03  0.13277248798E+04  0.91668974895E+02 0.  0.
          2    1    3    3  502    0  0.11118552481E+03  0.42618111586E+03  0.12318083087E+03  0.45734678477E+03  0.00000000000E+00 0. -1.
         -2    1    3    3    0  502  0.28633080103E+03  0.64183428756E+03  0.16943289482E+03  0.72294127434E+03  0.00000000000E+00 0.  1.
         15    1    5    5    0    0 -0.28025344572E+02 -0.79723701687E+02  0.27299255055E+02  0.88823958506E+02  0.17770000000E+01 0. -1.
        -15    1    5    5    0    0 -0.17481009986E+02 -0.16837427175E+03 -0.62132198131E+02  0.18033038810E+03  0.17770000000E+01 0.  1.
          1    1    6    6  503    0 -0.15609510959E+03 -0.39752119360E+03  0.40370283808E+03  0.58767743200E+03  0.00000000000E+00 0. -1.
         -1    1    6    6    0  503 -0.19591486170E+03 -0.42239623638E+03  0.57521214468E+03  0.74004744776E+03  0.00000000000E+00 0.  1.
<mgrwt>
<rscale>  0 0.11448774E+04</rscale>
<asrwt>0</asrwt>
<pdfrwt beam="1">  1        2 0.30875870E+00 0.11448774E+04</pdfrwt>
<pdfrwt beam="2">  1       -2 0.11849781E+00 0.11448774E+04</pdfrwt>
<totfact> 0.35640236E+00</totfact>
</mgrwt>
</event>
<event>
12    1  0.8033771E-008  0.1034400E+04  0.7818608E-02  0.9271600E-01
         -1   -1    0    0    0  501 -0.00000000000E+00  0.00000000000E+00  0.88334533062E+03  0.88334533062E+03  0.00000000000E+00 0. -1.
          1   -1    0    0  501    0  0.00000000000E+00 -0.00000000000E+00 -0.14139699230E+04  0.14139699230E+04  0.00000000000E+00 0.  1.
         23    2    1    2    0    0  0.95803336286E+03  0.37125990409E+03 -0.11851386870E+03  0.10381386976E+04  0.89580007137E+02 0.  0.
    5000000    2    1    2    0    0 -0.95803336286E+03 -0.37125990409E+03 -0.41211072372E+03  0.12591765560E+04  0.60002375781E+03 0.  0.
         23    2    4    4    0    0 -0.38912459837E+03 -0.96075512209E+02  0.11979033125E+03  0.42814075737E+03  0.91139056171E+02 0.  0.
         23    2    4    4    0    0 -0.56890876448E+03 -0.27518439188E+03 -0.53190105496E+03  0.83103579866E+03  0.91203807746E+02 0.  0.
          3    1    3    3  502    0  0.36479464268E+03  0.18477534102E+03 -0.63925422858E+02  0.41388829128E+03  0.00000000000E+00 0.  1.
         -3    1    3    3    0  502  0.59323872018E+03  0.18648456307E+03 -0.54588445837E+02  0.62425040633E+03  0.00000000000E+00 0. -1.
         15    1    5    5    0    0 -0.18192428470E+03 -0.69780342912E+02  0.98073270199E+02  0.21814505650E+03  0.17770000000E+01 0. -1.
        -15    1    5    5    0    0 -0.20720031367E+03 -0.26295169297E+02  0.21717061048E+02  0.20999570087E+03  0.17770000000E+01 0.  1.
          3    1    6    6  503    0 -0.34963101029E+03 -0.13951205610E+03 -0.26814354446E+03  0.46217574319E+03  0.00000000000E+00 0. -1.
         -3    1    6    6    0  503 -0.21927775420E+03 -0.13567233578E+03 -0.26375751050E+03  0.36886005548E+03  0.00000000000E+00 0.  1.
<mgrwt>
<rscale>  0 0.10344003E+04</rscale>
<asrwt>0</asrwt>
<pdfrwt beam="1">  1        1 0.21753383E+00 0.10344003E+04</pdfrwt>
<pdfrwt beam="2">  1       -1 0.13589928E+00 0.10344003E+04</pdfrwt>
<totfact> 0.34025999E+00</totfact>
</mgrwt>
</event>
<event>
12    1  0.8033771E-008  0.6811627E+03  0.7818608E-02  0.9750000E-01
          1   -1    0    0  501    0  0.00000000000E+00  0.00000000000E+00  0.17609332810E+04  0.17609332810E+04  0.00000000000E+00 0. -1.
         -1   -1    0    0    0  501 -0.00000000000E+00 -0.00000000000E+00 -0.45857823057E+03  0.45857823057E+03  0.00000000000E+00 0.  1.
         23    2    1    2    0    0  0.47859445100E+03 -0.27661895058E+03  0.12868807853E+04  0.14035065446E+04  0.90541552846E+02 0.  0.
    5000000    2    1    2    0    0 -0.47859445100E+03  0.27661895058E+03  0.15474265133E+02  0.81600496699E+03  0.60004496575E+03 0.  0.
         23    2    4    4    0    0 -0.51602705289E+03  0.74643659734E+01  0.53701595079E+02  0.52697428855E+03  0.92078246134E+02 0.  0.
         23    2    4    4    0    0  0.37432601892E+02  0.26915458461E+03 -0.38227329946E+02  0.28903067843E+03  0.90730448134E+02 0.  0.
          4    1    3    3  502    0  0.29925478261E+03 -0.21347287837E+03  0.90828783080E+03  0.97985247782E+03  0.00000000000E+00 0. -1.
         -4    1    3    3    0  502  0.17933966839E+03 -0.63146072212E+02  0.37859295448E+03  0.42365406675E+03  0.00000000000E+00 0.  1.
         15    1    5    5    0    0 -0.22356731382E+03  0.40895231710E+02 -0.24499920004E+01  0.22729699509E+03  0.17770000000E+01 0. -1.
        -15    1    5    5    0    0 -0.29245973907E+03 -0.33430865737E+02  0.56151587080E+02  0.29967729347E+03  0.17770000000E+01 0.  1.
          4    1    6    6  503    0 -0.22799252858E+02  0.11897786511E+03 -0.38864689854E+02  0.12722422110E+03  0.00000000000E+00 0. -1.
         -4    1    6    6    0  503  0.60231854751E+02  0.15017671950E+03  0.63735990819E+00  0.16180645733E+03  0.00000000000E+00 0.  1.
<mgrwt>
<rscale>  0 0.68116273E+03</rscale>
<asrwt>0</asrwt>
<pdfrwt beam="1">  1        1 0.27091281E+00 0.68116273E+03</pdfrwt>
<pdfrwt beam="2">  1       -1 0.70550498E-01 0.68116273E+03</pdfrwt>
<totfact> 0.92731742E+00</totfact>
</mgrwt>
</event>
<event>
12    1  0.8033771E-008  0.7819167E+03  0.7818608E-02  0.9586567E-01
          1   -1    0    0  501    0  0.00000000000E+00  0.00000000000E+00  0.13028903115E+04  0.13028903115E+04  0.00000000000E+00 0. -1.
         -1   -1    0    0    0  501 -0.00000000000E+00 -0.00000000000E+00 -0.11105115064E+04  0.11105115064E+04  0.00000000000E+00 0.  1.
         23    2    1    2    0    0  0.22336177367E+03 -0.69669963739E+03  0.94702359147E+03  0.12021770628E+04  0.11443400200E+03 0.  0.
    5000000    2    1    2    0    0 -0.22336177367E+03  0.69669963739E+03 -0.75464478637E+03  0.12112247551E+04  0.60191011549E+03 0.  0.
         23    2    4    4    0    0 -0.40481192379E+02  0.63795562178E+03 -0.76182912674E+03  0.99835640993E+03  0.87782689636E+02 0.  0.
         23    2    4    4    0    0 -0.18288058129E+03  0.58744015607E+02  0.71843403709E+01  0.21286834518E+03  0.91461200786E+02 0.  0.
          2    1    3    3  502    0  0.13623661920E+03 -0.43603221090E+03  0.49861054373E+03  0.67623736932E+03  0.00000000000E+00 0.  1.
         -2    1    3    3    0  502  0.87125154477E+02 -0.26066742649E+03  0.44841304775E+03  0.52593969347E+03  0.00000000000E+00 0. -1.
         15    1    5    5    0    0 -0.44745219312E+02  0.55590908322E+03 -0.61595146379E+03  0.83092503087E+03  0.17770000000E+01 0.  1.
        -15    1    5    5    0    0  0.42640269327E+01  0.82046538558E+02 -0.14587766296E+03  0.16743137906E+03  0.17770000000E+01 0. -1.
          3    1    6    6  503    0 -0.77058441710E+02  0.20204029971E+02  0.48084147770E+02  0.93049941067E+02  0.00000000000E+00 0. -1.
         -3    1    6    6    0  503 -0.10582213958E+03  0.38539985636E+02 -0.40899807399E+02  0.11981840411E+03  0.00000000000E+00 0.  1.
<mgrwt>
<rscale>  0 0.78191670E+03</rscale>
<asrwt>0</asrwt>
<pdfrwt beam="1">  1        1 0.20044466E+00 0.78191670E+03</pdfrwt>
<pdfrwt beam="2">  1       -1 0.17084792E+00 0.78191670E+03</pdfrwt>
<totfact> 0.22677380E+00</totfact>
</mgrwt>
</event>
<event>
12    1  0.8033771E-008  0.1301663E+04  0.7818608E-02  0.9028247E-01
          2   -1    0    0  501    0  0.00000000000E+00  0.00000000000E+00  0.22385444740E+04  0.22385444740E+04  0.00000000000E+00 0. -1.
         -2   -1    0    0    0  501 -0.00000000000E+00 -0.00000000000E+00 -0.81586684122E+03  0.81586684122E+03  0.00000000000E+00 0.  1.
         23    2    1    2    0    0  0.71187958075E+03  0.10279978497E+04  0.35201698417E+03  0.13023026482E+04  0.92326127762E+02 0.  0.
    5000000    2    1    2    0    0 -0.71187958075E+03 -0.10279978497E+04  0.10706606487E+04  0.17521086670E+04  0.60001536649E+03 0.  0.
         23    2    4    4    0    0 -0.26825043284E+03 -0.73247904888E+02  0.40968258039E+03  0.50557634005E+03  0.10219622619E+03 0.  0.
         23    2    4    4    0    0 -0.44362914790E+03 -0.95474994484E+03  0.66097806826E+03  0.12465323270E+04  0.92717622289E+02 0.  0.
          3    1    3    3  502    0  0.11276681046E+03  0.16383879677E+03  0.91793391756E+02  0.21905600115E+03  0.00000000000E+00 0. -1.
         -3    1    3    3    0  502  0.59911277029E+03  0.86415905296E+03  0.26022359241E+03  0.10832466471E+04  0.00000000000E+00 0.  1.
         15    1    5    5    0    0 -0.13916932406E+03  0.14768712192E+02  0.19824645900E+03  0.24267474499E+03  0.17770000000E+01 0. -1.
        -15    1    5    5    0    0 -0.12908110879E+03 -0.88016617080E+02  0.21143612139E+03  0.26290159506E+03  0.17770000000E+01 0.  1.
          3    1    6    6  503    0 -0.56020733888E+02 -0.20714012073E+03  0.12554817254E+03  0.24861153608E+03  0.00000000000E+00 0. -1.
         -3    1    6    6    0  503 -0.38760841402E+03 -0.74760982411E+03  0.53542989571E+03  0.99792079092E+03  0.00000000000E+00 0.  1.
<mgrwt>
<rscale>  0 0.13016629E+04</rscale>
<asrwt>0</asrwt>
<pdfrwt beam="1">  1        2 0.34439146E+00 0.13016629E+04</pdfrwt>
<pdfrwt beam="2">  1       -2 0.12551798E+00 0.13016629E+04</pdfrwt>
<totfact> 0.22529965E+00</totfact>
</mgrwt>
</event>
<event>
12    1  0.8033771E-008  0.1275031E+04  0.7818608E-02  0.9049604E-01
          2   -1    0    0  501    0  0.00000000000E+00  0.00000000000E+00  0.19416814948E+04  0.19416814948E+04  0.00000000000E+00 0.  1.
         -2   -1    0    0    0  501 -0.00000000000E+00 -0.00000000000E+00 -0.11332268590E+04  0.11332268590E+04  0.00000000000E+00 0. -1.
         23    2    1    2    0    0  0.12421728380E+04  0.22278307947E+03 -0.28937716384E+03  0.12979058820E+04  0.90525553284E+02 0.  0.
    5000000    2    1    2    0    0 -0.12421728380E+04 -0.22278307947E+03  0.10978317996E+04  0.17770024719E+04  0.59989787873E+03 0.  0.
         23    2    4    4    0    0 -0.42660404203E+03 -0.18154435779E+03  0.97534536336E+02  0.48236208101E+03  0.90613624219E+02 0.  0.
         23    2    4    4    0    0 -0.81556879592E+03 -0.41238721678E+02  0.10002972633E+04  0.12946403909E+04  0.92984050457E+02 0.  0.
          4    1    3    3  502    0  0.48810522842E+03  0.12797833326E+03 -0.95480748585E+02  0.51355792385E+03  0.00000000000E+00 0. -1.
         -4    1    3    3    0  502  0.75406760953E+03  0.94804746207E+02 -0.19389641526E+03  0.78434795818E+03  0.00000000000E+00 0.  1.
         15    1    5    5    0    0 -0.17123359344E+03 -0.73031324744E+02 -0.58375384133E+01  0.18625722134E+03  0.17770000000E+01 0.  1.
        -15    1    5    5    0    0 -0.25537044859E+03 -0.10851303304E+03  0.10337207475E+03  0.29610485967E+03  0.17770000000E+01 0. -1.
          1    1    6    6  503    0 -0.53996222630E+03 -0.70975594565E+02  0.67109320799E+03  0.86427011672E+03  0.00000000000E+00 0. -1.
         -1    1    6    6    0  503 -0.27560656962E+03  0.29736872887E+02  0.32920405532E+03  0.43037027414E+03  0.00000000000E+00 0.  1.
<mgrwt>
<rscale>  0 0.12750308E+04</rscale>
<asrwt>0</asrwt>
<pdfrwt beam="1">  1        2 0.29872023E+00 0.12750308E+04</pdfrwt>
<pdfrwt beam="2">  1       -2 0.17434259E+00 0.12750308E+04</pdfrwt>
<totfact> 0.13771995E+00</totfact>
</mgrwt>
</event>
<event>
12    1  0.8033771E-008  0.8760544E+03  0.7818608E-02  0.9456020E-01
          1   -1    0    0  501    0  0.00000000000E+00  0.00000000000E+00  0.15014821568E+04  0.15014821568E+04  0.00000000000E+00 0. -1.
         -1   -1    0    0    0  501 -0.00000000000E+00 -0.00000000000E+00 -0.66195546903E+03  0.66195546903E+03  0.00000000000E+00 0.  1.
         23    2    1    2    0    0 -0.42267619025E+03 -0.65105309870E+03  0.88573423706E+03  0.11812252557E+04  0.90789133921E+02 0.  0.
    5000000    2    1    2    0    0  0.42267619025E+03  0.65105309870E+03 -0.46207549305E+02  0.98221237014E+03  0.60006724900E+03 0.  0.
         23    2    4    4    0    0 -0.69470231759E+02 -0.43036171416E+02 -0.34439666765E+02  0.12703798088E+03  0.90963359600E+02 0.  0.
         23    2    4    4    0    0  0.49214642201E+03  0.69408927011E+03 -0.11767882540E+02  0.85517438926E+03  0.84951382584E+02 0.  0.
          3    1    3    3  502    0 -0.16406425766E+03 -0.29232520243E+03  0.32291060623E+03  0.46544856239E+03  0.00000000000E+00 0. -1.
         -3    1    3    3    0  502 -0.25861193259E+03 -0.35872789626E+03  0.56282363083E+03  0.71577669329E+03  0.00000000000E+00 0.  1.
         15    1    5    5    0    0 -0.67430145454E+02  0.87561111888E+01 -0.31859037420E+02  0.75110917937E+02  0.17770000000E+01 0.  1.
        -15    1    5    5    0    0 -0.20400863053E+01 -0.51792282605E+02 -0.25806293446E+01  0.51927062947E+02  0.17770000000E+01 0. -1.
          4    1    6    6  503    0  0.26769199543E+03  0.30695637251E+03 -0.17169271684E+02  0.40764690964E+03  0.00000000000E+00 0. -1.
         -4    1    6    6    0  503  0.22445442657E+03  0.38713289760E+03  0.54013891440E+01  0.44752747962E+03  0.00000000000E+00 0.  1.
<mgrwt>
<rscale>  0 0.87605436E+03</rscale>
<asrwt>0</asrwt>
<pdfrwt beam="1">  1        1 0.23099725E+00 0.87605436E+03</pdfrwt>
<pdfrwt beam="2">  1       -1 0.10183930E+00 0.87605436E+03</pdfrwt>
<totfact> 0.60933139E+00</totfact>
</mgrwt>
</event>
<event>
12    1  0.8033771E-008  0.4417331E+03  0.7818608E-02  0.1030216E+00
          1   -1    0    0  501    0  0.00000000000E+00  0.00000000000E+00  0.12590570893E+04  0.12590570893E+04  0.00000000000E+00 0. -1.
         -1   -1    0    0    0  501 -0.00000000000E+00 -0.00000000000E+00 -0.19098410765E+03  0.19098410765E+03  0.00000000000E+00 0.  1.
         23    2    1    2    0    0 -0.79384636358E+02 -0.28679615882E+03  0.33318820882E+03  0.45578451997E+03  0.90394628963E+02 0.  0.
    5000000    2    1    2    0    0  0.79384636358E+02  0.28679615882E+03  0.73488477286E+03  0.99425667702E+03  0.59994729202E+03 0.  0.
         23    2    4    4    0    0 -0.87180751329E+02  0.36832982248E+03  0.23716332011E+03  0.45543204944E+03  0.88907647129E+02 0.  0.
         23    2    4    4    0    0  0.16656538769E+03 -0.81533663664E+02  0.49772145275E+03  0.53882462758E+03  0.90628737554E+02 0.  0.
          4    1    3    3  502    0 -0.15158619357E+02 -0.24078316302E+02  0.24683585451E+01  0.28559444159E+02  0.00000000000E+00 0. -1.
         -4    1    3    3    0  502 -0.64226017001E+02 -0.26271784252E+03  0.33071985028E+03  0.42722507581E+03  0.00000000000E+00 0.  1.
         15    1    5    5    0    0 -0.44750982022E+02  0.15957200208E+03  0.15555459356E+03  0.22730214154E+03  0.17770000000E+01 0.  1.
        -15    1    5    5    0    0 -0.42429769307E+02  0.20875782040E+03  0.81608726554E+02  0.22812990790E+03  0.17770000000E+01 0. -1.
          3    1    6    6  503    0  0.90705302392E+01 -0.42595939907E+02  0.12330809653E+03  0.13077299142E+03  0.00000000000E+00 0. -1.
         -3    1    6    6    0  503  0.15749485745E+03 -0.38937723757E+02  0.37441335622E+03  0.40805163615E+03  0.00000000000E+00 0.  1.
<mgrwt>
<rscale>  0 0.44173311E+03</rscale>
<asrwt>0</asrwt>
<pdfrwt beam="1">  1        1 0.19370109E+00 0.44173311E+03</pdfrwt>
<pdfrwt beam="2">  1       -1 0.29382171E-01 0.44173311E+03</pdfrwt>
<totfact> 0.10810839E+02</totfact>
</mgrwt>
</event>
<event>
12    1  0.8033771E-008  0.6897465E+03  0.7818608E-02  0.9734929E-01
         -2   -1    0    0    0  501 -0.00000000000E+00  0.00000000000E+00  0.30501314230E+03  0.30501314230E+03  0.00000000000E+00 0.  1.
          2   -1    0    0  501    0  0.00000000000E+00 -0.00000000000E+00 -0.16179250514E+04  0.16179250514E+04  0.00000000000E+00 0. -1.
         23    2    1    2    0    0  0.56251169182E+03  0.72711305076E+02 -0.62768140158E+03  0.85004661581E+03  0.82999818346E+02 0.  0.
    5000000    2    1    2    0    0 -0.56251169182E+03 -0.72711305076E+02 -0.68523050757E+03  0.10728915779E+04  0.59987428029E+03 0.  0.
         23    2    4    4    0    0 -0.53309423348E+03  0.16780533277E+03 -0.46591108162E+03  0.73342135958E+03  0.92117659737E+02 0.  0.
         23    2    4    4    0    0 -0.29417458348E+02 -0.24051663785E+03 -0.21931942595E+03  0.33947021835E+03  0.91789861134E+02 0.  0.
          3    1    3    3  502    0  0.52779065203E+03  0.46723300719E+02 -0.57900071455E+03  0.78484894512E+03  0.00000000000E+00 0. -1.
         -3    1    3    3    0  502  0.34721039790E+02  0.25988004358E+02 -0.48680687024E+02  0.65197670692E+02  0.00000000000E+00 0.  1.
         15    1    5    5    0    0 -0.17843041538E+02 -0.26971966116E+01 -0.38641399818E+02  0.42684476215E+02  0.17770000000E+01 0.  1.
        -15    1    5    5    0    0 -0.51525119194E+03  0.17050252939E+03 -0.42726968180E+03  0.69073688336E+03  0.17770000000E+01 0. -1.
          3    1    6    6  503    0 -0.36328789430E+02 -0.13956547696E+03 -0.18062733071E+03  0.23113748268E+03  0.00000000000E+00 0.  1.
         -3    1    6    6    0  503  0.69113310819E+01 -0.10095116089E+03 -0.38692095236E+02  0.10833273566E+03  0.00000000000E+00 0. -1.
<mgrwt>
<rscale>  0 0.68974654E+03</rscale>
<asrwt>0</asrwt>
<pdfrwt beam="1">  1        2 0.24891155E+00 0.68974654E+03</pdfrwt>
<pdfrwt beam="2">  1       -2 0.46925099E-01 0.68974654E+03</pdfrwt>
<totfact> 0.48351672E+01</totfact>
</mgrwt>
</event>
<event>
12    1  0.8033771E-008  0.5847913E+03  0.7818608E-02  0.9937471E-01
          2   -1    0    0  501    0  0.00000000000E+00  0.00000000000E+00  0.12937239456E+04  0.12937239456E+04  0.00000000000E+00 0. -1.
         -2   -1    0    0    0  501 -0.00000000000E+00 -0.00000000000E+00 -0.33424155143E+03  0.33424155143E+03  0.00000000000E+00 0.  1.
         23    2    1    2    0    0  0.23195933249E+03  0.45990852528E+03  0.34889845408E+03  0.62880220513E+03  0.91329613803E+02 0.  0.
    5000000    2    1    2    0    0 -0.23195933249E+03 -0.45990852528E+03  0.61058394012E+03  0.99916329192E+03  0.60016127202E+03 0.  0.
         23    2    4    4    0    0 -0.59331057397E+02 -0.44473480471E+03  0.12385253840E+03  0.47458981484E+03  0.92665096932E+02 0.  0.
         23    2    4    4    0    0 -0.17262827509E+03 -0.15173720573E+02  0.48673140171E+03  0.52457347708E+03  0.90769555927E+02 0.  0.
          3    1    3    3  502    0  0.18295308427E+03  0.32317521162E+03  0.29350093490E+03  0.47334643469E+03  0.00000000000E+00 0. -1.
         -3    1    3    3    0  502  0.49006248224E+02  0.13673331367E+03  0.55397519177E+02  0.15545577044E+03  0.00000000000E+00 0.  1.
         15    1    5    5    0    0  0.22046298960E+02 -0.17258096096E+03  0.42581362471E+02  0.17912721051E+03  0.17770000000E+01 0. -1.
        -15    1    5    5    0    0 -0.81377356357E+02 -0.27215384375E+03  0.81271175931E+02  0.29546260434E+03  0.17770000000E+01 0.  1.
          4    1    6    6  503    0  0.10834141325E+02 -0.22644342599E+00  0.39096192978E+02  0.40570213214E+02  0.00000000000E+00 0. -1.
         -4    1    6    6    0  503 -0.18346241642E+03 -0.14947277147E+02  0.44763520874E+03  0.48400326387E+03  0.00000000000E+00 0.  1.
<mgrwt>
<rscale>  0 0.58479134E+03</rscale>
<asrwt>0</asrwt>
<pdfrwt beam="1">  1        2 0.19903445E+00 0.58479134E+03</pdfrwt>
<pdfrwt beam="2">  1       -2 0.51421778E-01 0.58479134E+03</pdfrwt>
<totfact> 0.61725194E+01</totfact>
</mgrwt>
</event>
<event>
12    1  0.8033771E-008  0.1782560E+04  0.7818608E-02  0.8715629E-01
          1   -1    0    0  501    0  0.00000000000E+00  0.00000000000E+00  0.25059787583E+04  0.25059787583E+04  0.00000000000E+00 0. -1.
         -1   -1    0    0    0  501 -0.00000000000E+00 -0.00000000000E+00 -0.13616900275E+04  0.13616900275E+04  0.00000000000E+00 0.  1.
         23    2    1    2    0    0  0.17393773261E+04 -0.12634907147E+03  0.10122772184E+04  0.20186910722E+04  0.94925799386E+02 0.  0.
    5000000    2    1    2    0    0 -0.17393773261E+04  0.12634907147E+03  0.13201151239E+03  0.18489777137E+04  0.59991164001E+03 0.  0.
         23    2    4    4    0    0 -0.51292028131E+02  0.86379737550E+02 -0.56932611130E+02  0.14745765758E+03  0.91706637490E+02 0.  0.
         23    2    4    4    0    0 -0.16880852980E+04  0.39969333925E+02  0.18894412352E+03  0.17015200561E+04  0.90780496682E+02 0.  0.
          3    1    3    3  502    0  0.15644381869E+04 -0.96913895531E+02  0.93557905061E+03  0.18254225000E+04  0.00000000000E+00 0. -1.
         -3    1    3    3    0  502  0.17493913926E+03 -0.29435175944E+02  0.76698167785E+02  0.19326857212E+03  0.00000000000E+00 0.  1.
         15    1    5    5    0    0 -0.14800614242E+02  0.91224189507E+02 -0.18609241516E+02  0.94288772035E+02  0.17770000000E+01 0. -1.
        -15    1    5    5    0    0 -0.36491413889E+02 -0.48444519570E+01 -0.38323369615E+02  0.53168885544E+02  0.17770000000E+01 0.  1.
          3    1    6    6  503    0 -0.15534821860E+04  0.61408676517E+02  0.17306598012E+03  0.15642984885E+04  0.00000000000E+00 0. -1.
         -3    1    6    6    0  503 -0.13460311205E+03 -0.21439342592E+02  0.15878143400E+02  0.13722156763E+03  0.00000000000E+00 0.  1.
<mgrwt>
<rscale>  0 0.17825596E+04</rscale>
<asrwt>0</asrwt>
<pdfrwt beam="1">  1        1 0.38553519E+00 0.17825596E+04</pdfrwt>
<pdfrwt beam="2">  1       -1 0.20949077E+00 0.17825596E+04</pdfrwt>
<totfact> 0.15912762E-01</totfact>
</mgrwt>
</event>
<event>
12    1  0.8033771E-008  0.5383406E+03  0.7818608E-02  0.1004229E+00
         -1   -1    0    0    0  501 -0.00000000000E+00  0.00000000000E+00  0.97473264124E+03  0.97473264124E+03  0.00000000000E+00 0.  1.
          1   -1    0    0  501    0  0.00000000000E+00 -0.00000000000E+00 -0.40664126146E+03  0.40664126146E+03  0.00000000000E+00 0. -1.
         23    2    1    2    0    0  0.38961961864E+03 -0.23543693118E+03  0.48751444643E+02  0.46661953151E+03  0.90128175604E+02 0.  0.
    5000000    2    1    2    0    0 -0.38961961864E+03  0.23543693118E+03  0.51933993514E+03  0.91475437118E+03  0.59985631244E+03 0.  0.
         23    2    4    4    0    0 -0.38579860014E+03  0.32356849068E+03  0.16634019452E+03  0.53979620272E+03  0.10086501938E+03 0.  0.
         23    2    4    4    0    0 -0.38210185087E+01 -0.88131559497E+02  0.35299974062E+03  0.37495816846E+03  0.90570631317E+02 0.  0.
          1    1    3    3  502    0  0.18443197432E+03 -0.15466111436E+03  0.51239633665E+02  0.24609086432E+03  0.00000000000E+00 0. -1.
         -1    1    3    3    0  502  0.20518764433E+03 -0.80775816824E+02 -0.24881890227E+01  0.22052866719E+03  0.00000000000E+00 0.  1.
         15    1    5    5    0    0 -0.28152274700E+03  0.23548448887E+03  0.16710955997E+03  0.40328248702E+03  0.17770000000E+01 0.  1.
        -15    1    5    5    0    0 -0.10427585313E+03  0.88084001811E+02 -0.76936544994E+00  0.13651371570E+03  0.17770000000E+01 0. -1.
          4    1    6    6  503    0 -0.36297047214E+02 -0.50997965716E+02  0.10618757965E+03  0.12326422926E+03  0.00000000000E+00 0. -1.
         -4    1    6    6    0  503  0.32476028705E+02 -0.37133593781E+02  0.24681216097E+03  0.25169393920E+03  0.00000000000E+00 0.  1.
<mgrwt>
<rscale>  0 0.53834064E+03</rscale>
<asrwt>0</asrwt>
<pdfrwt beam="1">  1        1 0.62560194E-01 0.53834064E+03</pdfrwt>
<pdfrwt beam="2">  1       -1 0.14995887E+00 0.53834064E+03</pdfrwt>
<totfact> 0.21563019E+01</totfact>
</mgrwt>
</event>
<event>
12    1  0.8033771E-008  0.1144342E+04  0.7818608E-02  0.9163019E-01
          2   -1    0    0  501    0  0.00000000000E+00  0.00000000000E+00  0.32640795239E+04  0.32640795239E+04  0.00000000000E+00 0. -1.
         -2   -1    0    0    0  501 -0.00000000000E+00 -0.00000000000E+00 -0.41376111860E+03  0.41376111860E+03  0.00000000000E+00 0.  1.
         23    2    1    2    0    0  0.18610488357E+03 -0.10658506646E+04  0.13917582511E+04  0.17651941554E+04  0.90811397494E+02 0.  0.
    5000000    2    1    2    0    0 -0.18610488357E+03  0.10658506646E+04  0.14585601542E+04  0.19126464870E+04  0.60012181593E+03 0.  0.
         23    2    4    4    0    0 -0.36690664108E+03  0.71962698479E+03  0.11414819068E+04  0.14012806033E+04  0.90127161202E+02 0.  0.
         23    2    4    4    0    0  0.18080175751E+03  0.34622367985E+03  0.31707824741E+03  0.51136588372E+03  0.91631545044E+02 0.  0.
          3    1    3    3  502    0  0.97248421010E+02 -0.43611627486E+03  0.63934382953E+03  0.78000973900E+03  0.00000000000E+00 0. -1.
         -3    1    3    3    0  502  0.88856462565E+02 -0.62973438978E+03  0.75241442157E+03  0.98518441644E+03  0.00000000000E+00 0.  1.
         15    1    5    5    0    0 -0.25048609291E+03  0.57123327629E+03  0.85722656841E+03  0.10601373902E+04  0.17770000000E+01 0.  1.
        -15    1    5    5    0    0 -0.11642054818E+03  0.14839370850E+03  0.28425533838E+03  0.34114321316E+03  0.17770000000E+01 0. -1.
          2    1    6    6  503    0  0.17645022404E+03  0.30730156327E+03  0.31149944050E+03  0.47180592809E+03  0.00000000000E+00 0.  1.
         -2    1    6    6    0  503  0.43515334670E+01  0.38922116586E+02  0.55788069086E+01  0.39559955631E+02  0.00000000000E+00 0. -1.
<mgrwt>
<rscale>  0 0.11443417E+04</rscale>
<asrwt>0</asrwt>
<pdfrwt beam="1">  1        2 0.50216606E+00 0.11443417E+04</pdfrwt>
<pdfrwt beam="2">  1       -2 0.63655559E-01 0.11443417E+04</pdfrwt>
<totfact> 0.27094233E+00</totfact>
</mgrwt>
</event>
<event>
12    1  0.8033771E-008  0.5828007E+03  0.7818608E-02  0.9941746E-01
          2   -1    0    0  501    0  0.00000000000E+00  0.00000000000E+00  0.13509528087E+04  0.13509528087E+04  0.00000000000E+00 0.  1.
         -2   -1    0    0    0  501 -0.00000000000E+00 -0.00000000000E+00 -0.34376810021E+03  0.34376810021E+03  0.00000000000E+00 0. -1.
         23    2    1    2    0    0  0.44119684454E+03 -0.31781831601E+03  0.36414236879E+03  0.66075755682E+03  0.91311261753E+02 0.  0.
    5000000    2    1    2    0    0 -0.44119684454E+03  0.31781831601E+03  0.64304233967E+03  0.10339633521E+04  0.59992801666E+03 0.  0.
         23    2    4    4    0    0 -0.60855325908E+02  0.20619902911E+03 -0.42514607312E+02  0.23696027367E+03  0.90118084568E+02 0.  0.
         23    2    4    4    0    0 -0.38034151863E+03  0.11161928691E+03  0.68555694698E+03  0.79700307839E+03  0.90039121545E+02 0.  0.
          4    1    3    3  502    0  0.75497900656E+02 -0.18970889183E+02  0.36635551830E+02  0.86034826075E+02  0.00000000000E+00 0. -1.
         -4    1    3    3    0  502  0.36569894388E+03 -0.29884742683E+03  0.32750681696E+03  0.57472273074E+03  0.00000000000E+00 0.  1.
         15    1    5    5    0    0 -0.45610354128E+02  0.18512395040E+03 -0.43216174136E+01  0.19071710862E+03  0.17770000000E+01 0. -1.
        -15    1    5    5    0    0 -0.15244971779E+02  0.21075078707E+02 -0.38192989899E+02  0.46243165046E+02  0.17770000000E+01 0.  1.
          1    1    6    6  503    0 -0.19375815169E+03  0.79396660251E+02  0.43666403637E+03  0.48427423188E+03  0.00000000000E+00 0. -1.
         -1    1    6    6    0  503 -0.18658336694E+03  0.32222626656E+02  0.24889291062E+03  0.31272884652E+03  0.00000000000E+00 0.  1.
<mgrwt>
<rscale>  0 0.58280066E+03</rscale>
<asrwt>0</asrwt>
<pdfrwt beam="1">  1        2 0.20783889E+00 0.58280066E+03</pdfrwt>
<pdfrwt beam="2">  1       -2 0.52887401E-01 0.58280066E+03</pdfrwt>
<totfact> 0.54081681E+01</totfact>
</mgrwt>
</event>
<event>
12    1  0.8033771E-008  0.7915743E+03  0.7818608E-02  0.9572294E-01
          1   -1    0    0  501    0  0.00000000000E+00  0.00000000000E+00  0.96563054118E+03  0.96563054118E+03  0.00000000000E+00 0. -1.
         -1   -1    0    0    0  501 -0.00000000000E+00 -0.00000000000E+00 -0.11586245161E+04  0.11586245161E+04  0.00000000000E+00 0.  1.
         23    2    1    2    0    0 -0.56660546643E+03  0.39791692068E+03  0.59385120439E+03  0.91661138616E+03  0.90208369508E+02 0.  0.
    5000000    2    1    2    0    0  0.56660546643E+03 -0.39791692068E+03 -0.78684517935E+03  0.12076436712E+04  0.59991521894E+03 0.  0.
         23    2    4    4    0    0  0.66842899638E+03 -0.27101827979E+03 -0.59067275161E+03  0.93701028201E+03  0.94051783146E+02 0.  0.
         23    2    4    4    0    0 -0.10182352995E+03 -0.12689864089E+03 -0.19617242773E+03  0.27063338917E+03  0.91035782069E+02 0.  0.
          1    1    3    3  502    0 -0.12406580730E+03  0.12979223028E+03  0.12955181922E+03  0.22140917200E+03  0.00000000000E+00 0. -1.
         -1    1    3    3    0  502 -0.44253965913E+03  0.26812469041E+03  0.46429938516E+03  0.69520221416E+03  0.00000000000E+00 0.  1.
         15    1    5    5    0    0  0.31413006899E+03 -0.15222896833E+03 -0.23268904723E+03  0.41952200117E+03  0.17770000000E+01 0.  1.
        -15    1    5    5    0    0  0.35429892739E+03 -0.11878931147E+03 -0.35798370438E+03  0.51748828084E+03  0.17770000000E+01 0. -1.
          3    1    6    6  503    0 -0.74131589794E+02 -0.81008220544E+02 -0.18612337947E+03  0.21610121884E+03  0.00000000000E+00 0. -1.
         -3    1    6    6    0  503 -0.27691940156E+02 -0.45890420347E+02 -0.10049048268E+02  0.54532170325E+02  0.00000000000E+00 0.  1.
<mgrwt>
<rscale>  0 0.79157433E+03</rscale>
<asrwt>0</asrwt>
<pdfrwt beam="1">  1        1 0.14855855E+00 0.79157433E+03</pdfrwt>
<pdfrwt beam="2">  1       -1 0.17824993E+00 0.79157433E+03</pdfrwt>
<totfact> 0.35611484E+00</totfact>
</mgrwt>
</event>
<event>
12    1  0.8033771E-008  0.5794573E+03  0.7818608E-02  0.9948967E-01
          1   -1    0    0  501    0  0.00000000000E+00  0.00000000000E+00  0.64743573650E+03  0.64743573650E+03  0.00000000000E+00 0. -1.
         -1   -1    0    0    0  501 -0.00000000000E+00 -0.00000000000E+00 -0.98436000653E+03  0.98436000653E+03  0.00000000000E+00 0.  1.
         23    2    1    2    0    0  0.48370562662E+03 -0.11175284260E+03 -0.62377970495E+03  0.80194158432E+03  0.86887014593E+02 0.  0.
    5000000    2    1    2    0    0 -0.48370562662E+03  0.11175284260E+03  0.28685543492E+03  0.82985415871E+03  0.59992670647E+03 0.  0.
         23    2    4    4    0    0 -0.43384667204E+02  0.18679841899E+03 -0.98815451240E+02  0.23339059244E+03  0.89055019775E+02 0.  0.
         23    2    4    4    0    0 -0.44032095941E+03 -0.75045576393E+02  0.38567088616E+03  0.59646356627E+03  0.86673915478E+02 0.  0.
          1    1    3    3  502    0  0.44161720911E+03 -0.12226802864E+03 -0.54529592482E+03  0.71226601480E+03  0.00000000000E+00 0. -1.
         -1    1    3    3    0  502  0.42088417506E+02  0.10515186042E+02 -0.78483780133E+02  0.89675569524E+02  0.00000000000E+00 0.  1.
         15    1    5    5    0    0  0.17274473208E+02  0.62243861530E+02 -0.25351368920E+01  0.64670629893E+02  0.17770000000E+01 0. -1.
        -15    1    5    5    0    0 -0.60659140411E+02  0.12455455746E+03 -0.96280314348E+02  0.16871996254E+03  0.17770000000E+01 0.  1.
          4    1    6    6  503    0 -0.40967645363E+03 -0.46601012719E+02  0.33884589378E+03  0.53368810253E+03  0.00000000000E+00 0. -1.
         -4    1    6    6    0  503 -0.30644505782E+02 -0.28444563674E+02  0.46824992378E+02  0.62775463745E+02  0.00000000000E+00 0.  1.
<mgrwt>
<rscale>  0 0.57945734E+03</rscale>
<asrwt>0</asrwt>
<pdfrwt beam="1">  1        1 0.99605499E-01 0.57945734E+03</pdfrwt>
<pdfrwt beam="2">  1       -1 0.15144000E+00 0.57945734E+03</pdfrwt>
<totfact> 0.10998240E+01</totfact>
</mgrwt>
</event>
<event>
12    1  0.8033771E-008  0.4850407E+03  0.7818608E-02  0.1017759E+00
          2   -1    0    0  501    0  0.00000000000E+00  0.00000000000E+00  0.36272148181E+03  0.36272148181E+03  0.00000000000E+00 0. -1.
         -2   -1    0    0    0  501 -0.00000000000E+00 -0.00000000000E+00 -0.93282704320E+03  0.93282704320E+03  0.00000000000E+00 0.  1.
         23    2    1    2    0    0 -0.75932767395E+02  0.29023503792E+03  0.11718011918E+03  0.33513133261E+03  0.92626493881E+02 0.  0.
    5000000    2    1    2    0    0  0.75932767395E+02 -0.29023503792E+03 -0.68728568057E+03  0.96041719240E+03  0.60003117780E+03 0.  0.
         23    2    4    4    0    0 -0.28634767032E+02 -0.44660808824E+03 -0.52462076360E+03  0.69562515211E+03  0.91589695258E+02 0.  0.
         23    2    4    4    0    0  0.10456753443E+03  0.15637305033E+03 -0.16266491698E+03  0.26479204029E+03  0.90928814256E+02 0.  0.
          1    1    3    3  502    0 -0.72050241173E+02  0.10547725647E+03  0.63765242708E+02  0.14276797632E+03  0.00000000000E+00 0. -1.
         -1    1    3    3    0  502 -0.38825262219E+01  0.18475778144E+03  0.53414876469E+02  0.19236335629E+03  0.00000000000E+00 0.  1.
         15    1    5    5    0    0 -0.17099635371E+02 -0.76122410690E+02 -0.14729733421E+03  0.16669337519E+03  0.17770000000E+01 0. -1.
        -15    1    5    5    0    0 -0.11535131661E+02 -0.37048567756E+03 -0.37732342939E+03  0.52893177692E+03  0.17770000000E+01 0.  1.
          3    1    6    6  503    0 -0.15128771653E+02  0.51630750306E+01 -0.10329094822E+02  0.19032269316E+02  0.00000000000E+00 0. -1.
         -3    1    6    6    0  503  0.11969630608E+03  0.15120997530E+03 -0.15233582215E+03  0.24575977098E+03  0.00000000000E+00 0.  1.
<mgrwt>
<rscale>  0 0.48504067E+03</rscale>
<asrwt>0</asrwt>
<pdfrwt beam="1">  1        2 0.55803305E-01 0.48504067E+03</pdfrwt>
<pdfrwt beam="2">  1       -2 0.14351185E+00 0.48504067E+03</pdfrwt>
<totfact> 0.30968565E+01</totfact>
</mgrwt>
</event>
<event>
12    1  0.8033771E-008  0.1205650E+04  0.7818608E-02  0.9107925E-01
          1   -1    0    0  501    0  0.00000000000E+00  0.00000000000E+00  0.37359713461E+04  0.37359713461E+04  0.00000000000E+00 0. -1.
         -1   -1    0    0    0  501 -0.00000000000E+00 -0.00000000000E+00 -0.43717711002E+03  0.43717711002E+03  0.00000000000E+00 0.  1.
         23    2    1    2    0    0  0.11605075549E+04  0.38099127597E+02  0.10300783548E+04  0.15548767273E+04  0.91383211986E+02 0.  0.
    5000000    2    1    2    0    0 -0.11605075549E+04 -0.38099127597E+02  0.22687158813E+04  0.26182717289E+04  0.60003813843E+03 0.  0.
         23    2    4    4    0    0 -0.45519930668E+03  0.20033316725E+03  0.57358205265E+03  0.76460623571E+03  0.91030422717E+02 0.  0.
         23    2    4    4    0    0 -0.70530824825E+03 -0.23843229485E+03  0.16951338286E+04  0.18536654932E+04  0.91035043981E+02 0.  0.
          1    1    3    3  502    0  0.25697011510E+03 -0.97482928037E+01  0.18483333358E+03  0.31668917012E+03  0.00000000000E+00 0. -1.
         -1    1    3    3    0  502  0.90353743983E+03  0.47847420401E+02  0.84524502122E+03  0.12381875572E+04  0.00000000000E+00 0.  1.
         15    1    5    5    0    0 -0.78496978503E+02  0.15033289765E+02  0.53343905442E+02  0.96106739681E+02  0.17770000000E+01 0.  1.
        -15    1    5    5    0    0 -0.37670232818E+03  0.18529987748E+03  0.52023814721E+03  0.66849949603E+03  0.17770000000E+01 0. -1.
          3    1    6    6  503    0 -0.19161138290E+02 -0.24000726522E+02  0.57257043224E+02  0.64973479919E+02  0.00000000000E+00 0. -1.
         -3    1    6    6    0  503 -0.68614710996E+03 -0.21443156833E+03  0.16378767854E+04  0.17886920132E+04  0.00000000000E+00 0.  1.
<mgrwt>
<rscale>  0 0.12056502E+04</rscale>
<asrwt>0</asrwt>
<pdfrwt beam="1">  1        1 0.57476480E+00 0.12056502E+04</pdfrwt>
<pdfrwt beam="2">  1       -1 0.67258019E-01 0.12056502E+04</pdfrwt>
<totfact> 0.36484691E-01</totfact>
</mgrwt>
</event>
<event>
12    1  0.8033771E-008  0.7044651E+03  0.7818608E-02  0.9709627E-01
          2   -1    0    0  501    0  0.00000000000E+00  0.00000000000E+00  0.84247771454E+03  0.84247771454E+03  0.00000000000E+00 0. -1.
         -2   -1    0    0    0  501 -0.00000000000E+00 -0.00000000000E+00 -0.79856897197E+03  0.79856897197E+03  0.00000000000E+00 0.  1.
         23    2    1    2    0    0 -0.18487903310E+03  0.55315679294E+03 -0.38101730029E+03  0.70238300355E+03  0.89470699645E+02 0.  0.
    5000000    2    1    2    0    0  0.18487903310E+03 -0.55315679294E+03  0.42492604286E+03  0.93866368296E+03  0.60030381753E+03 0.  0.
         23    2    4    4    0    0 -0.75524849851E+02 -0.54268684545E+03  0.32981142527E+03  0.64563124185E+03  0.88606484169E+02 0.  0.
         23    2    4    4    0    0  0.26040388295E+03 -0.10469947491E+02  0.95114617591E+02  0.29303244111E+03  0.94347331744E+02 0.  0.
          3    1    3    3  502    0 -0.20024080723E+02  0.82505327370E+02 -0.21405526753E+02  0.87557349370E+02  0.00000000000E+00 0. -1.
         -3    1    3    3    0  502 -0.16485495238E+03  0.47065146557E+03 -0.35961177354E+03  0.61482565418E+03  0.00000000000E+00 0.  1.
         15    1    5    5    0    0 -0.56032400179E+02 -0.44816957230E+03  0.23026178720E+03  0.50697065376E+03  0.17770000000E+01 0.  1.
        -15    1    5    5    0    0 -0.19492449673E+02 -0.94517273155E+02  0.99549638068E+02  0.13866058808E+03  0.17770000000E+01 0. -1.
          1    1    6    6  503    0  0.32241372008E+02 -0.35109589732E+02  0.17292308281E+02  0.50707132494E+02  0.00000000000E+00 0. -1.
         -1    1    6    6    0  503  0.22816251095E+03  0.24639642241E+02  0.77822309310E+02  0.24232530862E+03  0.00000000000E+00 0.  1.
<mgrwt>
<rscale>  0 0.70446510E+03</rscale>
<asrwt>0</asrwt>
<pdfrwt beam="1">  1        2 0.12961196E+00 0.70446510E+03</pdfrwt>
<pdfrwt beam="2">  1       -2 0.12285676E+00 0.70446510E+03</pdfrwt>
<totfact> 0.16410477E+01</totfact>
</mgrwt>
</event>
<event>
12    1  0.8033771E-008  0.5108906E+03  0.7818608E-02  0.1010975E+00
         -1   -1    0    0    0  501 -0.00000000000E+00  0.00000000000E+00  0.17023977325E+03  0.17023977325E+03  0.00000000000E+00 0.  1.
          1   -1    0    0  501    0  0.00000000000E+00 -0.00000000000E+00 -0.17853913390E+04  0.17853913390E+04  0.00000000000E+00 0. -1.
         23    2    1    2    0    0 -0.19295355834E+03  0.32187088441E+03 -0.69822921432E+03  0.79737298693E+03  0.86300073289E+02 0.  0.
    5000000    2    1    2    0    0  0.19295355834E+03 -0.32187088441E+03 -0.91692235147E+03  0.11582581254E+04  0.59998612019E+03 0.  0.
         23    2    4    4    0    0 -0.17067817798E+03 -0.88026831845E+02 -0.12415370299E+03  0.25043914097E+03  0.10210708986E+03 0.  0.
         23    2    4    4    0    0  0.36363173632E+03 -0.23384405257E+03 -0.79276864848E+03  0.90781898439E+03  0.93499186139E+02 0.  0.
          4    1    3    3  502    0 -0.50268296537E+02  0.16490390750E+03 -0.33430967230E+03  0.37614246947E+03  0.00000000000E+00 0. -1.
         -4    1    3    3    0  502 -0.14268526180E+03  0.15696697691E+03 -0.36391954201E+03  0.42123051746E+03  0.00000000000E+00 0.  1.
         15    1    5    5    0    0 -0.10724058846E+03 -0.89946614619E+02 -0.41082700421E+02  0.14588311519E+03  0.17770000000E+01 0.  1.
        -15    1    5    5    0    0 -0.63437589523E+02  0.19197827747E+01 -0.83071002567E+02  0.10455602578E+03  0.17770000000E+01 0. -1.
          2    1    6    6  503    0  0.16964443447E+03 -0.88130427207E+02 -0.43932293873E+03  0.47911465312E+03  0.00000000000E+00 0. -1.
         -2    1    6    6    0  503  0.19398730186E+03 -0.14571362536E+03 -0.35344570976E+03  0.42870433126E+03  0.00000000000E+00 0.  1.
<mgrwt>
<rscale>  0 0.51089062E+03</rscale>
<asrwt>0</asrwt>
<pdfrwt beam="1">  1        1 0.27467559E+00 0.51089062E+03</pdfrwt>
<pdfrwt beam="2">  1       -1 0.26190735E-01 0.51089062E+03</pdfrwt>
<totfact> 0.57317045E+01</totfact>
</mgrwt>
</event>
<event>
12    1  0.8033771E-008  0.1398334E+04  0.7818608E-02  0.8955025E-01
         -2   -1    0    0    0  501 -0.00000000000E+00  0.00000000000E+00  0.12629239929E+04  0.12629239929E+04  0.00000000000E+00 0.  1.
          2   -1    0    0  501    0  0.00000000000E+00 -0.00000000000E+00 -0.20824341758E+04  0.20824341758E+04  0.00000000000E+00 0. -1.
         23    2    1    2    0    0  0.10047119920E+04 -0.88673325595E+03  0.43747994521E+03  0.14124870204E+04  0.89380234343E+02 0.  0.
    5000000    2    1    2    0    0 -0.10047119920E+04  0.88673325595E+03 -0.12569901281E+04  0.19328711483E+04  0.60018717058E+03 0.  0.
         23    2    4    4    0    0 -0.37309696015E+03  0.69839311962E+03 -0.59811173164E+03  0.99654999233E+03  0.91760299051E+02 0.  0.
         23    2    4    4    0    0 -0.63161503182E+03  0.18834013633E+03 -0.65887839650E+03  0.93632115599E+03  0.90371513168E+02 0.  0.
          4    1    3    3  502    0  0.57084737018E+03 -0.56227637893E+03  0.25989242019E+03  0.84235711929E+03  0.00000000000E+00 0.  1.
         -4    1    3    3    0  502  0.43386462179E+03 -0.32445687702E+03  0.17758752502E+03  0.57012990110E+03  0.00000000000E+00 0. -1.
         15    1    5    5    0    0 -0.30149223279E+03  0.55399629318E+03 -0.51995993443E+03  0.81741724378E+03  0.17770000000E+01 0. -1.
        -15    1    5    5    0    0 -0.71604727365E+02  0.14439682644E+03 -0.78151797210E+02  0.17913274855E+03  0.17770000000E+01 0.  1.
          2    1    6    6  503    0 -0.30049526086E+03  0.12036524756E+03 -0.37056516179E+03  0.49204037817E+03  0.00000000000E+00 0. -1.
         -2    1    6    6    0  503 -0.33111977096E+03  0.67974888774E+02 -0.28831323472E+03  0.44428077782E+03  0.00000000000E+00 0.  1.
<mgrwt>
<rscale>  0 0.13983344E+04</rscale>
<asrwt>0</asrwt>
<pdfrwt beam="1">  1        2 0.32037448E+00 0.13983344E+04</pdfrwt>
<pdfrwt beam="2">  1       -2 0.19429600E+00 0.13983344E+04</pdfrwt>
<totfact> 0.82806427E-01</totfact>
</mgrwt>
</event>
<event>
12    1  0.8033771E-008  0.1148204E+04  0.7818608E-02  0.9159442E-01
         -1   -1    0    0    0  501 -0.00000000000E+00  0.00000000000E+00  0.14953658863E+04  0.14953658863E+04  0.00000000000E+00 0.  1.
          1   -1    0    0  501    0  0.00000000000E+00 -0.00000000000E+00 -0.10150301955E+04  0.10150301955E+04  0.00000000000E+00 0. -1.
         23    2    1    2    0    0 -0.10441886315E+04 -0.26589874861E+03  0.65588921340E+03  0.12646796540E+04  0.90509249991E+02 0.  0.
    5000000    2    1    2    0    0  0.10441886315E+04  0.26589874861E+03 -0.17555352264E+03  0.12457164278E+04  0.59996527954E+03 0.  0.
         23    2    4    4    0    0  0.95643337588E+03  0.26417719868E+02 -0.15366089528E+03  0.97337964326E+03  0.91616378210E+02 0.  0.
         23    2    4    4    0    0  0.87755255578E+02  0.23948102875E+03 -0.21892627360E+02  0.27233678456E+03  0.92929484463E+02 0.  0.
          3    1    3    3  502    0 -0.40322965426E+03 -0.13654401192E+03  0.22416894960E+03  0.48113422164E+03  0.00000000000E+00 0. -1.
         -3    1    3    3    0  502 -0.64095897719E+03 -0.12935473670E+03  0.43172026380E+03  0.78354543233E+03  0.00000000000E+00 0.  1.
         15    1    5    5    0    0  0.68761267555E+03  0.59593276800E+02 -0.11714798229E+03  0.70006382402E+03  0.17770000000E+01 0.  1.
        -15    1    5    5    0    0  0.26882070033E+03 -0.33175556932E+02 -0.36512912984E+02  0.27331581924E+03  0.17770000000E+01 0. -1.
          2    1    6    6  503    0  0.23473835033E+02  0.90386438906E+02  0.35825741844E+02  0.10002106302E+03  0.00000000000E+00 0. -1.
         -2    1    6    6    0  503  0.64281420544E+02  0.14909458984E+03 -0.57718369204E+02  0.17231572154E+03  0.00000000000E+00 0.  1.
<mgrwt>
<rscale>  0 0.11482037E+04</rscale>
<asrwt>0</asrwt>
<pdfrwt beam="1">  1        1 0.15615849E+00 0.11482037E+04</pdfrwt>
<pdfrwt beam="2">  1       -1 0.23005629E+00 0.11482037E+04</pdfrwt>
<totfact> 0.13715048E+00</totfact>
</mgrwt>
</event>
<event>
12    1  0.8033771E-008  0.2547867E+04  0.7818608E-02  0.8386128E-01
         -2   -1    0    0    0  501 -0.00000000000E+00  0.00000000000E+00  0.23322179712E+04  0.23322179712E+04  0.00000000000E+00 0.  1.
          2   -1    0    0  501    0  0.00000000000E+00 -0.00000000000E+00 -0.34838630785E+04  0.34838630785E+04  0.00000000000E+00 0. -1.
         23    2    1    2    0    0 -0.20798968581E+04 -0.14676600705E+04  0.66378169104E+03  0.26323393642E+04  0.92775922712E+02 0.  0.
    5000000    2    1    2    0    0  0.20798968581E+04  0.14676600705E+04 -0.18154267983E+04  0.31837416855E+04  0.60036625246E+03 0.  0.
         23    2    4    4    0    0  0.14412621884E+04  0.10991429552E+04 -0.15751279295E+04  0.24030370292E+04  0.90592702742E+02 0.  0.
         23    2    4    4    0    0  0.63863466971E+03  0.36851711535E+03 -0.24029886886E+03  0.78070465635E+03  0.89983934183E+02 0.  0.
          1    1    3    3  502    0 -0.10322988783E+04 -0.72231531605E+03  0.28087883381E+03  0.12908420931E+04  0.00000000000E+00 0. -1.
         -1    1    3    3    0  502 -0.10475979798E+04 -0.74534475446E+03  0.38290285723E+03  0.13414972711E+04  0.00000000000E+00 0.  1.
         15    1    5    5    0    0  0.53576453173E+03  0.40957533871E+03 -0.52862032228E+03  0.85687700074E+03  0.17770000000E+01 0.  1.
        -15    1    5    5    0    0  0.90549765668E+03  0.68956761645E+03 -0.10465076072E+04  0.15461600284E+04  0.17770000000E+01 0. -1.
          2    1    6    6  503    0  0.41127361388E+03  0.24766664021E+03 -0.20002128850E+03  0.52008967111E+03  0.00000000000E+00 0.  1.
         -2    1    6    6    0  503  0.22736105583E+03  0.12085047514E+03 -0.40277580356E+02  0.26061498523E+03  0.00000000000E+00 0. -1.
<mgrwt>
<rscale>  0 0.25478670E+04</rscale>
<asrwt>0</asrwt>
<pdfrwt beam="1">  1        2 0.53597894E+00 0.25478670E+04</pdfrwt>
<pdfrwt beam="2">  1       -2 0.35880276E+00 0.25478670E+04</pdfrwt>
<totfact> 0.94903167E-03</totfact>
</mgrwt>
</event>
<event>
12    1  0.8033771E-008  0.9685442E+03  0.7818608E-02  0.9343734E-01
          1   -1    0    0  501    0  0.00000000000E+00  0.00000000000E+00  0.17236866272E+04  0.17236866272E+04  0.00000000000E+00 0. -1.
         -1   -1    0    0    0  501 -0.00000000000E+00 -0.00000000000E+00 -0.59850916477E+03  0.59850916477E+03  0.00000000000E+00 0.  1.
         23    2    1    2    0    0  0.82879964589E+03  0.30658711858E+03  0.82604391260E+03  0.12131326839E+04  0.91857764907E+02 0.  0.
    5000000    2    1    2    0    0 -0.82879964589E+03 -0.30658711858E+03  0.29913354983E+03  0.11090631080E+04  0.59969624200E+03 0.  0.
         23    2    4    4    0    0 -0.14179444602E+03  0.15894057030E+03  0.52366239643E+02  0.23834702659E+03  0.93270103559E+02 0.  0.
         23    2    4    4    0    0 -0.68700519986E+03 -0.46552768888E+03  0.24676731018E+03  0.87071608145E+03  0.92521431913E+02 0.  0.
          2    1    3    3  502    0  0.40249728242E+03  0.10013847087E+03  0.38983241905E+03  0.56921093687E+03  0.00000000000E+00 0. -1.
         -2    1    3    3    0  502  0.42630236346E+03  0.20644864771E+03  0.43621149355E+03  0.64392174706E+03  0.00000000000E+00 0.  1.
         15    1    5    5    0    0 -0.35631741796E+02  0.12755647995E+02  0.43169066937E+02  0.57437388941E+02  0.17770000000E+01 0. -1.
        -15    1    5    5    0    0 -0.10616270423E+03  0.14618492230E+03  0.91971727063E+01  0.18090963764E+03  0.17770000000E+01 0.  1.
          1    1    6    6  503    0 -0.42090044786E+03 -0.27387272481E+03  0.19512516993E+03  0.53873675236E+03  0.00000000000E+00 0. -1.
         -1    1    6    6    0  503 -0.26610475201E+03 -0.19165496407E+03  0.51642140254E+02  0.33197932909E+03  0.00000000000E+00 0.  1.
<mgrwt>
<rscale>  0 0.96854424E+03</rscale>
<asrwt>0</asrwt>
<pdfrwt beam="1">  1        1 0.26518256E+00 0.96854424E+03</pdfrwt>
<pdfrwt beam="2">  1       -1 0.92078334E-01 0.96854424E+03</pdfrwt>
<totfact> 0.53357154E+00</totfact>
</mgrwt>
</event>
<event>
12    1  0.8033771E-008  0.6725942E+03  0.7818608E-02  0.9765283E-01
          2   -1    0    0  501    0  0.00000000000E+00  0.00000000000E+00  0.33464064114E+04  0.33464064114E+04  0.00000000000E+00 0. -1.
         -2   -1    0    0    0  501 -0.00000000000E+00 -0.00000000000E+00 -0.18923859862E+03  0.18923859862E+03  0.00000000000E+00 0.  1.
         23    2    1    2    0    0 -0.76689030206E+02  0.64601582933E+03  0.17931170191E+04  0.19096880248E+04  0.91771721441E+02 0.  0.
    5000000    2    1    2    0    0  0.76689030206E+02 -0.64601582933E+03  0.13640507937E+04  0.16259569852E+04  0.59990323460E+03 0.  0.
         23    2    4    4    0    0 -0.53695782600E+02 -0.23289862034E+03  0.79350331950E+02  0.26710576573E+03  0.89016911211E+02 0.  0.
         23    2    4    4    0    0  0.13038481281E+03 -0.41311720899E+03  0.12847004618E+04  0.13588512195E+04  0.91407507867E+02 0.  0.
          2    1    3    3  502    0 -0.72246899240E+02  0.57551315106E+03  0.16684465485E+04  0.17663943181E+04  0.00000000000E+00 0. -1.
         -2    1    3    3    0  502 -0.44421309653E+01  0.70502678270E+02  0.12467047054E+03  0.14329370675E+03  0.00000000000E+00 0.  1.
         15    1    5    5    0    0  0.21411623673E+02 -0.73523372267E+02  0.80106553202E+01  0.77016051739E+02  0.17770000000E+01 0.  1.
        -15    1    5    5    0    0 -0.75107406273E+02 -0.15937524807E+03  0.71339676630E+02  0.19008971399E+03  0.17770000000E+01 0. -1.
          3    1    6    6  503    0  0.68736241817E+02 -0.33616900204E+03  0.10347391014E+04  0.10901464474E+04  0.00000000000E+00 0. -1.
         -3    1    6    6    0  503  0.61648570990E+02 -0.76948206953E+02  0.24996136040E+03  0.26870477210E+03  0.00000000000E+00 0.  1.
<mgrwt>
<rscale>  0 0.67259424E+03</rscale>
<asrwt>0</asrwt>
<pdfrwt beam="1">  1        2 0.51483171E+00 0.67259424E+03</pdfrwt>
<pdfrwt beam="2">  1       -2 0.29113633E-01 0.67259424E+03</pdfrwt>
<totfact> 0.12245730E+01</totfact>
</mgrwt>
</event>
<event>
12    1  0.8033771E-008  0.8395813E+03  0.7818608E-02  0.9504428E-01
          2   -1    0    0  501    0  0.00000000000E+00  0.00000000000E+00  0.31726776438E+04  0.31726776438E+04  0.00000000000E+00 0. -1.
         -2   -1    0    0    0  501 -0.00000000000E+00 -0.00000000000E+00 -0.25537905060E+03  0.25537905060E+03  0.00000000000E+00 0.  1.
         23    2    1    2    0    0  0.48784465785E+03  0.60901649926E+03  0.98330222184E+03  0.12579930178E+04  0.82277985153E+02 0.  0.
    5000000    2    1    2    0    0 -0.48784465785E+03 -0.60901649926E+03  0.19339963713E+04  0.21700636766E+04  0.59995073916E+03 0.  0.
         23    2    4    4    0    0 -0.53846410323E+03 -0.57992461926E+03  0.18940800661E+04  0.20548936933E+04  0.93769074594E+02 0.  0.
         23    2    4    4    0    0  0.50619445381E+02 -0.29091879996E+02  0.39916305212E+02  0.11516998327E+03  0.90896357967E+02 0.  0.
          4    1    3    3  502    0  0.24975461637E+02  0.13825388771E+02  0.55861504197E+02  0.62732947562E+02  0.00000000000E+00 0. -1.
         -4    1    3    3    0  502  0.46286919621E+03  0.59519111049E+03  0.92744071764E+03  0.11952600703E+04  0.00000000000E+00 0.  1.
         15    1    5    5    0    0 -0.26418654688E+03 -0.24709503860E+03  0.76394630988E+03  0.84526185988E+03  0.17770000000E+01 0. -1.
        -15    1    5    5    0    0 -0.27427755634E+03 -0.33282958066E+03  0.11301337562E+04  0.12096318334E+04  0.17770000000E+01 0.  1.
          4    1    6    6  503    0  0.34338984795E+02  0.27955234639E+02  0.33450089009E+02  0.55493868807E+02  0.00000000000E+00 0. -1.
         -4    1    6    6    0  503  0.16280460586E+02 -0.57047114635E+02  0.64662162030E+01  0.59676114460E+02  0.00000000000E+00 0.  1.
<mgrwt>
<rscale>  0 0.83958128E+03</rscale>
<asrwt>0</asrwt>
<pdfrwt beam="1">  1        2 0.48810423E+00 0.83958128E+03</pdfrwt>
<pdfrwt beam="2">  1       -2 0.39289087E-01 0.83958128E+03</pdfrwt>
<totfact> 0.87108932E+00</totfact>
</mgrwt>
</event>
<event>
12    1  0.8033771E-008  0.4428122E+03  0.7818608E-02  0.1029887E+00
          1   -1    0    0  501    0  0.00000000000E+00  0.00000000000E+00  0.12451674061E+04  0.12451674061E+04  0.00000000000E+00 0. -1.
         -1   -1    0    0    0  501 -0.00000000000E+00 -0.00000000000E+00 -0.74056697398E+03  0.74056697398E+03  0.00000000000E+00 0.  1.
         23    2    1    2    0    0  0.43416976190E+03  0.16856358678E+02 -0.54336692572E+03  0.70191629284E+03  0.93012618552E+02 0.  0.
    5000000    2    1    2    0    0 -0.43416976190E+03 -0.16856358678E+02  0.10479673578E+04  0.12838180872E+04  0.60097069734E+03 0.  0.
         23    2    4    4    0    0 -0.26649083286E+03  0.18333798382E+02  0.10525595184E+04  0.10898173443E+04  0.92015281374E+02 0.  0.
         23    2    4    4    0    0 -0.16767892904E+03 -0.35190157060E+02 -0.45921605790E+01  0.19400074293E+03  0.90888007578E+02 0.  0.
          1    1    3    3  502    0  0.26273766924E+03 -0.24310317031E+02 -0.37177247732E+03  0.45589126910E+03  0.00000000000E+00 0. -1.
         -1    1    3    3    0  502  0.17143209266E+03  0.41166675708E+02 -0.17159444840E+03  0.24602502374E+03  0.00000000000E+00 0.  1.
         15    1    5    5    0    0 -0.80354566593E+02  0.25847125397E+02  0.19909080646E+03  0.21625271608E+03  0.17770000000E+01 0. -1.
        -15    1    5    5    0    0 -0.18613626627E+03 -0.75133270145E+01  0.85346871190E+03  0.87356462819E+03  0.17770000000E+01 0.  1.
          1    1    6    6  503    0 -0.27641004853E+02  0.69355649738E+01 -0.34488710523E+02  0.44739226237E+02  0.00000000000E+00 0. -1.
         -1    1    6    6    0  503 -0.14003792419E+03 -0.42125722034E+02  0.29896549944E+02  0.14926151669E+03  0.00000000000E+00 0.  1.
<mgrwt>
<rscale>  0 0.44281224E+03</rscale>
<asrwt>0</asrwt>
<pdfrwt beam="1">  1        1 0.19156422E+00 0.44281224E+03</pdfrwt>
<pdfrwt beam="2">  1       -1 0.11393338E+00 0.44281224E+03</pdfrwt>
<totfact> 0.76628582E+00</totfact>
</mgrwt>
</event>
<event>
12    1  0.8033771E-008  0.3861122E+03  0.7818608E-02  0.1048698E+00
          1   -1    0    0  501    0  0.00000000000E+00  0.00000000000E+00  0.91630737589E+03  0.91630737589E+03  0.00000000000E+00 0. -1.
         -1   -1    0    0    0  501 -0.00000000000E+00 -0.00000000000E+00 -0.55028895822E+03  0.55028895822E+03  0.00000000000E+00 0.  1.
         23    2    1    2    0    0 -0.21595403214E+03 -0.23918814838E+02  0.70393550086E+03  0.74342865277E+03  0.99763313359E+02 0.  0.
    5000000    2    1    2    0    0  0.21595403214E+03  0.23918814838E+02 -0.33791708319E+03  0.72316768134E+03  0.60131130583E+03 0.  0.
         23    2    4    4    0    0  0.32411039680E+03 -0.12198905375E+03 -0.37330589982E+03  0.51692188497E+03  0.89005964799E+02 0.  0.
         23    2    4    4    0    0 -0.10815636466E+03  0.14590786859E+03  0.35388816630E+02  0.20624579637E+03  0.91093659733E+02 0.  0.
          2    1    3    3  502    0 -0.24010381253E+02 -0.30148388882E+02  0.20932177452E+03  0.21284038397E+03  0.00000000000E+00 0. -1.
         -2    1    3    3    0  502 -0.19194365088E+03  0.62295740437E+01  0.49461372634E+03  0.53058826880E+03  0.00000000000E+00 0.  1.
         15    1    5    5    0    0  0.23128622263E+03 -0.11696617440E+03 -0.23248883926E+03  0.34817900690E+03  0.17770000000E+01 0. -1.
        -15    1    5    5    0    0  0.92824174167E+02 -0.50228793528E+01 -0.14081706056E+03  0.16874287807E+03  0.17770000000E+01 0.  1.
          1    1    6    6  503    0 -0.83057873548E+02  0.67125756904E+02  0.56629650766E+02  0.12087760315E+03  0.00000000000E+00 0. -1.
         -1    1    6    6    0  503 -0.25098491115E+02  0.78782111687E+02 -0.21240834136E+02  0.85368193216E+02  0.00000000000E+00 0.  1.
<mgrwt>
<rscale>  0 0.38611221E+03</rscale>
<asrwt>0</asrwt>
<pdfrwt beam="1">  1        1 0.14097037E+00 0.38611221E+03</pdfrwt>
<pdfrwt beam="2">  1       -1 0.84659840E-01 0.38611221E+03</pdfrwt>
<totfact> 0.26502340E+01</totfact>
</mgrwt>
</event>
<event>
12    1  0.8033771E-008  0.5829301E+03  0.7818608E-02  0.9941467E-01
         -2   -1    0    0    0  501 -0.00000000000E+00  0.00000000000E+00  0.31847029562E+03  0.31847029562E+03  0.00000000000E+00 0.  1.
          2   -1    0    0  501    0  0.00000000000E+00 -0.00000000000E+00 -0.15913775462E+04  0.15913775462E+04  0.00000000000E+00 0. -1.
         23    2    1    2    0    0 -0.49180410750E+03 -0.29833621590E+02 -0.94081704340E+03  0.10654508731E+04  0.85367022884E+02 0.  0.
    5000000    2    1    2    0    0  0.49180410750E+03  0.29833621590E+02 -0.33209020713E+03  0.84439696873E+03  0.59996750745E+03 0.  0.
         23    2    4    4    0    0 -0.39764612829E+02  0.94412642247E+02  0.84449636096E+02  0.16017356046E+03  0.89603889342E+02 0.  0.
         23    2    4    4    0    0  0.53156872032E+03 -0.64579020657E+02 -0.41653984323E+03  0.68422340826E+03  0.88997062212E+02 0.  0.
          3    1    3    3  502    0 -0.25672343426E+03 -0.16969769743E+02 -0.58147321324E+03  0.63585060549E+03  0.00000000000E+00 0. -1.
         -3    1    3    3    0  502 -0.23508067323E+03 -0.12863851847E+02 -0.35934383017E+03  0.42960026756E+03  0.00000000000E+00 0.  1.
         15    1    5    5    0    0 -0.12129772265E+02  0.10471933323E+03  0.57062827448E+02  0.11988575450E+03  0.17770000000E+01 0.  1.
        -15    1    5    5    0    0 -0.27634840563E+02 -0.10306690985E+02  0.27386808648E+02  0.40287805958E+02  0.17770000000E+01 0. -1.
          1    1    6    6  503    0  0.49978865353E+02 -0.22273860100E+02 -0.72625909642E+02  0.90931482871E+02  0.00000000000E+00 0. -1.
         -1    1    6    6    0  503  0.48158985497E+03 -0.42305160557E+02 -0.34391393359E+03  0.59329192539E+03  0.00000000000E+00 0.  1.
<mgrwt>
<rscale>  0 0.58293014E+03</rscale>
<asrwt>0</asrwt>
<pdfrwt beam="1">  1        2 0.24482731E+00 0.58293014E+03</pdfrwt>
<pdfrwt beam="2">  1       -2 0.48995430E-01 0.58293014E+03</pdfrwt>
<totfact> 0.46473247E+01</totfact>
</mgrwt>
</event>
<event>
12    1  0.8033771E-008  0.9860937E+03  0.7818608E-02  0.9323930E-01
         -1   -1    0    0    0  501 -0.00000000000E+00  0.00000000000E+00  0.11340124572E+04  0.11340124572E+04  0.00000000000E+00 0.  1.
          1   -1    0    0  501    0  0.00000000000E+00 -0.00000000000E+00 -0.95487365189E+03  0.95487365189E+03  0.00000000000E+00 0. -1.
         23    2    1    2    0    0 -0.62370807756E+03 -0.71829539900E+03  0.54003230587E+02  0.95719349929E+03  0.91340023760E+02 0.  0.
    5000000    2    1    2    0    0  0.62370807756E+03  0.71829539900E+03  0.12513557473E+03  0.11316926098E+04  0.60009099708E+03 0.  0.
         23    2    4    4    0    0  0.19863561363E+03  0.50196202758E+03  0.28898810198E+03  0.61924959491E+03  0.92379400184E+02 0.  0.
         23    2    4    4    0    0  0.42507246392E+03  0.21633337142E+03 -0.16385252724E+03  0.51244301489E+03  0.90903606362E+02 0.  0.
          1    1    3    3  502    0 -0.15166776939E+03 -0.15603770790E+03  0.48948726863E+02  0.22304003322E+03  0.00000000000E+00 0. -1.
         -1    1    3    3    0  502 -0.47204030817E+03 -0.56225769110E+03  0.50545037242E+01  0.73415346607E+03  0.00000000000E+00 0.  1.
         15    1    5    5    0    0  0.44331235160E+02  0.14587225988E+03  0.38206114760E+02  0.15718409445E+03  0.17770000000E+01 0.  1.
        -15    1    5    5    0    0  0.15430437847E+03  0.35608976769E+03  0.25078198722E+03  0.46206550046E+03  0.17770000000E+01 0. -1.
          3    1    6    6  503    0  0.31944676262E+03  0.13602659799E+03 -0.15266847155E+03  0.37928502701E+03  0.00000000000E+00 0.  1.
         -3    1    6    6    0  503  0.10562570130E+03  0.80306773433E+02 -0.11184055699E+02  0.13315798788E+03  0.00000000000E+00 0. -1.
<mgrwt>
<rscale>  0 0.98609368E+03</rscale>
<asrwt>0</asrwt>
<pdfrwt beam="1">  1        1 0.14690364E+00 0.98609368E+03</pdfrwt>
<pdfrwt beam="2">  1       -1 0.17446345E+00 0.98609368E+03</pdfrwt>
<totfact> 0.37668334E+00</totfact>
</mgrwt>
</event>
<event>
12    1  0.8033771E-008  0.1912061E+04  0.7818608E-02  0.8648876E-01
          2   -1    0    0  501    0  0.00000000000E+00  0.00000000000E+00  0.13639749438E+04  0.13639749438E+04  0.00000000000E+00 0. -1.
         -2   -1    0    0    0  501 -0.00000000000E+00 -0.00000000000E+00 -0.27241443359E+04  0.27241443359E+04  0.00000000000E+00 0.  1.
         23    2    1    2    0    0 -0.11936151273E+04 -0.14497386461E+04 -0.75601244901E+03  0.20262140432E+04  0.86771607350E+02 0.  0.
    5000000    2    1    2    0    0  0.11936151273E+04  0.14497386461E+04 -0.60415694307E+03  0.20619052364E+04  0.59999031496E+03 0.  0.
         23    2    4    4    0    0  0.12050761107E+04  0.13293228360E+04 -0.46346862234E+03  0.18553507888E+04  0.90640778543E+02 0.  0.
         23    2    4    4    0    0 -0.11460983368E+02  0.12041581007E+03 -0.14068832074E+03  0.20655444763E+03  0.90775628825E+02 0.  0.
          3    1    3    3  502    0 -0.24090457512E+03 -0.34832763107E+03 -0.16212126820E+03  0.45348699924E+03  0.00000000000E+00 0. -1.
         -3    1    3    3    0  502 -0.95271055219E+03 -0.11014110150E+04 -0.59389118081E+03  0.15727270440E+04  0.00000000000E+00 0.  1.
         15    1    5    5    0    0  0.96543106036E+03  0.10780502244E+04 -0.40927180154E+03  0.15039135560E+04  0.17770000000E+01 0.  1.
        -15    1    5    5    0    0  0.23964505032E+03  0.25127261155E+03 -0.54196820800E+02  0.35143723277E+03  0.17770000000E+01 0. -1.
          1    1    6    6  503    0 -0.45412874454E+02  0.10119635305E+03 -0.11538962206E+03  0.16005560258E+03  0.00000000000E+00 0. -1.
         -1    1    6    6    0  503  0.33951891086E+02  0.19219457026E+02 -0.25298698672E+02  0.46498845053E+02  0.00000000000E+00 0.  1.
<mgrwt>
<rscale>  0 0.19120608E+04</rscale>
<asrwt>0</asrwt>
<pdfrwt beam="1">  1        2 0.20984230E+00 0.19120608E+04</pdfrwt>
<pdfrwt beam="2">  1       -2 0.41909912E+00 0.19120608E+04</pdfrwt>
<totfact> 0.76165068E-02</totfact>
</mgrwt>
</event>
<event>
12    1  0.8033771E-008  0.5812350E+03  0.7818608E-02  0.9945121E-01
          2   -1    0    0  501    0  0.00000000000E+00  0.00000000000E+00  0.13428906279E+04  0.13428906279E+04  0.00000000000E+00 0. -1.
         -2   -1    0    0    0  501 -0.00000000000E+00 -0.00000000000E+00 -0.48626997042E+03  0.48626997042E+03  0.00000000000E+00 0.  1.
         23    2    1    2    0    0  0.41096492585E+03 -0.31546332553E+03  0.89217017468E+03  0.10356649681E+04  0.90691925900E+02 0.  0.
    5000000    2    1    2    0    0 -0.41096492585E+03  0.31546332553E+03 -0.35549517186E+02  0.79349563028E+03  0.59996855506E+03 0.  0.
         23    2    4    4    0    0 -0.92828143335E+02 -0.73252904269E+02 -0.20659076832E+03  0.25420146983E+03  0.89194111503E+02 0.  0.
         23    2    4    4    0    0 -0.31813678252E+03  0.38871622980E+03  0.17104125114E+03  0.53929416045E+03  0.96289990178E+02 0.  0.
          3    1    3    3  502    0  0.78586727289E+02 -0.68836583800E+02  0.25840619242E+03  0.27872586758E+03  0.00000000000E+00 0. -1.
         -3    1    3    3    0  502  0.33237819856E+03 -0.24662674173E+03  0.63376398226E+03  0.75693910047E+03  0.00000000000E+00 0.  1.
         15    1    5    5    0    0 -0.18975311418E+02 -0.52693458064E+02 -0.14627650502E+03  0.15664174608E+03  0.17770000000E+01 0.  1.
        -15    1    5    5    0    0 -0.73852831916E+02 -0.20559446205E+02 -0.60314263307E+02  0.97559723747E+02  0.17770000000E+01 0. -1.
          2    1    6    6  503    0 -0.26793295914E+03  0.26046519388E+03  0.12843297723E+03  0.39512683718E+03  0.00000000000E+00 0. -1.
         -2    1    6    6    0  503 -0.50203823379E+02  0.12825103591E+03  0.42608273909E+02  0.14416732328E+03  0.00000000000E+00 0.  1.
<mgrwt>
<rscale>  0 0.58123499E+03</rscale>
<asrwt>0</asrwt>
<pdfrwt beam="1">  1        2 0.20659856E+00 0.58123499E+03</pdfrwt>
<pdfrwt beam="2">  1       -2 0.74810765E-01 0.58123499E+03</pdfrwt>
<totfact> 0.26147289E+01</totfact>
</mgrwt>
</event>
<event>
12    1  0.8033771E-008  0.8107018E+03  0.7818608E-02  0.9544655E-01
          2   -1    0    0  501    0  0.00000000000E+00  0.00000000000E+00  0.15845037434E+04  0.15845037434E+04  0.00000000000E+00 0. -1.
         -2   -1    0    0    0  501 -0.00000000000E+00 -0.00000000000E+00 -0.53701324311E+03  0.53701324311E+03  0.00000000000E+00 0.  1.
         23    2    1    2    0    0 -0.69016275758E+03 -0.40069764530E+03  0.69498488103E+03  0.10626286672E+04  0.96397430875E+02 0.  0.
    5000000    2    1    2    0    0  0.69016275758E+03  0.40069764530E+03  0.35250561930E+03  0.10588883193E+04  0.60008418261E+03 0.  0.
         23    2    4    4    0    0  0.36662756061E+03  0.28674387591E+03 -0.99212862401E+02  0.48456004989E+03  0.91199952352E+02 0.  0.
         23    2    4    4    0    0  0.32353519697E+03  0.11395376939E+03  0.45171848170E+03  0.57432826942E+03  0.90237958234E+02 0.  0.
          3    1    3    3  502    0 -0.24595567768E+03 -0.12037190462E+03  0.29425434157E+03  0.40195672446E+03  0.00000000000E+00 0. -1.
         -3    1    3    3    0  502 -0.44420707991E+03 -0.28032574068E+03  0.40073053945E+03  0.66067194278E+03  0.00000000000E+00 0.  1.
         15    1    5    5    0    0  0.69042361933E+02  0.13701348668E+02 -0.13523926734E+02  0.71698180032E+02  0.17770000000E+01 0. -1.
        -15    1    5    5    0    0  0.29758519868E+03  0.27304252725E+03 -0.85688935667E+02  0.41286186986E+03  0.17770000000E+01 0.  1.
          3    1    6    6  503    0  0.26816932014E+03  0.69519398240E+02  0.30950750454E+03  0.41538250608E+03  0.00000000000E+00 0. -1.
         -3    1    6    6    0  503  0.55365876835E+02  0.44434371150E+02  0.14221097716E+03  0.15894576333E+03  0.00000000000E+00 0.  1.
<mgrwt>
<rscale>  0 0.81070182E+03</rscale>
<asrwt>0</asrwt>
<pdfrwt beam="1">  1        2 0.24376980E+00 0.81070182E+03</pdfrwt>
<pdfrwt beam="2">  1       -2 0.82617423E-01 0.81070182E+03</pdfrwt>
<totfact> 0.14888116E+01</totfact>
</mgrwt>
</event>
<event>
12    1  0.8033771E-008  0.1091956E+04  0.7818608E-02  0.9213067E-01
          2   -1    0    0  501    0  0.00000000000E+00  0.00000000000E+00  0.10795743291E+04  0.10795743291E+04  0.00000000000E+00 0. -1.
         -2   -1    0    0    0  501 -0.00000000000E+00 -0.00000000000E+00 -0.12254358153E+04  0.12254358153E+04  0.00000000000E+00 0.  1.
         23    2    1    2    0    0  0.93190062542E+03 -0.52274085869E+03 -0.12400898811E+02  0.10723277091E+04  0.89644589682E+02 0.  0.
    5000000    2    1    2    0    0 -0.93190062542E+03  0.52274085869E+03 -0.13346058734E+03  0.12326824353E+04  0.59999789745E+03 0.  0.
         23    2    4    4    0    0 -0.34114295758E+03  0.36808472113E+02 -0.27425369320E+03  0.44872284228E+03  0.91671804955E+02 0.  0.
         23    2    4    4    0    0 -0.59075766784E+03  0.48593238658E+03  0.14079310586E+03  0.78395959303E+03  0.98209156424E+02 0.  0.
          1    1    3    3  502    0  0.17726658668E+03 -0.81481096752E+02  0.28650513785E+02  0.19718890390E+03  0.00000000000E+00 0. -1.
         -1    1    3    3    0  502  0.75463403874E+03 -0.44125976194E+03 -0.41051412597E+02  0.87513880522E+03  0.00000000000E+00 0.  1.
         15    1    5    5    0    0 -0.23731933941E+03  0.14886036037E+02 -0.23835679307E+03  0.33668855261E+03  0.17770000000E+01 0. -1.
        -15    1    5    5    0    0 -0.10382361818E+03  0.21922436076E+02 -0.35896900129E+02  0.11203428967E+03  0.17770000000E+01 0.  1.
          3    1    6    6  503    0 -0.41819421141E+03  0.39684855547E+03  0.11743399113E+03  0.58835866333E+03  0.00000000000E+00 0. -1.
         -3    1    6    6    0  503 -0.17256345643E+03  0.89083831108E+02  0.23359114729E+02  0.19560092970E+03  0.00000000000E+00 0.  1.
<mgrwt>
<rscale>  0 0.10919565E+04</rscale>
<asrwt>0</asrwt>
<pdfrwt beam="1">  1        2 0.16608836E+00 0.10919565E+04</pdfrwt>
<pdfrwt beam="2">  1       -2 0.18852859E+00 0.10919565E+04</pdfrwt>
<totfact> 0.34932661E+00</totfact>
</mgrwt>
</event>
<event>
12    1  0.8033771E-008  0.8536924E+03  0.7818608E-02  0.9485395E-01
         -2   -1    0    0    0  501 -0.00000000000E+00  0.00000000000E+00  0.38106999824E+03  0.38106999824E+03  0.00000000000E+00 0.  1.
          2   -1    0    0  501    0  0.00000000000E+00 -0.00000000000E+00 -0.23084922317E+04  0.23084922317E+04  0.00000000000E+00 0. -1.
         23    2    1    2    0    0  0.12468834030E+03 -0.76537627834E+03 -0.40801359016E+03  0.88124062539E+03  0.93605130403E+02 0.  0.
    5000000    2    1    2    0    0 -0.12468834030E+03  0.76537627834E+03 -0.15194086433E+04  0.18083216046E+04  0.60006363873E+03 0.  0.
         23    2    4    4    0    0  0.65826094992E+02 -0.42087780806E+02 -0.36133646685E+03  0.38088336839E+03  0.91671380309E+02 0.  0.
         23    2    4    4    0    0 -0.19051443529E+03  0.80746405914E+03 -0.11580721765E+04  0.14274382362E+04  0.90303905427E+02 0.  0.
          3    1    3    3  502    0  0.58461946775E+02 -0.47077437799E+03 -0.20144341033E+03  0.51538894221E+03  0.00000000000E+00 0. -1.
         -3    1    3    3    0  502  0.66226393526E+02 -0.29460190035E+03 -0.20657017983E+03  0.36585168318E+03  0.00000000000E+00 0.  1.
         15    1    5    5    0    0 -0.81372822979E+01  0.45431039562E+01 -0.17270164255E+03  0.17296204851E+03  0.17770000000E+01 0. -1.
        -15    1    5    5    0    0  0.73963377290E+02 -0.46630884762E+02 -0.18863482430E+03  0.20792131988E+03  0.17770000000E+01 0.  1.
          1    1    6    6  503    0 -0.58780024314E+02  0.43647728515E+03 -0.63448076041E+03  0.77235571276E+03  0.00000000000E+00 0. -1.
         -1    1    6    6    0  503 -0.13173441098E+03  0.37098677399E+03 -0.52359141607E+03  0.65508252342E+03  0.00000000000E+00 0.  1.
<mgrwt>
<rscale>  0 0.85369239E+03</rscale>
<asrwt>0</asrwt>
<pdfrwt beam="1">  1        2 0.35515265E+00 0.85369239E+03</pdfrwt>
<pdfrwt beam="2">  1       -2 0.58626155E-01 0.85369239E+03</pdfrwt>
<totfact> 0.12523816E+01</totfact>
</mgrwt>
</event>
<event>
12    1  0.8033771E-008  0.1268064E+04  0.7818608E-02  0.9055281E-01
          2   -1    0    0  501    0  0.00000000000E+00  0.00000000000E+00  0.65089066268E+03  0.65089066268E+03  0.00000000000E+00 0. -1.
         -2   -1    0    0    0  501 -0.00000000000E+00 -0.00000000000E+00 -0.27901877872E+04  0.27901877872E+04  0.00000000000E+00 0.  1.
         23    2    1    2    0    0  0.19952063570E+03 -0.11923695533E+04 -0.15515453081E+04  0.19690066632E+04  0.90226165774E+02 0.  0.
    5000000    2    1    2    0    0 -0.19952063570E+03  0.11923695533E+04 -0.58775181641E+03  0.14720717866E+04  0.59999125948E+03 0.  0.
         23    2    4    4    0    0 -0.34265095084E+03  0.46848930651E+03 -0.13764372783E+03  0.60296875402E+03  0.87940992114E+02 0.  0.
         23    2    4    4    0    0  0.14313031514E+03  0.72388024684E+03 -0.45010808858E+03  0.86910303259E+03  0.90850927256E+02 0.  0.
          1    1    3    3  502    0  0.89857876912E+02 -0.42051305275E+03 -0.61537857203E+03  0.75073061247E+03  0.00000000000E+00 0. -1.
         -1    1    3    3    0  502  0.10966275879E+03 -0.77185650059E+03 -0.93616673604E+03  0.12182760507E+04  0.00000000000E+00 0.  1.
         15    1    5    5    0    0 -0.25415764845E+03  0.39970052343E+03 -0.95421961702E+02  0.48318229190E+03  0.17770000000E+01 0. -1.
        -15    1    5    5    0    0 -0.88493302393E+02  0.68788783073E+02 -0.42221766127E+02  0.11978646213E+03  0.17770000000E+01 0.  1.
          3    1    6    6  503    0  0.69585305665E+02  0.50666803304E+03 -0.27579126696E+03  0.58104684269E+03  0.00000000000E+00 0. -1.
         -3    1    6    6    0  503  0.73545009478E+02  0.21721221380E+03 -0.17431682162E+03  0.28805618990E+03  0.00000000000E+00 0.  1.
<mgrwt>
<rscale>  0 0.12680643E+04</rscale>
<asrwt>0</asrwt>
<pdfrwt beam="1">  1        2 0.10013703E+00 0.12680643E+04</pdfrwt>
<pdfrwt beam="2">  1       -2 0.42925966E+00 0.12680643E+04</pdfrwt>
<totfact> 0.21001497E-01</totfact>
</mgrwt>
</event>
<event>
12    1  0.8033771E-008  0.6545760E+03  0.7818608E-02  0.9798230E-01
          1   -1    0    0  501    0  0.00000000000E+00  0.00000000000E+00  0.29486906106E+03  0.29486906106E+03  0.00000000000E+00 0. -1.
         -1   -1    0    0    0  501 -0.00000000000E+00 -0.00000000000E+00 -0.17332239875E+04  0.17332239875E+04  0.00000000000E+00 0.  1.
         23    2    1    2    0    0  0.52770902150E+03  0.20027663726E+03 -0.81258161194E+03  0.99369199166E+03  0.92451908704E+02 0.  0.
    5000000    2    1    2    0    0 -0.52770902150E+03 -0.20027663726E+03 -0.62577331452E+03  0.10344010569E+04  0.59983811365E+03 0.  0.
         23    2    4    4    0    0 -0.57074619241E+03 -0.25881656022E+03 -0.32487919005E+03  0.71153364311E+03  0.89422643406E+02 0.  0.
         23    2    4    4    0    0  0.43037170912E+02  0.58539922963E+02 -0.30089412447E+03  0.32286741381E+03  0.91798540835E+02 0.  0.
          4    1    3    3  502    0  0.44558623270E+03  0.15130481496E+03 -0.61681419457E+03  0.77582213711E+03  0.00000000000E+00 0.  1.
         -4    1    3    3    0  502  0.82122788798E+02  0.48971822298E+02 -0.19576741737E+03  0.21786985455E+03  0.00000000000E+00 0. -1.
         15    1    5    5    0    0 -0.43265034722E+02  0.28795855118E+00 -0.37789859816E+02  0.57473275386E+02  0.17770000000E+01 0.  1.
        -15    1    5    5    0    0 -0.52748115769E+03 -0.25910451877E+03 -0.28708933024E+03  0.65406036772E+03  0.17770000000E+01 0. -1.
          2    1    6    6  503    0  0.41771630745E+02  0.80120535482E+02 -0.19678445420E+03  0.21653704246E+03  0.00000000000E+00 0. -1.
         -2    1    6    6    0  503  0.12655401673E+01 -0.21580612519E+02 -0.10410967027E+03  0.10633037135E+03  0.00000000000E+00 0.  1.
<mgrwt>
<rscale>  0 0.65457602E+03</rscale>
<asrwt>0</asrwt>
<pdfrwt beam="1">  1        1 0.45364470E-01 0.65457602E+03</pdfrwt>
<pdfrwt beam="2">  1       -1 0.26664985E+00 0.65457602E+03</pdfrwt>
<totfact> 0.51440334E+00</totfact>
</mgrwt>
</event>
<event>
12    1  0.8033771E-008  0.9520129E+03  0.7818608E-02  0.9362801E-01
         -1   -1    0    0    0  501 -0.00000000000E+00  0.00000000000E+00  0.74787842414E+03  0.74787842414E+03  0.00000000000E+00 0.  1.
          1   -1    0    0  501    0  0.00000000000E+00 -0.00000000000E+00 -0.15461790280E+04  0.15461790280E+04  0.00000000000E+00 0. -1.
         23    2    1    2    0    0  0.47276428040E+03  0.80278850260E+03 -0.72370392096E+03  0.11833679788E+04  0.92935263579E+02 0.  0.
    5000000    2    1    2    0    0 -0.47276428040E+03 -0.80278850260E+03 -0.74596682888E+02  0.11106894734E+04  0.60007582555E+03 0.  0.
         23    2    4    4    0    0 -0.28216001641E+02 -0.32884170269E+02 -0.18354965666E+03  0.21017083563E+03  0.92756629345E+02 0.  0.
         23    2    4    4    0    0 -0.44454827876E+03 -0.76990433233E+03  0.10895297377E+03  0.90051863772E+03  0.93205221454E+02 0.  0.
          3    1    3    3  502    0  0.37704596300E+03  0.69797407500E+03 -0.59340346877E+03  0.99068619871E+03  0.00000000000E+00 0.  1.
         -3    1    3    3    0  502  0.95718317401E+02  0.10481442761E+03 -0.13030045220E+03  0.19268178005E+03  0.00000000000E+00 0. -1.
         15    1    5    5    0    0 -0.37772647111E+01  0.18825684739E+02 -0.15013299032E+01  0.19341299209E+02  0.17770000000E+01 0. -1.
        -15    1    5    5    0    0 -0.24438736930E+02 -0.51709855008E+02 -0.18204832676E+03  0.19082953643E+03  0.17770000000E+01 0.  1.
          2    1    6    6  503    0 -0.25741543846E+03 -0.36982569130E+03  0.82197291346E+02  0.45802854126E+03  0.00000000000E+00 0. -1.
         -2    1    6    6    0  503 -0.18713284029E+03 -0.40007864104E+03  0.26755682428E+02  0.44249009647E+03  0.00000000000E+00 0.  1.
<mgrwt>
<rscale>  0 0.95201286E+03</rscale>
<asrwt>0</asrwt>
<pdfrwt beam="1">  1        1 0.23787369E+00 0.95201286E+03</pdfrwt>
<pdfrwt beam="2">  1       -1 0.11505822E+00 0.95201286E+03</pdfrwt>
<totfact> 0.42172073E+00</totfact>
</mgrwt>
</event>
<event>
12    1  0.8033771E-008  0.7828424E+03  0.7818608E-02  0.9585190E-01
         -1   -1    0    0    0  501 -0.00000000000E+00  0.00000000000E+00  0.40485544304E+03  0.40485544304E+03  0.00000000000E+00 0.  1.
          1   -1    0    0  501    0  0.00000000000E+00 -0.00000000000E+00 -0.26763140627E+04  0.26763140627E+04  0.00000000000E+00 0. -1.
         23    2    1    2    0    0 -0.63787202826E+03 -0.33329106448E+03 -0.11779528266E+03  0.73252205617E+03  0.68914266082E+02 0.  0.
    5000000    2    1    2    0    0  0.63787202826E+03  0.33329106448E+03 -0.21536633370E+04  0.23486474496E+04  0.59992950850E+03 0.  0.
         23    2    4    4    0    0  0.39994318609E+03  0.42519189679E+03 -0.18448326998E+04  0.19371501606E+04  0.91653440652E+02 0.  0.
         23    2    4    4    0    0  0.23792884216E+03 -0.91900832313E+02 -0.30883063720E+03  0.41149728900E+03  0.94327935760E+02 0.  0.
          3    1    3    3  502    0 -0.46363343691E+03 -0.25087972739E+03 -0.11598836719E+03  0.53976837881E+03  0.00000000000E+00 0. -1.
         -3    1    3    3    0  502 -0.17423859135E+03 -0.82411337087E+02 -0.18069154763E+01  0.19275367737E+03  0.00000000000E+00 0.  1.
         15    1    5    5    0    0  0.26629578809E+02  0.61585989391E+02 -0.15836360060E+03  0.17200045431E+03  0.17770000000E+01 0.  1.
        -15    1    5    5    0    0  0.37331360729E+03  0.36360590740E+03 -0.16864690992E+04  0.17651497063E+04  0.17770000000E+01 0. -1.
          1    1    6    6  503    0  0.78593446177E+02 -0.12755097068E+02 -0.16318862770E+03  0.18157684460E+03  0.00000000000E+00 0. -1.
         -1    1    6    6    0  503  0.15933539598E+03 -0.79145735245E+02 -0.14564200950E+03  0.22992044440E+03  0.00000000000E+00 0.  1.
<mgrwt>
<rscale>  0 0.78284239E+03</rscale>
<asrwt>0</asrwt>
<pdfrwt beam="1">  1        1 0.41174062E+00 0.78284239E+03</pdfrwt>
<pdfrwt beam="2">  1       -1 0.62285453E-01 0.78284239E+03</pdfrwt>
<totfact> 0.28238521E+00</totfact>
</mgrwt>
</event>
<event>
12    1  0.8033771E-008  0.9224644E+03  0.7818608E-02  0.9397928E-01
         -2   -1    0    0    0  501 -0.00000000000E+00  0.00000000000E+00  0.54915981164E+03  0.54915981164E+03  0.00000000000E+00 0.  1.
          2   -1    0    0  501    0  0.00000000000E+00 -0.00000000000E+00 -0.16866299020E+04  0.16866299020E+04  0.00000000000E+00 0. -1.
         23    2    1    2    0    0 -0.68772747439E+02 -0.85565710559E+03 -0.38047931127E+03  0.94355187859E+03  0.92988537792E+02 0.  0.
    5000000    2    1    2    0    0  0.68772747439E+02  0.85565710559E+03 -0.75699077910E+03  0.12922378351E+04  0.59997067392E+03 0.  0.
         23    2    4    4    0    0  0.13363421606E+03  0.13815695288E+02 -0.26560737356E+03  0.31091458881E+03  0.89842236767E+02 0.  0.
         23    2    4    4    0    0 -0.64861468620E+02  0.84184141030E+03 -0.49138340554E+03  0.98132324624E+03  0.92917663379E+02 0.  0.
          1    1    3    3  502    0  0.97961188876E+00 -0.39806285841E+02 -0.40963342439E+02  0.57127011612E+02  0.00000000000E+00 0. -1.
         -1    1    3    3    0  502 -0.69752359328E+02 -0.81585081975E+03 -0.33951596883E+03  0.88642486698E+03  0.00000000000E+00 0.  1.
         15    1    5    5    0    0  0.54523226361E+02 -0.78643838337E+01 -0.19509451792E+03  0.20273050929E+03  0.17770000000E+01 0.  1.
        -15    1    5    5    0    0  0.79110989697E+02  0.21680079122E+02 -0.70512855638E+02  0.10818407952E+03  0.17770000000E+01 0. -1.
          2    1    6    6  503    0 -0.83845982582E+02  0.51975595782E+03 -0.31757273558E+03  0.61484050523E+03  0.00000000000E+00 0. -1.
         -2    1    6    6    0  503  0.18984513962E+02  0.32208545248E+03 -0.17381066995E+03  0.36648274101E+03  0.00000000000E+00 0.  1.
<mgrwt>
<rscale>  0 0.92246435E+03</rscale>
<asrwt>0</asrwt>
<pdfrwt beam="1">  1        2 0.25948152E+00 0.92246435E+03</pdfrwt>
<pdfrwt beam="2">  1       -2 0.84486125E-01 0.92246435E+03</pdfrwt>
<totfact> 0.12267218E+01</totfact>
</mgrwt>
</event>
<event>
12    1  0.8033771E-008  0.4382138E+03  0.7818608E-02  0.1031296E+00
         -2   -1    0    0    0  501 -0.00000000000E+00  0.00000000000E+00  0.69145672978E+02  0.69145672978E+02  0.00000000000E+00 0.  1.
          2   -1    0    0  501    0  0.00000000000E+00 -0.00000000000E+00 -0.40806917500E+04  0.40806917500E+04  0.00000000000E+00 0. -1.
         23    2    1    2    0    0  0.33390292192E+03 -0.10753122495E+03 -0.12033028949E+04  0.12568575724E+04  0.93268294342E+02 0.  0.
    5000000    2    1    2    0    0 -0.33390292192E+03  0.10753122495E+03 -0.28082431821E+04  0.28929798506E+04  0.60004043241E+03 0.  0.
         23    2    4    4    0    0 -0.27349012354E+03 -0.88566636198E+02 -0.58440846399E+03  0.65761370557E+03  0.91003495845E+02 0.  0.
         23    2    4    4    0    0 -0.60412798380E+02  0.19609786115E+03 -0.22238347181E+04  0.22353661450E+04  0.96523942484E+02 0.  0.
          4    1    3    3  502    0  0.28392181649E+02  0.16896110923E+02 -0.10305066517E+03  0.10821753155E+03  0.00000000000E+00 0. -1.
         -4    1    3    3    0  502  0.30551074027E+03 -0.12442733587E+03 -0.11002522297E+04  0.11486400408E+04  0.00000000000E+00 0.  1.
         15    1    5    5    0    0 -0.41859274943E+02 -0.50234736631E+02 -0.10324864814E+03  0.12222589225E+03  0.17770000000E+01 0. -1.
        -15    1    5    5    0    0 -0.23163084859E+03 -0.38331899567E+02 -0.48115981584E+03  0.53538781333E+03  0.17770000000E+01 0.  1.
          3    1    6    6  503    0 -0.52899636960E+02  0.73904001004E+02 -0.13419825017E+04  0.13450565816E+04  0.00000000000E+00 0. -1.
         -3    1    6    6    0  503 -0.75131614200E+01  0.12219386014E+03 -0.88185221647E+03  0.89030956344E+03  0.00000000000E+00 0.  1.
<mgrwt>
<rscale>  0 0.43821383E+03</rscale>
<asrwt>0</asrwt>
<pdfrwt beam="1">  1        2 0.62779889E+00 0.43821383E+03</pdfrwt>
<pdfrwt beam="2">  1       -2 0.10637793E-01 0.43821383E+03</pdfrwt>
<totfact> 0.21752908E+01</totfact>
</mgrwt>
</event>
<event>
12    1  0.8033771E-008  0.4890798E+03  0.7818608E-02  0.1016669E+00
         -2   -1    0    0    0  501 -0.00000000000E+00  0.00000000000E+00  0.49320856225E+03  0.49320856225E+03  0.00000000000E+00 0.  1.
          2   -1    0    0  501    0  0.00000000000E+00 -0.00000000000E+00 -0.11318590099E+04  0.11318590099E+04  0.00000000000E+00 0. -1.
         23    2    1    2    0    0 -0.84028953999E+02  0.41056490350E+03  0.23215619478E+03  0.48764309605E+03  0.90966396265E+02 0.  0.
    5000000    2    1    2    0    0  0.84028953999E+02 -0.41056490350E+03 -0.87080664241E+03  0.11374244761E+04  0.59983816587E+03 0.  0.
         23    2    4    4    0    0  0.61970710275E+02  0.26701938681E+02 -0.60986049431E+03  0.62021432136E+03  0.90457832357E+02 0.  0.
         23    2    4    4    0    0  0.22058243724E+02 -0.43726684218E+03 -0.26094614810E+03  0.51721015473E+03  0.87889672630E+02 0.  0.
          1    1    3    3  502    0 -0.77681943363E+02  0.16163587316E+03  0.85730362347E+02  0.19877206757E+03  0.00000000000E+00 0. -1.
         -1    1    3    3    0  502 -0.63470106361E+01  0.24892903034E+03  0.14642583244E+03  0.28887102848E+03  0.00000000000E+00 0.  1.
         15    1    5    5    0    0  0.72435560764E+02  0.47022963063E+02 -0.40717753803E+03  0.41623884337E+03  0.17770000000E+01 0.  1.
        -15    1    5    5    0    0 -0.10464850489E+02 -0.20321024382E+02 -0.20268295628E+03  0.20397547799E+03  0.17770000000E+01 0. -1.
          2    1    6    6  503    0 -0.15420297124E+02 -0.10263710863E+03 -0.99521860287E+02  0.14379416646E+03  0.00000000000E+00 0. -1.
         -2    1    6    6    0  503  0.37478540848E+02 -0.33462973355E+03 -0.16142428781E+03  0.37341598827E+03  0.00000000000E+00 0.  1.
<mgrwt>
<rscale>  0 0.48907976E+03</rscale>
<asrwt>0</asrwt>
<pdfrwt beam="1">  1        2 0.17413216E+00 0.48907976E+03</pdfrwt>
<pdfrwt beam="2">  1       -2 0.75878240E-01 0.48907976E+03</pdfrwt>
<totfact> 0.34051331E+01</totfact>
</mgrwt>
</event>
<event>
12    1  0.8033771E-008  0.9463709E+03  0.7818608E-02  0.9369402E-01
         -1   -1    0    0    0  501 -0.00000000000E+00  0.00000000000E+00  0.26747261133E+03  0.26747261133E+03  0.00000000000E+00 0.  1.
          1   -1    0    0  501    0  0.00000000000E+00 -0.00000000000E+00 -0.42937664432E+04  0.42937664432E+04  0.00000000000E+00 0. -1.
         23    2    1    2    0    0  0.92731703757E+03 -0.17406412803E+03 -0.24640325336E+04  0.26400839035E+04  0.91495802894E+02 0.  0.
    5000000    2    1    2    0    0 -0.92731703757E+03  0.17406412803E+03 -0.15622612983E+04  0.19211551511E+04  0.59996795041E+03 0.  0.
         23    2    4    4    0    0 -0.30868655993E+03  0.25258185526E+02 -0.12332087756E+03  0.34526043249E+03  0.89840743436E+02 0.  0.
         23    2    4    4    0    0 -0.61863047763E+03  0.14880594250E+03 -0.14389404207E+04  0.15758947186E+04  0.89709270796E+02 0.  0.
          2    1    3    3  502    0  0.17250040886E+03 -0.24642124558E+02 -0.36501516976E+03  0.40447459687E+03  0.00000000000E+00 0.  1.
         -2    1    3    3    0  502  0.75481662871E+03 -0.14942200347E+03 -0.20990173638E+04  0.22356093066E+04  0.00000000000E+00 0. -1.
         15    1    5    5    0    0 -0.20364770988E+03  0.34669978418E+02 -0.12171190046E+03  0.23977352144E+03  0.17770000000E+01 0.  1.
        -15    1    5    5    0    0 -0.10503885006E+03 -0.94117928917E+01 -0.16089771049E+01  0.10548691105E+03  0.17770000000E+01 0. -1.
          3    1    6    6  503    0 -0.29291951278E+03  0.55245242312E+02 -0.57057096929E+03  0.64374304560E+03  0.00000000000E+00 0. -1.
         -3    1    6    6    0  503 -0.32571096485E+03  0.93560700188E+02 -0.86836945142E+03  0.93215167297E+03  0.00000000000E+00 0.  1.
<mgrwt>
<rscale>  0 0.94637094E+03</rscale>
<asrwt>0</asrwt>
<pdfrwt beam="1">  1        1 0.66057945E+00 0.94637094E+03</pdfrwt>
<pdfrwt beam="2">  1       -1 0.41149632E-01 0.94637094E+03</pdfrwt>
<totfact> 0.32070265E-01</totfact>
</mgrwt>
</event>
<event>
12    1  0.8033771E-008  0.7387181E+03  0.7818608E-02  0.9653218E-01
         -1   -1    0    0    0  501 -0.00000000000E+00  0.00000000000E+00  0.13339375909E+04  0.13339375909E+04  0.00000000000E+00 0.  1.
          1   -1    0    0  501    0  0.00000000000E+00 -0.00000000000E+00 -0.59046186036E+03  0.59046186036E+03  0.00000000000E+00 0. -1.
         23    2    1    2    0    0 -0.52988651001E+03 -0.39116939339E+03 -0.12918971808E+03  0.67734784203E+03  0.91197083455E+02 0.  0.
    5000000    2    1    2    0    0  0.52988651001E+03  0.39116939339E+03  0.87266544866E+03  0.12470516093E+04  0.59983291263E+03 0.  0.
         23    2    4    4    0    0 -0.22222265277E+02 -0.53426240345E+02 -0.15759835966E+02  0.10690257810E+03  0.88496308082E+02 0.  0.
         23    2    4    4    0    0  0.55210877529E+03  0.44459563374E+03  0.88842528463E+03  0.11401490312E+04  0.90282609684E+02 0.  0.
          3    1    3    3  502    0 -0.19489859339E+03 -0.10095901545E+03 -0.68878890197E+02  0.23004887746E+03  0.00000000000E+00 0. -1.
         -3    1    3    3    0  502 -0.33498791662E+03 -0.29021037794E+03 -0.60310827880E+02  0.44729896457E+03  0.00000000000E+00 0.  1.
         15    1    5    5    0    0 -0.47643776203E+02 -0.30193393671E+01  0.16407236003E+01  0.47800580792E+02  0.17770000000E+01 0. -1.
        -15    1    5    5    0    0  0.25421510927E+02 -0.50406900978E+02 -0.17400559567E+02  0.59101997311E+02  0.17770000000E+01 0.  1.
          3    1    6    6  503    0  0.97811497662E+02  0.10326803777E+03  0.23000022118E+03  0.27042832404E+03  0.00000000000E+00 0. -1.
         -3    1    6    6    0  503  0.45429727763E+03  0.34132759596E+03  0.65842506345E+03  0.86972070713E+03  0.00000000000E+00 0.  1.
<mgrwt>
<rscale>  0 0.73871807E+03</rscale>
<asrwt>0</asrwt>
<pdfrwt beam="1">  1        1 0.90840287E-01 0.73871807E+03</pdfrwt>
<pdfrwt beam="2">  1       -1 0.20522117E+00 0.73871807E+03</pdfrwt>
<totfact> 0.50418522E+00</totfact>
</mgrwt>
</event>
<event>
12    1  0.8033771E-008  0.4638399E+03  0.7818608E-02  0.1023673E+00
          1   -1    0    0  501    0  0.00000000000E+00  0.00000000000E+00  0.93377747183E+03  0.93377747183E+03  0.00000000000E+00 0. -1.
         -1   -1    0    0    0  501 -0.00000000000E+00 -0.00000000000E+00 -0.28753918242E+03  0.28753918242E+03  0.00000000000E+00 0.  1.
         23    2    1    2    0    0  0.26860577759E+03 -0.16571901714E+03  0.80402781626E+02  0.33839423703E+03  0.91837878738E+02 0.  0.
    5000000    2    1    2    0    0 -0.26860577759E+03  0.16571901714E+03  0.56583550778E+03  0.88292241722E+03  0.59980856660E+03 0.  0.
         23    2    4    4    0    0  0.69137619383E+02  0.22237500145E+03  0.44220589285E+03  0.50779592284E+03  0.89888797360E+02 0.  0.
         23    2    4    4    0    0 -0.33774339697E+03 -0.56655984315E+02  0.12362961493E+03  0.37512649438E+03  0.90305605285E+02 0.  0.
          3    1    3    3  502    0  0.26431774404E+03 -0.13360379035E+03  0.69520278785E+02  0.30421523922E+03  0.00000000000E+00 0. -1.
         -3    1    3    3    0  502  0.42880335421E+01 -0.32115226791E+02  0.10882502841E+02  0.34178997814E+02  0.00000000000E+00 0.  1.
         15    1    5    5    0    0  0.26210479243E+02  0.35140234114E+01  0.43158772470E+02  0.50647556238E+02  0.17770000000E+01 0.  1.
        -15    1    5    5    0    0  0.42927140140E+02  0.21886097804E+03  0.39904712038E+03  0.45714836660E+03  0.17770000000E+01 0. -1.
          1    1    6    6  503    0 -0.46951249487E+02  0.16416983504E+02  0.40060417520E+02  0.63865281864E+02  0.00000000000E+00 0. -1.
         -1    1    6    6    0  503 -0.29079214748E+03 -0.73072967818E+02  0.83569197408E+02  0.31126121252E+03  0.00000000000E+00 0.  1.
<mgrwt>
<rscale>  0 0.46383989E+03</rscale>
<asrwt>0</asrwt>
<pdfrwt beam="1">  1        1 0.14365807E+00 0.46383989E+03</pdfrwt>
<pdfrwt beam="2">  1       -1 0.44236798E-01 0.46383989E+03</pdfrwt>
<totfact> 0.90720636E+01</totfact>
</mgrwt>
</event>
<event>
12    1  0.8033771E-008  0.6439318E+03  0.7818608E-02  0.9818233E-01
         -2   -1    0    0    0  501 -0.00000000000E+00  0.00000000000E+00  0.78848474693E+03  0.78848474693E+03  0.00000000000E+00 0.  1.
          2   -1    0    0  501    0  0.00000000000E+00 -0.00000000000E+00 -0.68791634412E+03  0.68791634412E+03  0.00000000000E+00 0. -1.
         23    2    1    2    0    0 -0.28005074331E+03 -0.42372140678E+03 -0.29697075325E+03  0.59495085647E+03  0.88355214575E+02 0.  0.
    5000000    2    1    2    0    0  0.28005074331E+03  0.42372140678E+03  0.39753915606E+03  0.88145023457E+03  0.60079021799E+03 0.  0.
         23    2    4    4    0    0  0.16485876788E+03 -0.12053044385E+03  0.10492328542E+03  0.24671005967E+03  0.90282647720E+02 0.  0.
         23    2    4    4    0    0  0.11519197543E+03  0.54425185063E+03  0.29261587064E+03  0.63474017490E+03  0.88271024467E+02 0.  0.
          2    1    3    3  502    0 -0.74918868701E+02 -0.10844015690E+03 -0.12393028703E+03  0.18091661217E+03  0.00000000000E+00 0. -1.
         -2    1    3    3    0  502 -0.20513187461E+03 -0.31528124988E+03 -0.17304046621E+03  0.41403424430E+03  0.00000000000E+00 0.  1.
         15    1    5    5    0    0  0.62892336340E+02 -0.10031784866E+03  0.44769048155E+02  0.12659597992E+03  0.17770000000E+01 0. -1.
        -15    1    5    5    0    0  0.10196643154E+03 -0.20212595191E+02  0.60154237266E+02  0.12011407975E+03  0.17770000000E+01 0.  1.
          1    1    6    6  503    0  0.46643422961E+02  0.30910145529E+03  0.20852853634E+03  0.37577050049E+03  0.00000000000E+00 0. -1.
         -1    1    6    6    0  503  0.68548552470E+02  0.23515039534E+03  0.84087334296E+02  0.25896967441E+03  0.00000000000E+00 0.  1.
<mgrwt>
<rscale>  0 0.64393179E+03</rscale>
<asrwt>0</asrwt>
<pdfrwt beam="1">  1        2 0.10583328E+00 0.64393179E+03</pdfrwt>
<pdfrwt beam="2">  1       -2 0.12130535E+00 0.64393179E+03</pdfrwt>
<totfact> 0.22176524E+01</totfact>
</mgrwt>
</event>
<event>
12    1  0.8033771E-008  0.8918359E+03  0.7818608E-02  0.9435845E-01
          1   -1    0    0  501    0  0.00000000000E+00  0.00000000000E+00  0.16825129978E+04  0.16825129978E+04  0.00000000000E+00 0. -1.
         -1   -1    0    0    0  501 -0.00000000000E+00 -0.00000000000E+00 -0.54958152124E+03  0.54958152124E+03  0.00000000000E+00 0.  1.
         23    2    1    2    0    0  0.74313793966E+03  0.43917615971E+03  0.43991329912E+03  0.97292545862E+03  0.89053583125E+02 0.  0.
    5000000    2    1    2    0    0 -0.74313793966E+03 -0.43917615971E+03  0.69301817748E+03  0.12591690605E+04  0.60008568711E+03 0.  0.
         23    2    4    4    0    0 -0.92457338529E+02 -0.18406769025E+03  0.47110574148E+03  0.52022043092E+03  0.79116389247E+02 0.  0.
         23    2    4    4    0    0 -0.65068060113E+03 -0.25510846946E+03  0.22191243600E+03  0.73894862954E+03  0.91292781583E+02 0.  0.
          1    1    3    3  502    0  0.19860487657E+03  0.85347144686E+02  0.14063388169E+03  0.25788741881E+03  0.00000000000E+00 0. -1.
         -1    1    3    3    0  502  0.54453306309E+03  0.35382901502E+03  0.29927941743E+03  0.71503803980E+03  0.00000000000E+00 0.  1.
         15    1    5    5    0    0 -0.39055351819E+02 -0.15172396154E+03  0.30791477663E+03  0.34548538089E+03  0.17770000000E+01 0. -1.
        -15    1    5    5    0    0 -0.53401986710E+02 -0.32343728711E+02  0.16319096485E+03  0.17473505003E+03  0.17770000000E+01 0.  1.
          3    1    6    6  503    0 -0.56654299490E+03 -0.22568103292E+03  0.16018155245E+03  0.63052440352E+03  0.00000000000E+00 0. -1.
         -3    1    6    6    0  503 -0.84137606227E+02 -0.29427436536E+02  0.61730883554E+02  0.10842422602E+03  0.00000000000E+00 0.  1.
<mgrwt>
<rscale>  0 0.89183591E+03</rscale>
<asrwt>0</asrwt>
<pdfrwt beam="1">  1        1 0.25884815E+00 0.89183591E+03</pdfrwt>
<pdfrwt beam="2">  1       -1 0.84551004E-01 0.89183591E+03</pdfrwt>
<totfact> 0.69296482E+00</totfact>
</mgrwt>
</event>
<event>
12    1  0.8033771E-008  0.8015303E+03  0.7818608E-02  0.9557805E-01
         -2   -1    0    0    0  501 -0.00000000000E+00  0.00000000000E+00  0.44680436265E+03  0.44680436265E+03  0.00000000000E+00 0.  1.
          2   -1    0    0  501    0  0.00000000000E+00 -0.00000000000E+00 -0.17179877671E+04  0.17179877671E+04  0.00000000000E+00 0. -1.
         23    2    1    2    0    0 -0.54672597932E+03 -0.48717822285E+03 -0.85840341177E+03  0.11320197677E+04  0.91435331853E+02 0.  0.
    5000000    2    1    2    0    0  0.54672597932E+03  0.48717822285E+03 -0.41277999267E+03  0.10327723620E+04  0.59998292650E+03 0.  0.
         23    2    4    4    0    0  0.84758697102E+02 -0.83797858911E+02  0.52197449072E+02  0.15871620483E+03  0.90885323854E+02 0.  0.
         23    2    4    4    0    0  0.46196728222E+03  0.57097608177E+03 -0.46497744174E+03  0.87405615718E+03  0.91338320509E+02 0.  0.
          1    1    3    3  502    0 -0.30222978752E+03 -0.31419262755E+03 -0.46239518936E+03  0.63550701240E+03  0.00000000000E+00 0. -1.
         -1    1    3    3    0  502 -0.24449619181E+03 -0.17298559531E+03 -0.39600822241E+03  0.49651275533E+03  0.00000000000E+00 0.  1.
         15    1    5    5    0    0  0.22325594347E+02 -0.62082467806E+02  0.63552288568E+02  0.91622683234E+02  0.17770000000E+01 0.  1.
        -15    1    5    5    0    0  0.62433102755E+02 -0.21715391105E+02 -0.11354839497E+02  0.67093521591E+02  0.17770000000E+01 0. -1.
          1    1    6    6  503    0  0.11153257111E+02  0.59507321433E+01 -0.24552888329E+02  0.27616130839E+02  0.00000000000E+00 0. -1.
         -1    1    6    6    0  503  0.45081402511E+03  0.56502534962E+03 -0.44042455341E+03  0.84644002634E+03  0.00000000000E+00 0.  1.
<mgrwt>
<rscale>  0 0.80153026E+03</rscale>
<asrwt>0</asrwt>
<pdfrwt beam="1">  1        2 0.26430581E+00 0.80153026E+03</pdfrwt>
<pdfrwt beam="2">  1       -2 0.68739133E-01 0.80153026E+03</pdfrwt>
<totfact> 0.18935166E+01</totfact>
</mgrwt>
</event>
<event>
12    1  0.8033771E-008  0.7301360E+03  0.7818608E-02  0.9667040E-01
         -1   -1    0    0    0  501 -0.00000000000E+00  0.00000000000E+00  0.29956094743E+03  0.29956094743E+03  0.00000000000E+00 0.  1.
          1   -1    0    0  501    0  0.00000000000E+00 -0.00000000000E+00 -0.23127631528E+04  0.23127631528E+04  0.00000000000E+00 0. -1.
         23    2    1    2    0    0  0.69637149215E+03  0.83891617083E+02 -0.61792622089E+03  0.93936581744E+03  0.92759182982E+02 0.  0.
    5000000    2    1    2    0    0 -0.69637149215E+03 -0.83891617083E+02 -0.13952759845E+04  0.16729582828E+04  0.60001940354E+03 0.  0.
         23    2    4    4    0    0 -0.60166236207E+03  0.15975858136E+02 -0.13792189391E+04  0.15076100790E+04  0.91599357054E+02 0.  0.
         23    2    4    4    0    0 -0.94709130074E+02 -0.99867475219E+02 -0.16057045341E+02  0.16534820381E+03  0.90215674200E+02 0.  0.
          4    1    3    3  502    0  0.27576577017E+03  0.77297561059E+02 -0.23371117007E+03  0.36965197681E+03  0.00000000000E+00 0. -1.
         -4    1    3    3    0  502  0.42060572198E+03  0.65940560231E+01 -0.38421505083E+03  0.56971384064E+03  0.00000000000E+00 0.  1.
         15    1    5    5    0    0 -0.42251684588E+03  0.35309828495E+02 -0.87876909419E+03  0.97570771632E+03  0.17770000000E+01 0. -1.
        -15    1    5    5    0    0 -0.17914551619E+03 -0.19333970359E+02 -0.50044984495E+03  0.53190236268E+03  0.17770000000E+01 0.  1.
          1    1    6    6  503    0 -0.81981372868E+02 -0.46672465213E+02 -0.43811387469E+02  0.10401299043E+03  0.00000000000E+00 0. -1.
         -1    1    6    6    0  503 -0.12727757205E+02 -0.53195010006E+02  0.27754342127E+02  0.61335213376E+02  0.00000000000E+00 0.  1.
<mgrwt>
<rscale>  0 0.73013602E+03</rscale>
<asrwt>0</asrwt>
<pdfrwt beam="1">  1        1 0.35580970E+00 0.73013602E+03</pdfrwt>
<pdfrwt beam="2">  1       -1 0.46086301E-01 0.73013602E+03</pdfrwt>
<totfact> 0.90114415E+00</totfact>
</mgrwt>
</event>
<event>
12    1  0.8033771E-008  0.8333793E+03  0.7818608E-02  0.9512920E-01
          2   -1    0    0  501    0  0.00000000000E+00  0.00000000000E+00  0.28251087652E+04  0.28251087652E+04  0.00000000000E+00 0.  1.
         -2   -1    0    0    0  501 -0.00000000000E+00 -0.00000000000E+00 -0.25612567331E+03  0.25612567331E+03  0.00000000000E+00 0. -1.
         23    2    1    2    0    0 -0.41660348222E+03 -0.61341803412E+03  0.12047677291E+04  0.14166247155E+04  0.74297763611E+02 0.  0.
    5000000    2    1    2    0    0  0.41660348222E+03  0.61341803412E+03  0.13642153629E+04  0.16646097230E+04  0.60000152307E+03 0.  0.
         23    2    4    4    0    0 -0.97987239196E+02 -0.15867466291E+02  0.17950939229E+03  0.22488905825E+03  0.92185633735E+02 0.  0.
         23    2    4    4    0    0  0.51459072142E+03  0.62928550041E+03  0.11847059706E+04  0.14397206648E+04  0.91997305612E+02 0.  0.
          2    1    3    3  502    0 -0.13633746010E+03 -0.26525836843E+03  0.47591608547E+03  0.56164581852E+03  0.00000000000E+00 0. -1.
         -2    1    3    3    0  502 -0.28026602212E+03 -0.34815966568E+03  0.72885164360E+03  0.85497889702E+03  0.00000000000E+00 0.  1.
         15    1    5    5    0    0 -0.26091819586E+02  0.10861564794E+02 -0.14309071361E+01  0.28354221261E+02  0.17770000000E+01 0. -1.
        -15    1    5    5    0    0 -0.71895419610E+02 -0.26729031085E+02  0.18094029943E+03  0.19653483699E+03  0.17770000000E+01 0.  1.
          3    1    6    6  503    0  0.27565672904E+03  0.39675153094E+03  0.74430243679E+03  0.88734690340E+03  0.00000000000E+00 0. -1.
         -3    1    6    6    0  503  0.23893399238E+03  0.23253396947E+03  0.44040353380E+03  0.55237376137E+03  0.00000000000E+00 0.  1.
<mgrwt>
<rscale>  0 0.83337935E+03</rscale>
<asrwt>0</asrwt>
<pdfrwt beam="1">  1        2 0.43463210E+00 0.83337935E+03</pdfrwt>
<pdfrwt beam="2">  1       -2 0.39403952E-01 0.83337935E+03</pdfrwt>
<totfact> 0.14173026E+01</totfact>
</mgrwt>
</event>
<event>
12    1  0.8033771E-008  0.1506922E+04  0.7818608E-02  0.8879863E-01
          2   -1    0    0  501    0  0.00000000000E+00  0.00000000000E+00  0.24598043701E+04  0.24598043701E+04  0.00000000000E+00 0. -1.
         -2   -1    0    0    0  501 -0.00000000000E+00 -0.00000000000E+00 -0.10220568768E+04  0.10220568768E+04  0.00000000000E+00 0.  1.
         23    2    1    2    0    0 -0.12686027737E+04 -0.80296235459E+03  0.38555803560E+03  0.15527846735E+04  0.91562565346E+02 0.  0.
    5000000    2    1    2    0    0  0.12686027737E+04  0.80296235459E+03  0.10521894577E+04  0.19290765733E+04  0.60011018199E+03 0.  0.
         23    2    4    4    0    0  0.10022641791E+04  0.61999507456E+03  0.50108535607E+03  0.12836814203E+04  0.88453815552E+02 0.  0.
         23    2    4    4    0    0  0.26633859451E+03  0.18296728003E+03  0.55110410161E+03  0.64539515298E+03  0.91683696434E+02 0.  0.
          2    1    3    3  502    0 -0.49167777997E+03 -0.31620683276E+03  0.19616439867E+03  0.61661517310E+03  0.00000000000E+00 0. -1.
         -2    1    3    3    0  502 -0.77692499368E+03 -0.48675552183E+03  0.18939363693E+03  0.93616950044E+03  0.00000000000E+00 0.  1.
         15    1    5    5    0    0  0.34324328223E+03  0.17501458560E+03  0.13481034734E+03  0.40819485966E+03  0.17770000000E+01 0.  1.
        -15    1    5    5    0    0  0.65902089691E+03  0.44498048896E+03  0.36627500874E+03  0.87548656065E+03  0.17770000000E+01 0. -1.
          4    1    6    6  503    0  0.54701355656E+02  0.79238165573E+02  0.20718235039E+03  0.22846323885E+03  0.00000000000E+00 0. -1.
         -4    1    6    6    0  503  0.21163723885E+03  0.10372911445E+03  0.34392175122E+03  0.41693191413E+03  0.00000000000E+00 0.  1.
<mgrwt>
<rscale>  0 0.15069220E+04</rscale>
<asrwt>0</asrwt>
<pdfrwt beam="1">  1        2 0.37843144E+00 0.15069220E+04</pdfrwt>
<pdfrwt beam="2">  1       -2 0.15723952E+00 0.15069220E+04</pdfrwt>
<totfact> 0.91471661E-01</totfact>
</mgrwt>
</event>
<event>
12    1  0.8033771E-008  0.6741484E+03  0.7818608E-02  0.9762493E-01
          1   -1    0    0  501    0  0.00000000000E+00  0.00000000000E+00  0.19432181975E+04  0.19432181975E+04  0.00000000000E+00 0. -1.
         -1   -1    0    0    0  501 -0.00000000000E+00 -0.00000000000E+00 -0.25800431861E+03  0.25800431861E+03  0.00000000000E+00 0.  1.
         23    2    1    2    0    0 -0.35975446762E+03 -0.45082810758E+03  0.69895334877E+03  0.91075855263E+03  0.90973061257E+02 0.  0.
    5000000    2    1    2    0    0  0.35975446762E+03  0.45082810758E+03  0.98626053012E+03  0.12904639635E+04  0.59993178629E+03 0.  0.
         23    2    4    4    0    0 -0.10103300667E+03  0.12514166562E+02  0.39335209396E+03  0.41625868437E+03  0.90449708070E+02 0.  0.
         23    2    4    4    0    0  0.46078747429E+03  0.43831394102E+03  0.59290843616E+03  0.87420527910E+03  0.90830881228E+02 0.  0.
          2    1    3    3  502    0 -0.30811742004E+03 -0.35601110777E+03  0.51765881534E+03  0.69975060020E+03  0.00000000000E+00 0. -1.
         -2    1    3    3    0  502 -0.51637047587E+02 -0.94816999813E+02  0.18129453342E+03  0.21100795243E+03  0.00000000000E+00 0.  1.
         15    1    5    5    0    0 -0.13627684555E+02 -0.27757359946E+02  0.43453319701E+02  0.53362285742E+02  0.17770000000E+01 0.  1.
        -15    1    5    5    0    0 -0.87405322118E+02  0.40271526508E+02  0.34989877426E+03  0.36289639863E+03  0.17770000000E+01 0. -1.
          1    1    6    6  503    0  0.10517369275E+03  0.52420727757E+02  0.11556412771E+03  0.16481658278E+03  0.00000000000E+00 0. -1.
         -1    1    6    6    0  503  0.35561378155E+03  0.38589321326E+03  0.47734430845E+03  0.70938869633E+03  0.00000000000E+00 0.  1.
<mgrwt>
<rscale>  0 0.67414836E+03</rscale>
<asrwt>0</asrwt>
<pdfrwt beam="1">  1        1 0.29895664E+00 0.67414836E+03</pdfrwt>
<pdfrwt beam="2">  1       -1 0.39692973E-01 0.67414836E+03</pdfrwt>
<totfact> 0.21150758E+01</totfact>
</mgrwt>
</event>
<event>
12    1  0.8033771E-008  0.8477563E+03  0.7818608E-02  0.9493353E-01
         -2   -1    0    0    0  501 -0.00000000000E+00  0.00000000000E+00  0.13766206296E+04  0.13766206296E+04  0.00000000000E+00 0.  1.
          2   -1    0    0  501    0  0.00000000000E+00 -0.00000000000E+00 -0.67560711189E+03  0.67560711189E+03  0.00000000000E+00 0. -1.
         23    2    1    2    0    0 -0.19329432298E+03  0.73480988374E+03 -0.13015163529E+03  0.77620205167E+03  0.90785000450E+02 0.  0.
    5000000    2    1    2    0    0  0.19329432298E+03 -0.73480988374E+03  0.83116515296E+03  0.12760256898E+04  0.60008148528E+03 0.  0.
         23    2    4    4    0    0 -0.17138372591E+03 -0.28911737140E+03  0.15334419739E+03  0.38193167989E+03  0.96933633364E+02 0.  0.
         23    2    4    4    0    0  0.36467804889E+03 -0.44569251234E+03  0.67782095558E+03  0.89409400991E+03  0.91274069864E+02 0.  0.
          4    1    3    3  502    0 -0.42636796095E+02  0.33301121527E+03 -0.45197912863E+02  0.33875834632E+03  0.00000000000E+00 0. -1.
         -4    1    3    3    0  502 -0.15065752688E+03  0.40179866847E+03 -0.84953722429E+02  0.43744370534E+03  0.00000000000E+00 0.  1.
         15    1    5    5    0    0 -0.84571919054E+02 -0.57165078064E+02  0.47012020422E+02  0.11239903663E+03  0.17770000000E+01 0. -1.
        -15    1    5    5    0    0 -0.86811806859E+02 -0.23195229333E+03  0.10633217696E+03  0.26953264325E+03  0.17770000000E+01 0.  1.
          3    1    6    6  503    0  0.30605314610E+03 -0.32326899881E+03  0.48549874708E+03  0.65869599000E+03  0.00000000000E+00 0. -1.
         -3    1    6    6    0  503  0.58624902788E+02 -0.12242351353E+03  0.19232220850E+03  0.23539801990E+03  0.00000000000E+00 0.  1.
<mgrwt>
<rscale>  0 0.84775632E+03</rscale>
<asrwt>0</asrwt>
<pdfrwt beam="1">  1        2 0.10393956E+00 0.84775632E+03</pdfrwt>
<pdfrwt beam="2">  1       -2 0.21178779E+00 0.84775632E+03</pdfrwt>
<totfact> 0.48286346E+00</totfact>
</mgrwt>
</event>
<event>
12    1  0.8033771E-008  0.6475810E+03  0.7818608E-02  0.9811329E-01
         -2   -1    0    0    0  501 -0.00000000000E+00  0.00000000000E+00  0.60009551285E+03  0.60009551285E+03  0.00000000000E+00 0.  1.
          2   -1    0    0  501    0  0.00000000000E+00 -0.00000000000E+00 -0.85453355176E+03  0.85453355176E+03  0.00000000000E+00 0. -1.
         23    2    1    2    0    0  0.50332558790E+03 -0.29997243173E+03 -0.12862002251E+03  0.60660507548E+03  0.90036104842E+02 0.  0.
    5000000    2    1    2    0    0 -0.50332558790E+03  0.29997243173E+03 -0.12581801640E+03  0.84802398913E+03  0.59999533803E+03 0.  0.
         23    2    4    4    0    0 -0.10281538446E+03 -0.83357342198E+02 -0.22864520871E+03  0.27694801700E+03  0.83079015868E+02 0.  0.
         23    2    4    4    0    0 -0.40051020344E+03  0.38332977393E+03  0.10282719231E+03  0.57107597212E+03  0.90577015955E+02 0.  0.
          2    1    3    3  502    0  0.12509925161E+03 -0.12038489484E+03 -0.26401160307E+02  0.17561140887E+03  0.00000000000E+00 0. -1.
         -2    1    3    3    0  502  0.37822633629E+03 -0.17958753689E+03 -0.10221886221E+03  0.43099366661E+03  0.00000000000E+00 0.  1.
         15    1    5    5    0    0 -0.41571871497E+02 -0.73586577398E+02 -0.17726941492E+03  0.19639452148E+03  0.17770000000E+01 0.  1.
        -15    1    5    5    0    0 -0.61243512959E+02 -0.97707647993E+01 -0.51375793788E+02  0.80553495521E+02  0.17770000000E+01 0. -1.
          4    1    6    6  503    0 -0.12199326062E+03  0.88678165139E+02  0.63773770871E+02  0.16374756932E+03  0.00000000000E+00 0. -1.
         -4    1    6    6    0  503 -0.27851694282E+03  0.29465160879E+03  0.39053421442E+02  0.40732840280E+03  0.00000000000E+00 0.  1.
<mgrwt>
<rscale>  0 0.64758101E+03</rscale>
<asrwt>0</asrwt>
<pdfrwt beam="1">  1        2 0.13146670E+00 0.64758101E+03</pdfrwt>
<pdfrwt beam="2">  1       -2 0.92322386E-01 0.64758101E+03</pdfrwt>
<totfact> 0.32165308E+01</totfact>
</mgrwt>
</event>
<event>
12    1  0.8033771E-008  0.1187945E+04  0.7818608E-02  0.9123474E-01
         -1   -1    0    0    0  501 -0.00000000000E+00  0.00000000000E+00  0.67493480605E+03  0.67493480605E+03  0.00000000000E+00 0.  1.
          1   -1    0    0  501    0  0.00000000000E+00 -0.00000000000E+00 -0.22992339317E+04  0.22992339317E+04  0.00000000000E+00 0. -1.
         23    2    1    2    0    0 -0.97915248953E+03 -0.64256871235E+03 -0.72633523707E+03  0.13810766028E+04  0.90418794682E+02 0.  0.
    5000000    2    1    2    0    0  0.97915248953E+03  0.64256871235E+03 -0.89796388857E+03  0.15930921349E+04  0.59997438054E+03 0.  0.
         23    2    4    4    0    0  0.13344882854E+03  0.26922351831E+02  0.56714528119E+02  0.17387050063E+03  0.92092401541E+02 0.  0.
         23    2    4    4    0    0  0.84570366099E+03  0.61564636052E+03 -0.95467841669E+03  0.14192216343E+04  0.92434000816E+02 0.  0.
          3    1    3    3  502    0 -0.90444422540E+03 -0.59423646913E+03 -0.64095666779E+03  0.12577606243E+04  0.00000000000E+00 0. -1.
         -3    1    3    3    0  502 -0.74708264132E+02 -0.48332243222E+02 -0.85378569279E+02  0.12331597851E+03  0.00000000000E+00 0.  1.
         15    1    5    5    0    0  0.87621384230E+02  0.55416040380E+02  0.59964076793E+02  0.11978018509E+03  0.17770000000E+01 0.  1.
        -15    1    5    5    0    0  0.45827444311E+02 -0.28493688550E+02 -0.32495486734E+01  0.54090315536E+02  0.17770000000E+01 0. -1.
          4    1    6    6  503    0  0.18010758100E+02  0.57409050980E+01 -0.48982302572E+01  0.19527879002E+02  0.00000000000E+00 0. -1.
         -4    1    6    6    0  503  0.82769290289E+03  0.60990545542E+03 -0.94978018643E+03  0.13996937553E+04  0.00000000000E+00 0.  1.
<mgrwt>
<rscale>  0 0.11879452E+04</rscale>
<asrwt>0</asrwt>
<pdfrwt beam="1">  1        1 0.35372831E+00 0.11879452E+04</pdfrwt>
<pdfrwt beam="2">  1       -1 0.10383612E+00 0.11879452E+04</pdfrwt>
<totfact> 0.16111145E+00</totfact>
</mgrwt>
</event>
<event>
12    1  0.8033771E-008  0.7287759E+03  0.7818608E-02  0.9669249E-01
          2   -1    0    0  501    0  0.00000000000E+00  0.00000000000E+00  0.26315557347E+03  0.26315557347E+03  0.00000000000E+00 0.  1.
         -2   -1    0    0    0  501 -0.00000000000E+00 -0.00000000000E+00 -0.30378547046E+04  0.30378547046E+04  0.00000000000E+00 0. -1.
         23    2    1    2    0    0 -0.62560399539E+03  0.36283086297E+03 -0.64632350035E+03  0.97444847265E+03  0.93750544462E+02 0.  0.
    5000000    2    1    2    0    0  0.62560399539E+03 -0.36283086297E+03 -0.21283756308E+04  0.23265618054E+04  0.59990033717E+03 0.  0.
         23    2    4    4    0    0  0.35239896404E+03 -0.16253359492E+03 -0.18119357257E+04  0.18553478671E+04  0.92749310705E+02 0.  0.
         23    2    4    4    0    0  0.27320503135E+03 -0.20029726805E+03 -0.31643990517E+03  0.47121393837E+03  0.84548077389E+02 0.  0.
          1    1    3    3  502    0 -0.30966140779E+02  0.19470532449E+02 -0.65797963145E+02  0.75281973025E+02  0.00000000000E+00 0. -1.
         -1    1    3    3    0  502 -0.59463785461E+03  0.34336033052E+03 -0.58052553720E+03  0.89916649963E+03  0.00000000000E+00 0.  1.
         15    1    5    5    0    0  0.22339853815E+03 -0.67752178432E+02 -0.91987430315E+03  0.94903590862E+03  0.17770000000E+01 0. -1.
        -15    1    5    5    0    0  0.12900042589E+03 -0.94781416490E+02 -0.89206142250E+03  0.90631195845E+03  0.17770000000E+01 0.  1.
          3    1    6    6  503    0  0.14939296906E+03 -0.86564242632E+02 -0.21150981013E+03  0.27303484592E+03  0.00000000000E+00 0. -1.
         -3    1    6    6    0  503  0.12381206229E+03 -0.11373302542E+03 -0.10493009504E+03  0.19817909245E+03  0.00000000000E+00 0.  1.
<mgrwt>
<rscale>  0 0.72877588E+03</rscale>
<asrwt>0</asrwt>
<pdfrwt beam="1">  1        2 0.40485474E-01 0.72877588E+03</pdfrwt>
<pdfrwt beam="2">  1       -2 0.46736225E+00 0.72877588E+03</pdfrwt>
<totfact> 0.36170483E-01</totfact>
</mgrwt>
</event>
<event>
12    1  0.8033771E-008  0.1018612E+04  0.7818608E-02  0.9288364E-01
          1   -1    0    0  501    0  0.00000000000E+00  0.00000000000E+00  0.12026867175E+04  0.12026867175E+04  0.00000000000E+00 0. -1.
         -1   -1    0    0    0  501 -0.00000000000E+00 -0.00000000000E+00 -0.92550143620E+03  0.92550143620E+03  0.00000000000E+00 0.  1.
         23    2    1    2    0    0  0.89511976520E+03 -0.36686418182E+03  0.13682811054E+03  0.98132288865E+03  0.91891011551E+02 0.  0.
    5000000    2    1    2    0    0 -0.89511976520E+03  0.36686418182E+03  0.14035717076E+03  0.11468652650E+04  0.59980920201E+03 0.  0.
         23    2    4    4    0    0 -0.32603985158E+03  0.35908505254E+03  0.26129396249E+03  0.55858277269E+03  0.92174396345E+02 0.  0.
         23    2    4    4    0    0 -0.56907991362E+03  0.77791292806E+01 -0.12093679173E+03  0.58828249235E+03  0.86822348884E+02 0.  0.
          1    1    3    3  502    0  0.46625352601E+03 -0.23847335669E+03  0.60368330256E+02  0.52716812087E+03  0.00000000000E+00 0. -1.
         -1    1    3    3    0  502  0.42886623920E+03 -0.12839082513E+03  0.76459780280E+02  0.45415476779E+03  0.00000000000E+00 0.  1.
         15    1    5    5    0    0 -0.12111886056E+03  0.77683223190E+02  0.55795104536E+02  0.15433960272E+03  0.17770000000E+01 0.  1.
        -15    1    5    5    0    0 -0.20492099102E+03  0.28140182935E+03  0.20549885795E+03  0.40424316998E+03  0.17770000000E+01 0. -1.
          4    1    6    6  503    0 -0.15979169049E+03 -0.30803025715E+02 -0.55901398509E+02  0.17206736210E+03  0.00000000000E+00 0. -1.
         -4    1    6    6    0  503 -0.40928822313E+03  0.38582154995E+02 -0.65035393219E+02  0.41621513025E+03  0.00000000000E+00 0.  1.
<mgrwt>
<rscale>  0 0.10186116E+04</rscale>
<asrwt>0</asrwt>
<pdfrwt beam="1">  1        1 0.18502873E+00 0.10186116E+04</pdfrwt>
<pdfrwt beam="2">  1       -1 0.14238484E+00 0.10186116E+04</pdfrwt>
<totfact> 0.42698589E+00</totfact>
</mgrwt>
</event>
<event>
12    1  0.8033771E-008  0.8136793E+03  0.7818608E-02  0.9540425E-01
          2   -1    0    0  501    0  0.00000000000E+00  0.00000000000E+00  0.85579459111E+03  0.85579459111E+03  0.00000000000E+00 0. -1.
         -2   -1    0    0    0  501 -0.00000000000E+00 -0.00000000000E+00 -0.78350652952E+03  0.78350652952E+03  0.00000000000E+00 0.  1.
         23    2    1    2    0    0 -0.70179642451E+03 -0.52995363453E+02  0.78285626533E+02  0.71447185683E+03  0.94945589044E+02 0.  0.
    5000000    2    1    2    0    0  0.70179642451E+03  0.52995363453E+02 -0.59975649379E+01  0.92482926380E+03  0.59995538699E+03 0.  0.
         23    2    4    4    0    0  0.67832448828E+03  0.22796987105E+03  0.34026380687E+02  0.72225641082E+03  0.91663269010E+02 0.  0.
         23    2    4    4    0    0  0.23471936232E+02 -0.17497450759E+03 -0.40023945624E+02  0.20257285297E+03  0.90922133945E+02 0.  0.
          1    1    3    3  502    0 -0.47633778179E+03 -0.71092465299E+02  0.80397699684E+02  0.48827821075E+03  0.00000000000E+00 0. -1.
         -1    1    3    3    0  502 -0.22545864273E+03  0.18097101846E+02 -0.21120731503E+01  0.22619364608E+03  0.00000000000E+00 0.  1.
         15    1    5    5    0    0  0.38115322243E+03  0.81945489769E+02  0.31428564022E+02  0.39113137771E+03  0.17770000000E+01 0.  1.
        -15    1    5    5    0    0  0.29717126585E+03  0.14602438128E+03  0.25978166642E+01  0.33112503311E+03  0.17770000000E+01 0. -1.
          2    1    6    6  503    0 -0.15697045489E+02  0.33106903245E+01 -0.32525183069E+01  0.16368774629E+02  0.00000000000E+00 0. -1.
         -2    1    6    6    0  503  0.39168981722E+02 -0.17828519792E+03 -0.36771427318E+02  0.18620407835E+03  0.00000000000E+00 0.  1.
<mgrwt>
<rscale>  0 0.81367930E+03</rscale>
<asrwt>0</asrwt>
<pdfrwt beam="1">  1        2 0.13166071E+00 0.81367930E+03</pdfrwt>
<pdfrwt beam="2">  1       -2 0.12053947E+00 0.81367930E+03</pdfrwt>
<totfact> 0.16658609E+01</totfact>
</mgrwt>
</event>
<event>
12    1  0.8033771E-008  0.9767678E+03  0.7818608E-02  0.9334399E-01
          2   -1    0    0  501    0  0.00000000000E+00  0.00000000000E+00  0.27015978446E+04  0.27015978446E+04  0.00000000000E+00 0. -1.
         -2   -1    0    0    0  501 -0.00000000000E+00 -0.00000000000E+00 -0.49339880327E+03  0.49339880327E+03  0.00000000000E+00 0.  1.
         23    2    1    2    0    0  0.32373911674E+03  0.84695728613E+03  0.18280473399E+04  0.20432241215E+04  0.10423086752E+03 0.  0.
    5000000    2    1    2    0    0 -0.32373911674E+03 -0.84695728613E+03  0.38015170142E+03  0.11517725263E+04  0.59993414310E+03 0.  0.
         23    2    4    4    0    0 -0.46047404246E+03 -0.58075173424E+03  0.14635588658E+03  0.76134026041E+03  0.94392934016E+02 0.  0.
         23    2    4    4    0    0  0.13673492572E+03 -0.26620555189E+03  0.23379581484E+03  0.39043226590E+03  0.90636832765E+02 0.  0.
          4    1    3    3  502    0  0.10568119577E+02  0.80458051368E+02  0.11733726512E+03  0.14266470119E+03  0.00000000000E+00 0. -1.
         -4    1    3    3    0  502  0.31317099716E+03  0.76649923476E+03  0.17107100748E+04  0.19005594204E+04  0.00000000000E+00 0.  1.
         15    1    5    5    0    0 -0.12631421308E+03 -0.21756418650E+03  0.76082799880E+02  0.26283303796E+03  0.17770000000E+01 0.  1.
        -15    1    5    5    0    0 -0.33415982937E+03 -0.36318754774E+03  0.70273086704E+02  0.49850722246E+03  0.17770000000E+01 0. -1.
          3    1    6    6  503    0  0.12125812015E+03 -0.23622263249E+03  0.23781029501E+03  0.35645252169E+03  0.00000000000E+00 0. -1.
         -3    1    6    6    0  503  0.15476805565E+02 -0.29982919398E+02 -0.40144801667E+01  0.33979744218E+02  0.00000000000E+00 0.  1.
<mgrwt>
<rscale>  0 0.97676775E+03</rscale>
<asrwt>0</asrwt>
<pdfrwt beam="1">  1        2 0.41563043E+00 0.97676775E+03</pdfrwt>
<pdfrwt beam="2">  1       -2 0.75907509E-01 0.97676775E+03</pdfrwt>
<totfact> 0.41937158E+00</totfact>
</mgrwt>
</event>
<event>
12    1  0.8033771E-008  0.7351107E+03  0.7818608E-02  0.9659003E-01
         -2   -1    0    0    0  501 -0.00000000000E+00  0.00000000000E+00  0.26908692421E+03  0.26908692421E+03  0.00000000000E+00 0.  1.
          2   -1    0    0  501    0  0.00000000000E+00 -0.00000000000E+00 -0.21075860140E+04  0.21075860140E+04  0.00000000000E+00 0. -1.
         23    2    1    2    0    0  0.58877398227E+03 -0.19037124712E+03 -0.59278392276E+03  0.86183648950E+03  0.92050755738E+02 0.  0.
    5000000    2    1    2    0    0 -0.58877398227E+03  0.19037124712E+03 -0.12457151670E+04  0.15148364487E+04  0.60002264540E+03 0.  0.
         23    2    4    4    0    0 -0.17305040032E+03  0.35563753554E+03 -0.60370328475E+03  0.72718356170E+03  0.88959421340E+02 0.  0.
         23    2    4    4    0    0 -0.41572358195E+03 -0.16526628842E+03 -0.64201188224E+03  0.78765288696E+03  0.89881982244E+02 0.  0.
          1    1    3    3  502    0  0.52139101467E+02 -0.33900398753E+02 -0.93776430810E+02  0.11252440585E+03  0.00000000000E+00 0. -1.
         -1    1    3    3    0  502  0.53663488080E+03 -0.15647084836E+03 -0.49900749195E+03  0.74931208365E+03  0.00000000000E+00 0.  1.
         15    1    5    5    0    0 -0.15402531437E+03  0.27471027149E+03 -0.52764291386E+03  0.61449144259E+03  0.17770000000E+01 0. -1.
        -15    1    5    5    0    0 -0.19025085951E+02  0.80927264042E+02 -0.76060370890E+02  0.11269211911E+03  0.17770000000E+01 0.  1.
          4    1    6    6  503    0 -0.16737025043E+03 -0.96727334288E+02 -0.21669428152E+03  0.29038834269E+03  0.00000000000E+00 0. -1.
         -4    1    6    6    0  503 -0.24835333151E+03 -0.68538954132E+02 -0.42531760072E+03  0.49726454427E+03  0.00000000000E+00 0.  1.
<mgrwt>
<rscale>  0 0.73511069E+03</rscale>
<asrwt>0</asrwt>
<pdfrwt beam="1">  1        2 0.32424399E+00 0.73511069E+03</pdfrwt>
<pdfrwt beam="2">  1       -2 0.41397990E-01 0.73511069E+03</pdfrwt>
<totfact> 0.33331306E+01</totfact>
</mgrwt>
</event>
<event>
12    1  0.8033771E-008  0.4820688E+03  0.7818608E-02  0.1018568E+00
          1   -1    0    0  501    0  0.00000000000E+00  0.00000000000E+00  0.87450561128E+03  0.87450561128E+03  0.00000000000E+00 0. -1.
         -1   -1    0    0    0  501 -0.00000000000E+00 -0.00000000000E+00 -0.39631393612E+03  0.39631393612E+03  0.00000000000E+00 0.  1.
         23    2    1    2    0    0  0.36402788668E+03 -0.17941090048E+03  0.33076483916E+03  0.53151909897E+03  0.91665698364E+02 0.  0.
    5000000    2    1    2    0    0 -0.36402788668E+03  0.17941090048E+03  0.14742683600E+03  0.73930044842E+03  0.60010491380E+03 0.  0.
         23    2    4    4    0    0 -0.12845551191E+03  0.24780162439E+03  0.31339825240E+03  0.42937782124E+03  0.90776567339E+02 0.  0.
         23    2    4    4    0    0 -0.23557237478E+03 -0.68390723914E+02 -0.16597141639E+03  0.30992262718E+03  0.91290135852E+02 0.  0.
          1    1    3    3  502    0  0.98051536747E+02 -0.74676079998E+02  0.57282175774E+02  0.13591125209E+03  0.00000000000E+00 0. -1.
         -1    1    3    3    0  502  0.26597634994E+03 -0.10473482048E+03  0.27348266339E+03  0.39560784689E+03  0.00000000000E+00 0.  1.
         15    1    5    5    0    0 -0.70058989064E+02  0.47528765835E+02  0.97919326722E+02  0.12945500301E+03  0.17770000000E+01 0.  1.
        -15    1    5    5    0    0 -0.58396522841E+02  0.20027285855E+03  0.21547892568E+03  0.29992281823E+03  0.17770000000E+01 0. -1.
          3    1    6    6  503    0 -0.72628743536E+02 -0.66958100363E+02 -0.63142009338E+02  0.11724007393E+03  0.00000000000E+00 0. -1.
         -3    1    6    6    0  503 -0.16294363124E+03 -0.14326235517E+01 -0.10282940706E+03  0.19268255325E+03  0.00000000000E+00 0.  1.
<mgrwt>
<rscale>  0 0.48206883E+03</rscale>
<asrwt>0</asrwt>
<pdfrwt beam="1">  1        1 0.13453932E+00 0.48206883E+03</pdfrwt>
<pdfrwt beam="2">  1       -1 0.60971375E-01 0.48206883E+03</pdfrwt>
<totfact> 0.54981006E+01</totfact>
</mgrwt>
</event>
<event>
12    1  0.8033771E-008  0.5189472E+03  0.7818608E-02  0.1008948E+00
         -2   -1    0    0    0  501 -0.00000000000E+00  0.00000000000E+00  0.30838537161E+03  0.30838537161E+03  0.00000000000E+00 0.  1.
          2   -1    0    0  501    0  0.00000000000E+00 -0.00000000000E+00 -0.26380548439E+04  0.26380548439E+04  0.00000000000E+00 0. -1.
         23    2    1    2    0    0  0.10895366963E+03 -0.36635202252E+03 -0.21853554813E+04  0.22204042420E+04  0.91278211340E+02 0.  0.
    5000000    2    1    2    0    0 -0.10895366963E+03  0.36635202252E+03 -0.14431399095E+03  0.72603597343E+03  0.60018080626E+03 0.  0.
         23    2    4    4    0    0  0.35246605046E+01 -0.13475305521E+03  0.46802496982E+02  0.17024245376E+03  0.92850472357E+02 0.  0.
         23    2    4    4    0    0 -0.11247833014E+03  0.50110507773E+03 -0.19111648794E+03  0.55579351967E+03  0.92861460648E+02 0.  0.
          3    1    3    3  502    0  0.39162114763E+02 -0.24592277049E+03 -0.15595644754E+04  0.15793204340E+04  0.00000000000E+00 0. -1.
         -3    1    3    3    0  502  0.69791554868E+02 -0.12042925203E+03 -0.62579100590E+03  0.64108380805E+03  0.00000000000E+00 0.  1.
         15    1    5    5    0    0  0.41189045436E+00 -0.82986250668E+02  0.74400090768E+02  0.11146936211E+03  0.17770000000E+01 0. -1.
        -15    1    5    5    0    0  0.31127700503E+01 -0.51766804546E+02 -0.27597593786E+02  0.58773091650E+02  0.17770000000E+01 0.  1.
          2    1    6    6  503    0 -0.11452598883E+03  0.47546801632E+03 -0.15819135676E+03  0.51401414573E+03  0.00000000000E+00 0. -1.
         -2    1    6    6    0  503  0.20476586911E+01  0.25637061411E+02 -0.32925131179E+02  0.41779373943E+02  0.00000000000E+00 0.  1.
<mgrwt>
<rscale>  0 0.51894722E+03</rscale>
<asrwt>0</asrwt>
<pdfrwt beam="1">  1        2 0.40585459E+00 0.51894722E+03</pdfrwt>
<pdfrwt beam="2">  1       -2 0.47443903E-01 0.51894722E+03</pdfrwt>
<totfact> 0.13398707E+01</totfact>
</mgrwt>
</event>
<event>
12    1  0.8033771E-008  0.6322532E+03  0.7818608E-02  0.9840662E-01
         -1   -1    0    0    0  501 -0.00000000000E+00  0.00000000000E+00  0.34947547207E+03  0.34947547207E+03  0.00000000000E+00 0.  1.
          1   -1    0    0  501    0  0.00000000000E+00 -0.00000000000E+00 -0.13891681068E+04  0.13891681068E+04  0.00000000000E+00 0. -1.
         23    2    1    2    0    0  0.49526821208E+03  0.17497743579E+03 -0.17120139552E+03  0.55955946578E+03  0.88821016532E+02 0.  0.
    5000000    2    1    2    0    0 -0.49526821208E+03 -0.17497743579E+03 -0.86849123918E+03  0.11790841131E+04  0.60004550509E+03 0.  0.
         23    2    4    4    0    0 -0.18397940454E+03 -0.33061367664E+03 -0.64897023305E+03  0.75816144947E+03  0.10243337150E+03 0.  0.
         23    2    4    4    0    0 -0.31128880754E+03  0.15563624084E+03 -0.21952100613E+03  0.42092266358E+03  0.88673871138E+02 0.  0.
          1    1    3    3  502    0  0.22607079070E+03  0.90171613725E+02 -0.12483209155E+03  0.27353605505E+03  0.00000000000E+00 0. -1.
         -1    1    3    3    0  502  0.26919742138E+03  0.84805822070E+02 -0.46369303964E+02  0.28602341073E+03  0.00000000000E+00 0.  1.
         15    1    5    5    0    0 -0.14967580619E+03 -0.18264846431E+03 -0.34124599338E+03  0.41498830610E+03  0.17770000000E+01 0. -1.
        -15    1    5    5    0    0 -0.34303598355E+02 -0.14796521232E+03 -0.30772423967E+03  0.34317314336E+03  0.17770000000E+01 0.  1.
          1    1    6    6  503    0 -0.19858899374E+03  0.75127053983E+02 -0.17587491435E+03  0.27570572750E+03  0.00000000000E+00 0. -1.
         -1    1    6    6    0  503 -0.11269981380E+03  0.80509186860E+02 -0.43646091774E+02  0.14521693608E+03  0.00000000000E+00 0.  1.
<mgrwt>
<rscale>  0 0.63225324E+03</rscale>
<asrwt>0</asrwt>
<pdfrwt beam="1">  1        1 0.21371817E+00 0.63225324E+03</pdfrwt>
<pdfrwt beam="2">  1       -1 0.53765457E-01 0.63225324E+03</pdfrwt>
<totfact> 0.28591615E+01</totfact>
</mgrwt>
</event>
<event>
12    1  0.8033771E-008  0.1051343E+04  0.7818608E-02  0.9253959E-01
          2   -1    0    0  501    0  0.00000000000E+00  0.00000000000E+00  0.19912878373E+04  0.19912878373E+04  0.00000000000E+00 0. -1.
         -2   -1    0    0    0  501 -0.00000000000E+00 -0.00000000000E+00 -0.67709754386E+03  0.67709754386E+03  0.00000000000E+00 0.  1.
         23    2    1    2    0    0  0.62454952699E+03 -0.78205430105E+03  0.10856853766E+04  0.14792944468E+04  0.89040900084E+02 0.  0.
    5000000    2    1    2    0    0 -0.62454952699E+03  0.78205430105E+03  0.22850491686E+03  0.11890909344E+04  0.60004309155E+03 0.  0.
         23    2    4    4    0    0  0.50073386532E+02  0.19935013675E+03  0.18627722080E+03  0.29203705354E+03  0.91316025920E+02 0.  0.
         23    2    4    4    0    0 -0.67462291353E+03  0.58270416430E+03  0.42227696059E+02  0.89705388084E+03  0.90897020078E+02 0.  0.
          1    1    3    3  502    0  0.34908100739E+03 -0.44270212417E+03  0.67583962944E+03  0.88011472274E+03  0.00000000000E+00 0. -1.
         -1    1    3    3    0  502  0.27546851960E+03 -0.33935217688E+03  0.40984574713E+03  0.59917972403E+03  0.00000000000E+00 0.  1.
         15    1    5    5    0    0  0.46331914408E+02  0.16993147839E+03  0.10398603365E+03  0.20454732109E+03  0.17770000000E+01 0. -1.
        -15    1    5    5    0    0  0.37414721235E+01  0.29418658360E+02  0.82291187145E+02  0.87489732449E+02  0.17770000000E+01 0.  1.
          1    1    6    6  503    0 -0.34808341091E+03  0.35973452940E+03  0.17428147491E+02  0.50087396909E+03  0.00000000000E+00 0. -1.
         -1    1    6    6    0  503 -0.32653950262E+03  0.22296963491E+03  0.24799548568E+02  0.39617991174E+03  0.00000000000E+00 0.  1.
<mgrwt>
<rscale>  0 0.10513429E+04</rscale>
<asrwt>0</asrwt>
<pdfrwt beam="1">  1        2 0.30635197E+00 0.10513429E+04</pdfrwt>
<pdfrwt beam="2">  1       -2 0.10416885E+00 0.10513429E+04</pdfrwt>
<totfact> 0.50315974E+00</totfact>
</mgrwt>
</event>
<event>
12    1  0.8033771E-008  0.6339838E+03  0.7818608E-02  0.9837305E-01
         -3   -1    0    0    0  501 -0.00000000000E+00  0.00000000000E+00  0.54716517393E+03  0.54716517393E+03  0.00000000000E+00 0.  1.
          3   -1    0    0  501    0  0.00000000000E+00 -0.00000000000E+00 -0.15585722030E+04  0.15585722030E+04  0.00000000000E+00 0. -1.
         23    2    1    2    0    0  0.13427751028E+03  0.56511080387E+03  0.21178164651E+03  0.62468147755E+03  0.89413713597E+02 0.  0.
    5000000    2    1    2    0    0 -0.13427751028E+03 -0.56511080387E+03 -0.12231886756E+04  0.14810558994E+04  0.59996280773E+03 0.  0.
         23    2    4    4    0    0 -0.22787956820E+03 -0.29940988976E+03 -0.24347823418E+03  0.45743876084E+03  0.91614353207E+02 0.  0.
         23    2    4    4    0    0  0.93602057916E+02 -0.26570091411E+03 -0.97971044144E+03  0.10236171386E+04  0.92742527152E+02 0.  0.
          1    1    3    3  502    0  0.34893059268E+02  0.33761725044E+03  0.12004667945E+03  0.36001963645E+03  0.00000000000E+00 0. -1.
         -1    1    3    3    0  502  0.99384451015E+02  0.22749355343E+03  0.91734967060E+02  0.26466184110E+03  0.00000000000E+00 0.  1.
         15    1    5    5    0    0 -0.94821068077E+02 -0.19846054648E+03 -0.14687230471E+03  0.26448488630E+03  0.17770000000E+01 0. -1.
        -15    1    5    5    0    0 -0.13305850012E+03 -0.10094934327E+03 -0.96605929470E+02  0.19295387454E+03  0.17770000000E+01 0.  1.
          1    1    6    6  503    0  0.13908814757E+01 -0.12548468685E+03 -0.34572661051E+03  0.36779781184E+03  0.00000000000E+00 0. -1.
         -1    1    6    6    0  503  0.92211176440E+02 -0.14021622726E+03 -0.63398383094E+03  0.65581932675E+03  0.00000000000E+00 0.  1.
<mgrwt>
<rscale>  0 0.63398380E+03</rscale>
<asrwt>0</asrwt>
<pdfrwt beam="1">  1        3 0.23978034E+00 0.63398380E+03</pdfrwt>
<pdfrwt beam="2">  1       -3 0.84179257E-01 0.63398380E+03</pdfrwt>
<totfact> 0.29028574E-01</totfact>
</mgrwt>
</event>
<event>
12    1  0.8033771E-008  0.7232228E+03  0.7818608E-02  0.9678322E-01
         -1   -1    0    0    0  501 -0.00000000000E+00  0.00000000000E+00  0.10950351480E+04  0.10950351480E+04  0.00000000000E+00 0.  1.
          1   -1    0    0  501    0  0.00000000000E+00 -0.00000000000E+00 -0.10631697411E+04  0.10631697411E+04  0.00000000000E+00 0. -1.
         23    2    1    2    0    0  0.24612993794E+03 -0.56585087052E+03 -0.76357700792E+03  0.98625038226E+03  0.94195623363E+02 0.  0.
    5000000    2    1    2    0    0 -0.24612993794E+03  0.56585087052E+03  0.79544241476E+03  0.11719545068E+04  0.59998464717E+03 0.  0.
         23    2    4    4    0    0  0.14805412439E+03  0.30171120203E+03  0.48634729768E+03  0.59829613846E+03  0.92059231818E+02 0.  0.
         23    2    4    4    0    0 -0.39418406233E+03  0.26413966849E+03  0.30909511708E+03  0.57365836836E+03  0.91614915385E+02 0.  0.
          1    1    3    3  502    0  0.13009157750E+03 -0.27185090604E+03 -0.44528466774E+03  0.53768500907E+03  0.00000000000E+00 0. -1.
         -1    1    3    3    0  502  0.11603836044E+03 -0.29399996448E+03 -0.31829234018E+03  0.44856537319E+03  0.00000000000E+00 0.  1.
         15    1    5    5    0    0  0.15822877207E+03  0.26904752396E+03  0.41628511567E+03  0.52030699565E+03  0.17770000000E+01 0.  1.
        -15    1    5    5    0    0 -0.10174647686E+02  0.32663678066E+02  0.70062182007E+02  0.77989142815E+02  0.17770000000E+01 0. -1.
          2    1    6    6  503    0 -0.36829668323E+01 -0.65151508169E+01  0.89588070962E+01  0.11673545282E+02  0.00000000000E+00 0. -1.
         -2    1    6    6    0  503 -0.39050109550E+03  0.27065481931E+03  0.30013630998E+03  0.56198482308E+03  0.00000000000E+00 0.  1.
<mgrwt>
<rscale>  0 0.72322278E+03</rscale>
<asrwt>0</asrwt>
<pdfrwt beam="1">  1        1 0.16356458E+00 0.72322278E+03</pdfrwt>
<pdfrwt beam="2">  1       -1 0.16846695E+00 0.72322278E+03</pdfrwt>
<totfact> 0.35654470E+00</totfact>
</mgrwt>
</event>
<event>
12    1  0.8033771E-008  0.4214877E+03  0.7818608E-02  0.1036583E+00
          1   -1    0    0  501    0  0.00000000000E+00  0.00000000000E+00  0.12011990330E+04  0.12011990330E+04  0.00000000000E+00 0. -1.
         -1   -1    0    0    0  501 -0.00000000000E+00 -0.00000000000E+00 -0.18622233975E+03  0.18622233975E+03  0.00000000000E+00 0.  1.
         23    2    1    2    0    0  0.20906815313E+03 -0.17317270807E+03  0.33453495061E+03  0.44050952678E+03  0.91851676798E+02 0.  0.
    5000000    2    1    2    0    0 -0.20906815313E+03  0.17317270807E+03  0.68044174265E+03  0.94691184598E+03  0.59995233098E+03 0.  0.
         23    2    4    4    0    0  0.69479767301E+02  0.24877579002E+03  0.55553866479E+03  0.61944319988E+03  0.91486818916E+02 0.  0.
         23    2    4    4    0    0 -0.27854792043E+03 -0.75603081948E+02  0.12490307786E+03  0.32746864610E+03  0.91269739472E+02 0.  0.
          4    1    3    3  502    0  0.11999166997E+03 -0.98647161764E+02  0.25885896379E+03  0.30188942764E+03  0.00000000000E+00 0. -1.
         -4    1    3    3    0  502  0.89076483159E+02 -0.74525546305E+02  0.75675986816E+02  0.13862009914E+03  0.00000000000E+00 0.  1.
         15    1    5    5    0    0  0.32321252744E+02  0.13488078843E+02  0.57125166861E+02  0.67030098222E+02  0.17770000000E+01 0. -1.
        -15    1    5    5    0    0  0.37158514557E+02  0.23528771117E+03  0.49841349793E+03  0.55241310166E+03  0.17770000000E+01 0.  1.
          1    1    6    6  503    0 -0.77421787968E+02  0.12889414294E+02  0.88881222230E+01  0.78989043352E+02  0.00000000000E+00 0. -1.
         -1    1    6    6    0  503 -0.20112613247E+03 -0.88492496242E+02  0.11601495564E+03  0.24847960275E+03  0.00000000000E+00 0.  1.
<mgrwt>
<rscale>  0 0.42148774E+03</rscale>
<asrwt>0</asrwt>
<pdfrwt beam="1">  1        1 0.18479985E+00 0.42148774E+03</pdfrwt>
<pdfrwt beam="2">  1       -1 0.28649591E-01 0.42148774E+03</pdfrwt>
<totfact> 0.12440587E+02</totfact>
</mgrwt>
</event>
<event>
12    1  0.8033771E-008  0.9365698E+03  0.7818608E-02  0.9380988E-01
         -2   -1    0    0    0  501 -0.00000000000E+00  0.00000000000E+00  0.11483723342E+04  0.11483723342E+04  0.00000000000E+00 0.  1.
          2   -1    0    0  501    0  0.00000000000E+00 -0.00000000000E+00 -0.32929992709E+04  0.32929992709E+04  0.00000000000E+00 0. -1.
         23    2    1    2    0    0 -0.92697784236E+03  0.10382253388E+02 -0.29377712270E+04  0.30818279721E+04  0.88137142666E+02 0.  0.
    5000000    2    1    2    0    0  0.92697784236E+03 -0.10382253388E+02  0.79314429019E+03  0.13595436330E+04  0.59990442046E+03 0.  0.
         23    2    4    4    0    0  0.66116888824E+03 -0.54555422208E+02  0.19611047900E+03  0.69795578228E+03  0.92533027514E+02 0.  0.
         23    2    4    4    0    0  0.26580895412E+03  0.44173168820E+02  0.59703381119E+03  0.66158785076E+03  0.92970122291E+02 0.  0.
          4    1    3    3  502    0 -0.54548523602E+03 -0.11128327789E+02 -0.15940577320E+04  0.16848436234E+04  0.00000000000E+00 0. -1.
         -4    1    3    3    0  502 -0.38149260634E+03  0.21510581177E+02 -0.13437134950E+04  0.13969843487E+04  0.00000000000E+00 0.  1.
         15    1    5    5    0    0  0.33769976144E+03  0.59160380544E+01  0.66309822941E+02  0.34420383312E+03  0.17770000000E+01 0. -1.
        -15    1    5    5    0    0  0.32346912680E+03 -0.60471460262E+02  0.12980065606E+03  0.35375194916E+03  0.17770000000E+01 0.  1.
          1    1    6    6  503    0  0.67046085421E+02  0.43356984106E+02  0.11327116898E+03  0.13858341662E+03  0.00000000000E+00 0. -1.
         -1    1    6    6    0  503  0.19876286870E+03  0.81618471428E+00  0.48376264221E+03  0.52300443414E+03  0.00000000000E+00 0.  1.
<mgrwt>
<rscale>  0 0.93656979E+03</rscale>
<asrwt>0</asrwt>
<pdfrwt beam="1">  1        2 0.50661526E+00 0.93656979E+03</pdfrwt>
<pdfrwt beam="2">  1       -2 0.17667267E+00 0.93656979E+03</pdfrwt>
<totfact> 0.22345195E-01</totfact>
</mgrwt>
</event>
<event>
12    1  0.8033771E-008  0.6362525E+03  0.7818608E-02  0.9832923E-01
          2   -1    0    0  501    0  0.00000000000E+00  0.00000000000E+00  0.47674467061E+03  0.47674467061E+03  0.00000000000E+00 0.  1.
         -2   -1    0    0    0  501 -0.00000000000E+00 -0.00000000000E+00 -0.88006125414E+03  0.88006125414E+03  0.00000000000E+00 0. -1.
         23    2    1    2    0    0  0.31626072865E+03 -0.39020585019E+03 -0.19155583055E+03  0.54515993256E+03  0.90687716044E+02 0.  0.
    5000000    2    1    2    0    0 -0.31626072865E+03  0.39020585019E+03 -0.21176075298E+03  0.81164599219E+03  0.60136939241E+03 0.  0.
         23    2    4    4    0    0 -0.37473977425E+03  0.90654609677E+01 -0.75200335997E+02  0.39254200862E+03  0.89005938054E+02 0.  0.
         23    2    4    4    0    0  0.58479045601E+02  0.38114038922E+03 -0.13656041698E+03  0.41910398357E+03  0.91168012425E+02 0.  0.
          1    1    3    3  502    0  0.33500851605E+01 -0.30751842626E+02  0.15007935269E+01  0.30970167527E+02  0.00000000000E+00 0. -1.
         -1    1    3    3    0  502  0.31291064349E+03 -0.35945400756E+03 -0.19305662408E+03  0.51418976503E+03  0.00000000000E+00 0.  1.
         15    1    5    5    0    0 -0.22560598943E+03  0.10138744973E+02 -0.74412322680E+00  0.22584190945E+03  0.17770000000E+01 0. -1.
        -15    1    5    5    0    0 -0.14913378482E+03 -0.10732840049E+01 -0.74456212770E+02  0.16670009917E+03  0.17770000000E+01 0.  1.
          3    1    6    6  503    0  0.54488611755E+01  0.22584497040E+03 -0.11529770752E+03  0.25363202105E+03  0.00000000000E+00 0. -1.
         -3    1    6    6    0  503  0.53030184425E+02  0.15529541882E+03 -0.21262709463E+02  0.16547196252E+03  0.00000000000E+00 0.  1.
<mgrwt>
<rscale>  0 0.63625246E+03</rscale>
<asrwt>0</asrwt>
<pdfrwt beam="1">  1        2 0.73345335E-01 0.63625246E+03</pdfrwt>
<pdfrwt beam="2">  1       -2 0.13539404E+00 0.63625246E+03</pdfrwt>
<totfact> 0.26060255E+01</totfact>
</mgrwt>
</event>
<event>
12    1  0.8033771E-008  0.6872275E+03  0.7818608E-02  0.9739328E-01
          2   -1    0    0  501    0  0.00000000000E+00  0.00000000000E+00  0.24595345048E+04  0.24595345048E+04  0.00000000000E+00 0.  1.
         -2   -1    0    0    0  501 -0.00000000000E+00 -0.00000000000E+00 -0.31240479620E+03  0.31240479620E+03  0.00000000000E+00 0. -1.
         23    2    1    2    0    0 -0.25352233657E+03 -0.55489673311E+03  0.20625276944E+03  0.65079086688E+03  0.93832765886E+02 0.  0.
    5000000    2    1    2    0    0  0.25352233657E+03  0.55489673311E+03  0.19408769391E+04  0.21211484341E+04  0.60006951846E+03 0.  0.
         23    2    4    4    0    0  0.12276998888E+03 -0.30380578111E+02  0.10638346354E+03  0.18902962690E+03  0.91756791767E+02 0.  0.
         23    2    4    4    0    0  0.13075234770E+03  0.58527731122E+03  0.18344934756E+04  0.19321188072E+04  0.89839109589E+02 0.  0.
          2    1    3    3  502    0 -0.76080709270E+01 -0.93114158707E+02  0.42020567474E+02  0.10243953039E+03  0.00000000000E+00 0. -1.
         -2    1    3    3    0  502 -0.24591426565E+03 -0.46178257440E+03  0.16423220196E+03  0.54835133649E+03  0.00000000000E+00 0.  1.
         15    1    5    5    0    0 -0.32991306355E+01 -0.26981963025E+02  0.61551677642E+01  0.27927663899E+02  0.17770000000E+01 0.  1.
        -15    1    5    5    0    0  0.12606911951E+03 -0.33986150859E+01  0.10022829577E+03  0.16110196300E+03  0.17770000000E+01 0. -1.
          1    1    6    6  503    0  0.52309823671E+02  0.99498674750E+02  0.40458146862E+03  0.41990769067E+03  0.00000000000E+00 0. -1.
         -1    1    6    6    0  503  0.78442524025E+02  0.48577863647E+03  0.14299120070E+04  0.15122111165E+04  0.00000000000E+00 0.  1.
<mgrwt>
<rscale>  0 0.68722753E+03</rscale>
<asrwt>0</asrwt>
<pdfrwt beam="1">  1        2 0.37838991E+00 0.68722753E+03</pdfrwt>
<pdfrwt beam="2">  1       -2 0.48062278E-01 0.68722753E+03</pdfrwt>
<totfact> 0.15921736E+01</totfact>
</mgrwt>
</event>
<event>
12    1  0.8033771E-008  0.6877156E+03  0.7818608E-02  0.9738474E-01
         -2   -1    0    0    0  501 -0.00000000000E+00  0.00000000000E+00  0.13079273705E+04  0.13079273705E+04  0.00000000000E+00 0.  1.
          2   -1    0    0  501    0  0.00000000000E+00 -0.00000000000E+00 -0.70895754907E+03  0.70895754907E+03  0.00000000000E+00 0. -1.
         23    2    1    2    0    0 -0.22993454349E+03  0.59397299792E+03 -0.34457131867E+03  0.72992052669E+03  0.91546518737E+02 0.  0.
    5000000    2    1    2    0    0  0.22993454349E+03 -0.59397299792E+03  0.94354114008E+03  0.12869643929E+04  0.60027797637E+03 0.  0.
         23    2    4    4    0    0  0.19675196691E+03 -0.87063256792E+02  0.65655038659E+03  0.69678657914E+03  0.90342567910E+02 0.  0.
         23    2    4    4    0    0  0.33182576577E+02 -0.50690974113E+03  0.28699075349E+03  0.59017781371E+03  0.88812106008E+02 0.  0.
          2    1    3    3  502    0 -0.90190415424E+02  0.31036966718E+03 -0.13303383765E+03  0.34951629905E+03  0.00000000000E+00 0. -1.
         -2    1    3    3    0  502 -0.13974412806E+03  0.28360333074E+03 -0.21153748102E+03  0.38040422764E+03  0.00000000000E+00 0.  1.
         15    1    5    5    0    0  0.14495203947E+03 -0.90008837742E+02  0.39734641444E+03  0.43243498403E+03  0.17770000000E+01 0.  1.
        -15    1    5    5    0    0  0.51799927437E+02  0.29455809499E+01  0.25920397215E+03  0.26435159511E+03  0.17770000000E+01 0. -1.
          1    1    6    6  503    0 -0.24432545504E+02 -0.15746873722E+03  0.64378594401E+02  0.17186609875E+03  0.00000000000E+00 0. -1.
         -1    1    6    6    0  503  0.57615122081E+02 -0.34944100390E+03  0.22261215909E+03  0.41831171496E+03  0.00000000000E+00 0.  1.
<mgrwt>
<rscale>  0 0.68771560E+03</rscale>
<asrwt>0</asrwt>
<pdfrwt beam="1">  1        2 0.10907039E+00 0.68771560E+03</pdfrwt>
<pdfrwt beam="2">  1       -2 0.20121959E+00 0.68771560E+03</pdfrwt>
<totfact> 0.54210010E+00</totfact>
</mgrwt>
</event>
<event>
12    1  0.8033771E-008  0.2345701E+04  0.7818608E-02  0.8460117E-01
          2   -1    0    0  501    0  0.00000000000E+00  0.00000000000E+00  0.37627333869E+04  0.37627333869E+04  0.00000000000E+00 0. -1.
         -2   -1    0    0    0  501 -0.00000000000E+00 -0.00000000000E+00 -0.15258518195E+04  0.15258518195E+04  0.00000000000E+00 0.  1.
         23    2    1    2    0    0 -0.22856478173E+04 -0.37884386709E+03  0.15864341206E+04  0.28085022581E+04  0.56595885259E+02 0.  0.
    5000000    2    1    2    0    0  0.22856478173E+04  0.37884386709E+03  0.65044744684E+03  0.24800829483E+04  0.60001744057E+03 0.  0.
         23    2    4    4    0    0  0.18834635628E+04  0.50504038726E+03  0.61911605322E+03  0.20480682831E+04  0.93692154445E+02 0.  0.
         23    2    4    4    0    0  0.40218425449E+03 -0.12619652017E+03  0.31331393617E+02  0.43201466517E+03  0.89315611376E+02 0.  0.
          3    1    3    3  502    0 -0.75571578897E+03 -0.98374987964E+02  0.52393315450E+03  0.92481887002E+03  0.00000000000E+00 0. -1.
         -3    1    3    3    0  502 -0.15299320283E+04 -0.28046887913E+03  0.10625009661E+04  0.18836833881E+04  0.00000000000E+00 0.  1.
         15    1    5    5    0    0  0.12349586230E+04  0.35605209802E+03  0.36863445472E+03  0.13370828007E+04  0.17770000000E+01 0. -1.
        -15    1    5    5    0    0  0.64850493980E+03  0.14898828924E+03  0.25048159851E+03  0.71098548241E+03  0.17770000000E+01 0.  1.
          1    1    6    6  503    0  0.17929971593E+03 -0.76053222347E+02  0.54884931967E+02  0.20234830496E+03  0.00000000000E+00 0.  1.
         -1    1    6    6    0  503  0.22288453856E+03 -0.50143297821E+02 -0.23553538351E+02  0.22966636021E+03  0.00000000000E+00 0. -1.
<mgrwt>
<rscale>  0 0.23457006E+04</rscale>
<asrwt>0</asrwt>
<pdfrwt beam="1">  1        2 0.57888206E+00 0.23457006E+04</pdfrwt>
<pdfrwt beam="2">  1       -2 0.23474643E+00 0.23457006E+04</pdfrwt>
<totfact> 0.35985677E-02</totfact>
</mgrwt>
</event>
<event>
12    1  0.8033771E-008  0.1204833E+04  0.7818608E-02  0.9108637E-01
         -2   -1    0    0    0  501 -0.00000000000E+00  0.00000000000E+00  0.13762309364E+04  0.13762309364E+04  0.00000000000E+00 0. -1.
          2   -1    0    0  501    0  0.00000000000E+00 -0.00000000000E+00 -0.11940204710E+04  0.11940204710E+04  0.00000000000E+00 0.  1.
         23    2    1    2    0    0 -0.10666240848E+04 -0.48714423269E+03 -0.21237450718E+03  0.11952881694E+04  0.92813979519E+02 0.  0.
    5000000    2    1    2    0    0  0.10666240848E+04  0.48714423269E+03  0.39458497253E+03  0.13749632380E+04  0.59985845289E+03 0.  0.
         23    2    4    4    0    0  0.10440455658E+04  0.49917048278E+03  0.46669516660E+03  0.12508833960E+04  0.87764329577E+02 0.  0.
         23    2    4    4    0    0  0.22578519057E+02 -0.12026250098E+02 -0.72110194065E+02  0.12407984200E+03  0.97680637227E+02 0.  0.
          2    1    3    3  502    0 -0.10465403864E+03 -0.30670229902E+02 -0.42494342204E+02  0.11704229973E+03  0.00000000000E+00 0. -1.
         -2    1    3    3    0  502 -0.96197004619E+03 -0.45647400278E+03 -0.16988016497E+03  0.10782458697E+04  0.00000000000E+00 0.  1.
         15    1    5    5    0    0  0.66645519721E+03  0.27409439011E+03  0.27482850146E+03  0.77124842141E+03  0.17770000000E+01 0. -1.
        -15    1    5    5    0    0  0.37759036857E+03  0.22507609267E+03  0.19186666514E+03  0.47963497459E+03  0.17770000000E+01 0.  1.
          2    1    6    6  503    0  0.48164288350E+02 -0.21958800483E+01 -0.81847106014E+02  0.94992469830E+02  0.00000000000E+00 0. -1.
         -2    1    6    6    0  503 -0.25585769293E+02 -0.98303700501E+01  0.97369119493E+01  0.29087372173E+02  0.00000000000E+00 0.  1.
<mgrwt>
<rscale>  0 0.12048329E+04</rscale>
<asrwt>0</asrwt>
<pdfrwt beam="1">  1        2 0.18369546E+00 0.12048329E+04</pdfrwt>
<pdfrwt beam="2">  1       -2 0.21172783E+00 0.12048329E+04</pdfrwt>
<totfact> 0.20691615E+00</totfact>
</mgrwt>
</event>
<event>
12    1  0.8033771E-008  0.5965079E+03  0.7818608E-02  0.9912678E-01
          2   -1    0    0  501    0  0.00000000000E+00  0.00000000000E+00  0.70663969060E+03  0.70663969060E+03  0.00000000000E+00 0.  1.
         -2   -1    0    0    0  501 -0.00000000000E+00 -0.00000000000E+00 -0.53212912017E+03  0.53212912017E+03  0.00000000000E+00 0. -1.
         23    2    1    2    0    0 -0.41709133724E+03  0.19088296291E+03  0.22351064472E+02  0.46827000062E+03  0.91519037783E+02 0.  0.
    5000000    2    1    2    0    0  0.41709133724E+03 -0.19088296291E+03  0.15215950595E+03  0.77049881014E+03  0.60009533580E+03 0.  0.
         23    2    4    4    0    0 -0.13903283522E+03 -0.55462116349E+02  0.46406546042E+02  0.18150952226E+03  0.91574906696E+02 0.  0.
         23    2    4    4    0    0  0.55612417245E+03 -0.13542084656E+03  0.10575295991E+03  0.58898928788E+03  0.90065486416E+02 0.  0.
          3    1    3    3  502    0 -0.69847404855E+02 -0.31363122821E+01  0.96524279491E+00  0.69924445749E+02  0.00000000000E+00 0. -1.
         -3    1    3    3    0  502 -0.34724393238E+03  0.19401927519E+03  0.21385821677E+02  0.39834555487E+03  0.00000000000E+00 0.  1.
         15    1    5    5    0    0 -0.70924770112E+02 -0.44347979633E+02  0.69447040926E+02  0.10873415073E+03  0.17770000000E+01 0. -1.
        -15    1    5    5    0    0 -0.68108065105E+02 -0.11114136717E+02 -0.23040494884E+02  0.72775371527E+02  0.17770000000E+01 0.  1.
          4    1    6    6  503    0  0.34084102241E+03 -0.74451917767E+02  0.10805295310E+03  0.36522750621E+03  0.00000000000E+00 0. -1.
         -4    1    6    6    0  503  0.21528315004E+03 -0.60968928789E+02 -0.22999931903E+01  0.22376178168E+03  0.00000000000E+00 0.  1.
<mgrwt>
<rscale>  0 0.59650786E+03</rscale>
<asrwt>0</asrwt>
<pdfrwt beam="1">  1        2 0.10871380E+00 0.59650786E+03</pdfrwt>
<pdfrwt beam="2">  1       -2 0.81866019E-01 0.59650786E+03</pdfrwt>
<totfact> 0.54494457E+01</totfact>
</mgrwt>
</event>
<event>
12    1  0.8033771E-008  0.7333893E+03  0.7818608E-02  0.9661776E-01
         -2   -1    0    0    0  501 -0.00000000000E+00  0.00000000000E+00  0.52263474236E+03  0.52263474236E+03  0.00000000000E+00 0.  1.
          2   -1    0    0  501    0  0.00000000000E+00 -0.00000000000E+00 -0.17346646981E+04  0.17346646981E+04  0.00000000000E+00 0. -1.
         23    2    1    2    0    0  0.36459765504E+03  0.61736792765E+03  0.41958127131E+01  0.72283899193E+03  0.91673307209E+02 0.  0.
    5000000    2    1    2    0    0 -0.36459765504E+03 -0.61736792765E+03 -0.12162257684E+04  0.15344604485E+04  0.60107332338E+03 0.  0.
         23    2    4    4    0    0 -0.14865686879E+03 -0.98115424343E+02 -0.93405101368E+01  0.20007470945E+03  0.90648458902E+02 0.  0.
         23    2    4    4    0    0 -0.21594078625E+03 -0.51925250330E+03 -0.12068852583E+04  0.13343857390E+04  0.88089094316E+02 0.  0.
          2    1    3    3  502    0  0.49699184339E+02  0.37419139096E+02 -0.85158810500E+01  0.62791091125E+02  0.00000000000E+00 0. -1.
         -2    1    3    3    0  502  0.31489847070E+03  0.57994878855E+03  0.12711693763E+02  0.66004790080E+03  0.00000000000E+00 0.  1.
         15    1    5    5    0    0 -0.42056095819E+02 -0.12660682473E+02 -0.40678766842E+02  0.59890966573E+02  0.17770000000E+01 0.  1.
        -15    1    5    5    0    0 -0.10660077297E+03 -0.85454741870E+02  0.31338256705E+02  0.14018374288E+03  0.17770000000E+01 0. -1.
          4    1    6    6  503    0 -0.17065840980E+03 -0.45033621799E+03 -0.10866988704E+04  0.11886300674E+04  0.00000000000E+00 0. -1.
         -4    1    6    6    0  503 -0.45282376450E+02 -0.68916285311E+02 -0.12018638787E+03  0.14575567168E+03  0.00000000000E+00 0.  1.
<mgrwt>
<rscale>  0 0.73338931E+03</rscale>
<asrwt>0</asrwt>
<pdfrwt beam="1">  1        2 0.26687149E+00 0.73338931E+03</pdfrwt>
<pdfrwt beam="2">  1       -2 0.80405344E-01 0.73338931E+03</pdfrwt>
<totfact> 0.13223416E+01</totfact>
</mgrwt>
</event>
<event>
12    1  0.8033771E-008  0.1287071E+04  0.7818608E-02  0.9039881E-01
         -1   -1    0    0    0  501 -0.00000000000E+00  0.00000000000E+00  0.21228223395E+04  0.21228223395E+04  0.00000000000E+00 0.  1.
          1   -1    0    0  501    0  0.00000000000E+00 -0.00000000000E+00 -0.84583473849E+03  0.84583473849E+03  0.00000000000E+00 0. -1.
         23    2    1    2    0    0  0.49814378357E+03  0.11344767561E+04  0.29256789656E+03  0.12762483686E+04  0.89605719804E+02 0.  0.
    5000000    2    1    2    0    0 -0.49814378357E+03 -0.11344767561E+04  0.98441970445E+03  0.16924087094E+04  0.59998362130E+03 0.  0.
         23    2    4    4    0    0 -0.38784499930E+03 -0.11552660272E+04  0.82266212390E+03  0.14731650561E+04  0.91536743606E+02 0.  0.
         23    2    4    4    0    0 -0.11029878427E+03  0.20789271052E+02  0.16175758055E+03  0.21924365328E+03  0.96458535317E+02 0.  0.
          1    1    3    3  502    0  0.37722883819E+03  0.92892351194E+03  0.25814877990E+03  0.10352976770E+04  0.00000000000E+00 0. -1.
         -1    1    3    3    0  502  0.12091494538E+03  0.20555324416E+03  0.34419116655E+02  0.24095069162E+03  0.00000000000E+00 0.  1.
         15    1    5    5    0    0 -0.16190007286E+03 -0.57984242407E+03  0.36543663309E+03  0.70425560763E+03  0.17770000000E+01 0. -1.
        -15    1    5    5    0    0 -0.22594492644E+03 -0.57542360308E+03  0.45722549080E+03  0.76890944847E+03  0.17770000000E+01 0.  1.
          2    1    6    6  503    0 -0.59617061166E+02  0.17146299504E+02  0.15627403181E+03  0.16813614301E+03  0.00000000000E+00 0. -1.
         -2    1    6    6    0  503 -0.50681723109E+02  0.36429715477E+01  0.54835487378E+01  0.51107510268E+02  0.00000000000E+00 0.  1.
<mgrwt>
<rscale>  0 0.12870712E+04</rscale>
<asrwt>0</asrwt>
<pdfrwt beam="1">  1        1 0.13012842E+00 0.12870712E+04</pdfrwt>
<pdfrwt beam="2">  1       -1 0.32658805E+00 0.12870712E+04</pdfrwt>
<totfact> 0.43754156E-01</totfact>
</mgrwt>
</event>
<event>
12    1  0.8033771E-008  0.9286474E+03  0.7818608E-02  0.9390463E-01
         -1   -1    0    0    0  501 -0.00000000000E+00  0.00000000000E+00  0.82013143328E+03  0.82013143328E+03  0.00000000000E+00 0.  1.
          1   -1    0    0  501    0  0.00000000000E+00 -0.00000000000E+00 -0.14659161964E+04  0.14659161964E+04  0.00000000000E+00 0. -1.
         23    2    1    2    0    0  0.67217481243E+03 -0.61826468153E+03  0.15691746482E+03  0.93018473626E+03  0.80934281481E+02 0.  0.
    5000000    2    1    2    0    0 -0.67217481243E+03  0.61826468153E+03 -0.80270222792E+03  0.13558628934E+04  0.59996926930E+03 0.  0.
         23    2    4    4    0    0 -0.38829671389E+03  0.21928679081E+03 -0.71945372089E+03  0.85116743378E+03  0.89505917038E+02 0.  0.
         23    2    4    4    0    0 -0.28387809854E+03  0.39897789072E+03 -0.83248507033E+02  0.50469545962E+03  0.89538041793E+02 0.  0.
          3    1    3    3  502    0  0.41978307064E+03 -0.34416215920E+03  0.67590338339E+02  0.54702273450E+03  0.00000000000E+00 0.  1.
         -3    1    3    3    0  502  0.25239174179E+03 -0.27410252233E+03  0.89327126485E+02  0.38316200177E+03  0.00000000000E+00 0. -1.
         15    1    5    5    0    0 -0.24279138326E+03  0.17287856489E+03 -0.42002039687E+03  0.51502907248E+03  0.17770000000E+01 0. -1.
        -15    1    5    5    0    0 -0.14550533063E+03  0.46408225915E+02 -0.29943332402E+03  0.33613836130E+03  0.17770000000E+01 0.  1.
          4    1    6    6  503    0 -0.34268271798E+02  0.71662819677E+02 -0.44988913486E+02  0.91290067985E+02  0.00000000000E+00 0. -1.
         -4    1    6    6    0  503 -0.24960982674E+03  0.32731507104E+03 -0.38259593547E+02  0.41340539164E+03  0.00000000000E+00 0.  1.
<mgrwt>
<rscale>  0 0.92864745E+03</rscale>
<asrwt>0</asrwt>
<pdfrwt beam="1">  1        1 0.22552557E+00 0.92864745E+03</pdfrwt>
<pdfrwt beam="2">  1       -1 0.12617407E+00 0.92864745E+03</pdfrwt>
<totfact> 0.38322715E+00</totfact>
</mgrwt>
</event>
<event>
12    1  0.8033771E-008  0.3435096E+03  0.7818608E-02  0.1065311E+00
          2   -1    0    0  501    0  0.00000000000E+00  0.00000000000E+00  0.10001789463E+04  0.10001789463E+04  0.00000000000E+00 0. -1.
         -2   -1    0    0    0  501 -0.00000000000E+00 -0.00000000000E+00 -0.24205701730E+03  0.24205701730E+03  0.00000000000E+00 0.  1.
         23    2    1    2    0    0  0.29869102773E+03 -0.21695019832E+02  0.26438943518E+03  0.40949737527E+03  0.89996238742E+02 0.  0.
    5000000    2    1    2    0    0 -0.29869102773E+03  0.21695019832E+02  0.49373249383E+03  0.83273858834E+03  0.59999564758E+03 0.  0.
         23    2    4    4    0    0 -0.21777650741E+03 -0.73244159399E+02 -0.62630400374E+02  0.25521413844E+03  0.91762603177E+02 0.  0.
         23    2    4    4    0    0 -0.80914520320E+02  0.94939179231E+02  0.55636289421E+03  0.57752444990E+03  0.91837970534E+02 0.  0.
          1    1    3    3  502    0  0.25232518632E+03  0.10981107465E+02  0.19053319491E+03  0.31637237985E+03  0.00000000000E+00 0. -1.
         -1    1    3    3    0  502  0.46365841416E+02 -0.32676127296E+02  0.73856240271E+02  0.93124995422E+02  0.00000000000E+00 0.  1.
         15    1    5    5    0    0 -0.12826707502E+03 -0.50043070346E+02  0.93610089131E+01  0.13801281694E+03  0.17770000000E+01 0.  1.
        -15    1    5    5    0    0 -0.89509432396E+02 -0.23201089053E+02 -0.71991409287E+02  0.11720132150E+03  0.17770000000E+01 0. -1.
          1    1    6    6  503    0  0.64859557813E+01  0.47823576426E+02  0.10790053004E+03  0.11820188859E+03  0.00000000000E+00 0. -1.
         -1    1    6    6    0  503 -0.87400476101E+02  0.47115602805E+02  0.44846236417E+03  0.45932256131E+03  0.00000000000E+00 0.  1.
<mgrwt>
<rscale>  0 0.34350961E+03</rscale>
<asrwt>0</asrwt>
<pdfrwt beam="1">  1        2 0.15387368E+00 0.34350961E+03</pdfrwt>
<pdfrwt beam="2">  1       -2 0.37239542E-01 0.34350961E+03</pdfrwt>
<totfact> 0.17932437E+02</totfact>
</mgrwt>
</event>
<event>
12    1  0.8033771E-008  0.5962842E+03  0.7818608E-02  0.9913145E-01
         -2   -1    0    0    0  501 -0.00000000000E+00  0.00000000000E+00  0.34881366424E+03  0.34881366424E+03  0.00000000000E+00 0.  1.
          2   -1    0    0  501    0  0.00000000000E+00 -0.00000000000E+00 -0.15252517784E+04  0.15252517784E+04  0.00000000000E+00 0. -1.
         23    2    1    2    0    0  0.14660336493E+03  0.48587758529E+03 -0.75350996603E+02  0.52130236971E+03  0.92243230030E+02 0.  0.
    5000000    2    1    2    0    0 -0.14660336493E+03 -0.48587758529E+03 -0.11010871175E+04  0.13527630729E+04  0.60000459709E+03 0.  0.
         23    2    4    4    0    0 -0.27602000289E+03 -0.17067084460E+03 -0.21614904466E+03  0.40038646503E+03  0.90957862120E+02 0.  0.
         23    2    4    4    0    0  0.12941663796E+03 -0.31520674069E+03 -0.88493807285E+03  0.95237660786E+03  0.88328109120E+02 0.  0.
          2    1    3    3  502    0  0.22163281036E+02  0.21070565937E+03 -0.53458655983E+02  0.21850838386E+03  0.00000000000E+00 0. -1.
         -2    1    3    3    0  502  0.12444008389E+03  0.27517192592E+03 -0.21892340619E+02  0.30279398585E+03  0.00000000000E+00 0.  1.
         15    1    5    5    0    0 -0.23780366606E+03 -0.10297527682E+03 -0.16165321361E+03  0.30543315214E+03  0.17770000000E+01 0. -1.
        -15    1    5    5    0    0 -0.38216336830E+02 -0.67695567785E+02 -0.54495831046E+02  0.94953312890E+02  0.17770000000E+01 0.  1.
          3    1    6    6  503    0  0.12265739798E+03 -0.30959586377E+03 -0.88253058730E+03  0.94326808154E+03  0.00000000000E+00 0. -1.
         -3    1    6    6    0  503  0.67592399847E+01 -0.56108769187E+01 -0.24074855527E+01  0.91085263162E+01  0.00000000000E+00 0.  1.
<mgrwt>
<rscale>  0 0.59628425E+03</rscale>
<asrwt>0</asrwt>
<pdfrwt beam="1">  1        2 0.23465412E+00 0.59628425E+03</pdfrwt>
<pdfrwt beam="2">  1       -2 0.53663641E-01 0.59628425E+03</pdfrwt>
<totfact> 0.41889230E+01</totfact>
</mgrwt>
</event>
<event>
12    1  0.8033771E-008  0.6529467E+03  0.7818608E-02  0.9801266E-01
         -1   -1    0    0    0  501 -0.00000000000E+00  0.00000000000E+00  0.10630379073E+04  0.10630379073E+04  0.00000000000E+00 0.  1.
          1   -1    0    0  501    0  0.00000000000E+00 -0.00000000000E+00 -0.14161594618E+04  0.14161594618E+04  0.00000000000E+00 0. -1.
         23    2    1    2    0    0 -0.44108690437E+03 -0.26916688618E+03  0.87366176177E+03  0.10190768013E+04  0.90687281599E+02 0.  0.
    5000000    2    1    2    0    0  0.44108690437E+03  0.26916688618E+03 -0.12267833162E+04  0.14601205678E+04  0.59995524648E+03 0.  0.
         23    2    4    4    0    0 -0.92270675312E+02  0.20749785106E+03 -0.43340403295E+03  0.49769546050E+03  0.91063054601E+02 0.  0.
         23    2    4    4    0    0  0.53335757968E+03  0.61669035127E+02 -0.79337928329E+03  0.96242510732E+03  0.92401419710E+02 0.  0.
          3    1    3    3  502    0 -0.19373482628E+03 -0.72747720015E+02  0.38805259996E+03  0.43978430397E+03  0.00000000000E+00 0. -1.
         -3    1    3    3    0  502 -0.24735207808E+03 -0.19641916617E+03  0.48560916181E+03  0.57929249728E+03  0.00000000000E+00 0.  1.
         15    1    5    5    0    0 -0.89357305605E+01  0.12820905001E+03 -0.20514270231E+03  0.24208282431E+03  0.17770000000E+01 0. -1.
        -15    1    5    5    0    0 -0.83334944751E+02  0.79288801047E+02 -0.22826133064E+03  0.25561263620E+03  0.17770000000E+01 0.  1.
          3    1    6    6  503    0  0.52582930339E+03  0.53706646425E+02 -0.74906778544E+03  0.91677882140E+03  0.00000000000E+00 0. -1.
         -3    1    6    6    0  503  0.75282762877E+01  0.79623887015E+01 -0.44311497843E+02  0.45646285926E+02  0.00000000000E+00 0.  1.
<mgrwt>
<rscale>  0 0.65294673E+03</rscale>
<asrwt>0</asrwt>
<pdfrwt beam="1">  1        1 0.21787068E+00 0.65294673E+03</pdfrwt>
<pdfrwt beam="2">  1       -1 0.16354430E+00 0.65294673E+03</pdfrwt>
<totfact> 0.21933961E+00</totfact>
</mgrwt>
</event>
<event>
12    1  0.8033771E-008  0.9860121E+03  0.7818608E-02  0.9324021E-01
         -2   -1    0    0    0  501 -0.00000000000E+00  0.00000000000E+00  0.60742910574E+03  0.60742910574E+03  0.00000000000E+00 0.  1.
          2   -1    0    0  501    0  0.00000000000E+00 -0.00000000000E+00 -0.20354662133E+04  0.20354662133E+04  0.00000000000E+00 0. -1.
         23    2    1    2    0    0 -0.56457926913E+03  0.73680481413E+03 -0.13607087538E+03  0.94266744242E+03  0.92062688525E+02 0.  0.
    5000000    2    1    2    0    0  0.56457926913E+03 -0.73680481413E+03 -0.12919662322E+04  0.17002278766E+04  0.59997250111E+03 0.  0.
         23    2    4    4    0    0  0.26444966995E+03 -0.66179806675E+03 -0.11301897208E+04  0.13391250331E+04  0.89536251414E+02 0.  0.
         23    2    4    4    0    0  0.30012959918E+03 -0.75006747387E+02 -0.16177651138E+03  0.36110284348E+03  0.92302954855E+02 0.  0.
          1    1    3    3  502    0 -0.31912417313E+03  0.34410896694E+03 -0.54870912786E+02  0.47250612279E+03  0.00000000000E+00 0. -1.
         -1    1    3    3    0  502 -0.24545509601E+03  0.39269584719E+03 -0.81199962596E+02  0.47016131964E+03  0.00000000000E+00 0.  1.
         15    1    5    5    0    0  0.24434650369E+03 -0.52378260000E+03 -0.88432686117E+03  0.10564518830E+04  0.17770000000E+01 0.  1.
        -15    1    5    5    0    0  0.20103166267E+02 -0.13801546675E+03 -0.24586285960E+03  0.28267315015E+03  0.17770000000E+01 0. -1.
          3    1    6    6  503    0  0.10306102685E+03  0.17368603025E+02 -0.63554406175E+02  0.12232091469E+03  0.00000000000E+00 0.  1.
         -3    1    6    6    0  503  0.19706857233E+03 -0.92375350412E+02 -0.98222105209E+02  0.23878192878E+03  0.00000000000E+00 0. -1.
<mgrwt>
<rscale>  0 0.98601210E+03</rscale>
<asrwt>0</asrwt>
<pdfrwt beam="1">  1        2 0.31314865E+00 0.98601210E+03</pdfrwt>
<pdfrwt beam="2">  1       -2 0.93450631E-01 0.98601210E+03</pdfrwt>
<totfact> 0.62027410E+00</totfact>
</mgrwt>
</event>
<event>
12    1  0.8033771E-008  0.3559696E+03  0.7818608E-02  0.1060191E+00
          2   -1    0    0  501    0  0.00000000000E+00  0.00000000000E+00  0.11383896084E+04  0.11383896084E+04  0.00000000000E+00 0. -1.
         -2   -1    0    0    0  501 -0.00000000000E+00 -0.00000000000E+00 -0.32347655794E+03  0.32347655794E+03  0.00000000000E+00 0.  1.
         23    2    1    2    0    0 -0.66207096889E+02 -0.32509972826E+03  0.68151183740E+03  0.76338394513E+03  0.90683240831E+02 0.  0.
    5000000    2    1    2    0    0  0.66207096889E+02  0.32509972826E+03  0.13340121302E+03  0.69848222118E+03  0.60000693052E+03 0.  0.
         23    2    4    4    0    0  0.75867706328E+02  0.22119853574E+03  0.35679726819E+03  0.43553960088E+03  0.87782414373E+02 0.  0.
         23    2    4    4    0    0 -0.96606094396E+01  0.10390119253E+03 -0.22339605516E+03  0.26294262030E+03  0.91346805772E+02 0.  0.
          3    1    3    3  502    0 -0.60953620125E+02 -0.14329641778E+03  0.24256920785E+03  0.28825167433E+03  0.00000000000E+00 0. -1.
         -3    1    3    3    0  502 -0.52534767635E+01 -0.18180331048E+03  0.43894262955E+03  0.47513227080E+03  0.00000000000E+00 0.  1.
         15    1    5    5    0    0  0.80208427151E+02  0.14490199740E+03  0.18998107763E+03  0.25204354430E+03  0.17770000000E+01 0. -1.
        -15    1    5    5    0    0 -0.43407208231E+01  0.76296538334E+02  0.16681619056E+03  0.18349605658E+03  0.17770000000E+01 0.  1.
          1    1    6    6  503    0 -0.41746347473E+02  0.85828933524E+02 -0.12090713972E+03  0.15403863084E+03  0.00000000000E+00 0. -1.
         -1    1    6    6    0  503  0.32085738033E+02  0.18072259004E+02 -0.10248891545E+03  0.10890398946E+03  0.00000000000E+00 0.  1.
<mgrwt>
<rscale>  0 0.35596956E+03</rscale>
<asrwt>0</asrwt>
<pdfrwt beam="1">  1        2 0.17513686E+00 0.35596956E+03</pdfrwt>
<pdfrwt beam="2">  1       -2 0.49765625E-01 0.35596956E+03</pdfrwt>
<totfact> 0.83842306E+01</totfact>
</mgrwt>
</event>
<event>
12    1  0.8033771E-008  0.4784053E+03  0.7818608E-02  0.1019574E+00
          2   -1    0    0  501    0  0.00000000000E+00  0.00000000000E+00  0.23592421341E+04  0.23592421341E+04  0.00000000000E+00 0. -1.
         -2   -1    0    0    0  501 -0.00000000000E+00 -0.00000000000E+00 -0.22300943236E+03  0.22300943236E+03  0.00000000000E+00 0.  1.
         23    2    1    2    0    0 -0.18954254642E+03 -0.27117642231E+03  0.17737762884E+04  0.18068288569E+04  0.94261168093E+02 0.  0.
    5000000    2    1    2    0    0  0.18954254642E+03  0.27117642231E+03  0.36245641337E+03  0.77542270963E+03  0.60036880173E+03 0.  0.
         23    2    4    4    0    0  0.20458437347E+03 -0.95059705011E+02  0.31137156001E+03  0.39572543511E+03  0.93569536846E+02 0.  0.
         23    2    4    4    0    0 -0.15041827051E+02  0.36623612732E+03  0.51084853363E+02  0.37969727452E+03  0.84883452535E+02 0.  0.
          4    1    3    3  502    0 -0.17290391580E+03 -0.20334557813E+03  0.15355400942E+04  0.15585661902E+04  0.00000000000E+00 0. -1.
         -4    1    3    3    0  502 -0.16638630624E+02 -0.67830844179E+02  0.23823619422E+03  0.24826266673E+03  0.00000000000E+00 0.  1.
         15    1    5    5    0    0  0.11397597780E+02 -0.42033746808E+02  0.48385308872E+02  0.65123244311E+02  0.17770000000E+01 0.  1.
        -15    1    5    5    0    0  0.19318677569E+03 -0.53025958202E+02  0.26298625114E+03  0.33060219080E+03  0.17770000000E+01 0. -1.
          3    1    6    6  503    0 -0.50175743826E+02  0.19810023660E+03  0.22942882084E+02  0.20563969668E+03  0.00000000000E+00 0. -1.
         -3    1    6    6    0  503  0.35133916774E+02  0.16813589072E+03  0.28141971279E+02  0.17405757784E+03  0.00000000000E+00 0.  1.
<mgrwt>
<rscale>  0 0.47840532E+03</rscale>
<asrwt>0</asrwt>
<pdfrwt beam="1">  1        2 0.36296031E+00 0.47840532E+03</pdfrwt>
<pdfrwt beam="2">  1       -2 0.34309145E-01 0.47840532E+03</pdfrwt>
<totfact> 0.36355740E+01</totfact>
</mgrwt>
</event>
<event>
12    1  0.8033771E-008  0.6041728E+03  0.7818608E-02  0.9896786E-01
         -1   -1    0    0    0  501 -0.00000000000E+00  0.00000000000E+00  0.21755701138E+03  0.21755701138E+03  0.00000000000E+00 0.  1.
          1   -1    0    0  501    0  0.00000000000E+00 -0.00000000000E+00 -0.25707009734E+04  0.25707009734E+04  0.00000000000E+00 0. -1.
         23    2    1    2    0    0  0.45519090440E+02  0.52789491854E+03 -0.37945406585E+03  0.65841097963E+03  0.93672821016E+02 0.  0.
    5000000    2    1    2    0    0 -0.45519090440E+02 -0.52789491854E+03 -0.19736898961E+04  0.21298470051E+04  0.60004285387E+03 0.  0.
         23    2    4    4    0    0 -0.22087742189E+03 -0.23859158896E+03 -0.15187758003E+04  0.15557976694E+04  0.90075938671E+02 0.  0.
         23    2    4    4    0    0  0.17535833145E+03 -0.28930332958E+03 -0.45491409580E+03  0.57404933567E+03  0.90215543632E+02 0.  0.
          1    1    3    3  502    0  0.35051069227E+02  0.18749279697E+03 -0.18754851123E+03  0.26750059894E+03  0.00000000000E+00 0. -1.
         -1    1    3    3    0  502  0.10468021213E+02  0.34040212157E+03 -0.19190555462E+03  0.39091038069E+03  0.00000000000E+00 0.  1.
         15    1    5    5    0    0 -0.19417572860E+02 -0.64035831457E+01 -0.22794829169E+03  0.22887033322E+03  0.17770000000E+01 0.  1.
        -15    1    5    5    0    0 -0.20145984903E+03 -0.23218800581E+03 -0.12908275087E+04  0.13269273362E+04  0.17770000000E+01 0. -1.
          1    1    6    6  503    0  0.11582403853E+03 -0.25578692312E+03 -0.38243440709E+03  0.47444518510E+03  0.00000000000E+00 0. -1.
         -1    1    6    6    0  503  0.59534292918E+02 -0.33516406466E+02 -0.72479688707E+02  0.99604150569E+02  0.00000000000E+00 0.  1.
<mgrwt>
<rscale>  0 0.60417278E+03</rscale>
<asrwt>0</asrwt>
<pdfrwt beam="1">  1        1 0.39549243E+00 0.60417278E+03</pdfrwt>
<pdfrwt beam="2">  1       -1 0.33470311E-01 0.60417278E+03</pdfrwt>
<totfact> 0.11003634E+01</totfact>
</mgrwt>
</event>
<event>
12    1  0.8033771E-008  0.6605612E+03  0.7818608E-02  0.9787161E-01
         -2   -1    0    0    0  501 -0.00000000000E+00  0.00000000000E+00  0.23475524388E+03  0.23475524388E+03  0.00000000000E+00 0.  1.
          2   -1    0    0  501    0  0.00000000000E+00 -0.00000000000E+00 -0.23606497560E+04  0.23606497560E+04  0.00000000000E+00 0. -1.
         23    2    1    2    0    0  0.12901630243E+03  0.51477045041E+03 -0.33751691763E+03  0.63576103476E+03  0.92954831654E+02 0.  0.
    5000000    2    1    2    0    0 -0.12901630243E+03 -0.51477045041E+03 -0.17883775945E+04  0.19596439652E+04  0.60023014473E+03 0.  0.
         23    2    4    4    0    0 -0.40656499619E+02  0.11805664959E+03 -0.38621127014E+03  0.41609061057E+03  0.91552867503E+02 0.  0.
         23    2    4    4    0    0 -0.88359802808E+02 -0.63282709999E+03 -0.14021663244E+04  0.15435533546E+04  0.90603333032E+02 0.  0.
          2    1    3    3  502    0  0.94377892154E+02  0.34366502085E+03 -0.27563579078E+03  0.45054180965E+03  0.00000000000E+00 0. -1.
         -2    1    3    3    0  502  0.34638410274E+02  0.17110542955E+03 -0.61881126847E+02  0.18521922511E+03  0.00000000000E+00 0.  1.
         15    1    5    5    0    0  0.10104056688E+02  0.83652085805E+02 -0.15012484493E+03  0.17216384700E+03  0.17770000000E+01 0.  1.
        -15    1    5    5    0    0 -0.50760556307E+02  0.34404563781E+02 -0.23608642522E+03  0.24392676357E+03  0.17770000000E+01 0. -1.
          3    1    6    6  503    0 -0.10522382252E+03 -0.55697614699E+03 -0.12062951654E+04  0.13328325128E+04  0.00000000000E+00 0. -1.
         -3    1    6    6    0  503  0.16864019716E+02 -0.75850953000E+02 -0.19587115902E+03  0.21072084180E+03  0.00000000000E+00 0.  1.
<mgrwt>
<rscale>  0 0.66056115E+03</rscale>
<asrwt>0</asrwt>
<pdfrwt beam="1">  1        2 0.36317688E+00 0.66056115E+03</pdfrwt>
<pdfrwt beam="2">  1       -2 0.36116192E-01 0.66056115E+03</pdfrwt>
<totfact> 0.31826841E+01</totfact>
</mgrwt>
</event>
<event>
12    1  0.8033771E-008  0.8725068E+03  0.7818608E-02  0.9460617E-01
          2   -1    0    0  501    0  0.00000000000E+00  0.00000000000E+00  0.18571988722E+04  0.18571988722E+04  0.00000000000E+00 0. -1.
         -2   -1    0    0    0  501 -0.00000000000E+00 -0.00000000000E+00 -0.58598898492E+03  0.58598898492E+03  0.00000000000E+00 0.  1.
         23    2    1    2    0    0 -0.30596338334E+03 -0.72012263815E+03 -0.56213420201E+02  0.78965822271E+03  0.90608797362E+02 0.  0.
    5000000    2    1    2    0    0  0.30596338334E+03  0.72012263815E+03  0.13274233075E+04  0.16535296344E+04  0.59993116999E+03 0.  0.
         23    2    4    4    0    0  0.15519489163E+03 -0.53029491651E+02  0.32341485488E+03  0.37401050337E+03  0.91592067898E+02 0.  0.
         23    2    4    4    0    0  0.15076849171E+03  0.77315212980E+03  0.10040084526E+04  0.12795191311E+04  0.92956333342E+02 0.  0.
          1    1    3    3  502    0 -0.19170759761E+03 -0.47152863087E+03  0.61506251891E+01  0.50904703407E+03  0.00000000000E+00 0. -1.
         -1    1    3    3    0  502 -0.11425578572E+03 -0.24859400728E+03 -0.62364045390E+02  0.28061118863E+03  0.00000000000E+00 0.  1.
         15    1    5    5    0    0  0.15763239262E+03 -0.55510413369E+02  0.32791614726E+03  0.36805099451E+03  0.17770000000E+01 0.  1.
        -15    1    5    5    0    0 -0.24375009881E+01  0.24809217173E+01 -0.45012923888E+01  0.59595088560E+01  0.17770000000E+01 0. -1.
          1    1    6    6  503    0  0.67133053552E+02  0.17555519288E+03  0.20289224030E+03  0.27657139006E+03  0.00000000000E+00 0. -1.
         -1    1    6    6    0  503  0.83635438155E+02  0.59759693692E+03  0.80111621233E+03  0.10029477410E+04  0.00000000000E+00 0.  1.
<mgrwt>
<rscale>  0 0.87250685E+03</rscale>
<asrwt>0</asrwt>
<pdfrwt beam="1">  1        2 0.28572290E+00 0.87250685E+03</pdfrwt>
<pdfrwt beam="2">  1       -2 0.90152152E-01 0.87250685E+03</pdfrwt>
<totfact> 0.85680174E+00</totfact>
</mgrwt>
</event>
<event>
12    1  0.8033771E-008  0.9516213E+03  0.7818608E-02  0.9363257E-01
          2   -1    0    0  501    0  0.00000000000E+00  0.00000000000E+00  0.19428643742E+04  0.19428643742E+04  0.00000000000E+00 0. -1.
         -2   -1    0    0    0  501 -0.00000000000E+00 -0.00000000000E+00 -0.71312681838E+03  0.71312681838E+03  0.00000000000E+00 0.  1.
         23    2    1    2    0    0  0.86177112205E+03  0.11628157085E+03  0.13333582729E+04  0.15944362689E+04  0.90619319055E+02 0.  0.
    5000000    2    1    2    0    0 -0.86177112205E+03 -0.11628157085E+03 -0.10362071715E+03  0.10615549237E+04  0.59999227697E+03 0.  0.
         23    2    4    4    0    0 -0.15610073192E+03  0.18812373481E+03 -0.11808899686E+03  0.28739844414E+03  0.94312652428E+02 0.  0.
         23    2    4    4    0    0 -0.70567039013E+03 -0.30440530566E+03  0.14468279713E+02  0.77415647954E+03  0.92063206942E+02 0.  0.
          3    1    3    3  502    0  0.43476675626E+02  0.12021748451E+02  0.11054960263E+03  0.11939831825E+03  0.00000000000E+00 0. -1.
         -3    1    3    3    0  502  0.81829444643E+03  0.10425982240E+03  0.12228086703E+04  0.14750379506E+04  0.00000000000E+00 0.  1.
         15    1    5    5    0    0 -0.16742777458E+03  0.17408112485E+03 -0.98897846314E+02  0.26099854303E+03  0.17770000000E+01 0. -1.
        -15    1    5    5    0    0  0.11327042664E+02  0.14042609962E+02 -0.19191150546E+02  0.26399901104E+02  0.17770000000E+01 0.  1.
          4    1    6    6  503    0 -0.30470649359E+03 -0.17923748939E+03  0.19918393118E+02  0.35407466334E+03  0.00000000000E+00 0. -1.
         -4    1    6    6    0  503 -0.40096389655E+03 -0.12516781626E+03 -0.54501134046E+01  0.42008181619E+03  0.00000000000E+00 0.  1.
<mgrwt>
<rscale>  0 0.95162133E+03</rscale>
<asrwt>0</asrwt>
<pdfrwt beam="1">  1        2 0.29890221E+00 0.95162133E+03</pdfrwt>
<pdfrwt beam="2">  1       -2 0.10971182E+00 0.95162133E+03</pdfrwt>
<totfact> 0.47771740E+00</totfact>
</mgrwt>
</event>
<event>
12    1  0.8033771E-008  0.7114935E+03  0.7818608E-02  0.9697776E-01
          2   -1    0    0  501    0  0.00000000000E+00  0.00000000000E+00  0.60292880207E+03  0.60292880207E+03  0.00000000000E+00 0. -1.
         -2   -1    0    0    0  501 -0.00000000000E+00 -0.00000000000E+00 -0.98754383217E+03  0.98754383217E+03  0.00000000000E+00 0.  1.
         23    2    1    2    0    0 -0.52117122978E+03  0.29731357671E+03 -0.42479681330E+03  0.74093534937E+03  0.92293259286E+02 0.  0.
    5000000    2    1    2    0    0  0.52117122978E+03 -0.29731357671E+03  0.40181783200E+02  0.84953728487E+03  0.60007017010E+03 0.  0.
         23    2    4    4    0    0  0.61200898694E+03 -0.16487319354E+03 -0.52160976759E+02  0.64268957612E+03  0.92687397814E+02 0.  0.
         23    2    4    4    0    0 -0.90837757156E+02 -0.13244038316E+03  0.92342759960E+02  0.20684770875E+03  0.92015412197E+02 0.  0.
          4    1    3    3  502    0 -0.22209843464E+03  0.17821345175E+03 -0.18607328716E+03  0.34016322148E+03  0.00000000000E+00 0. -1.
         -4    1    3    3    0  502 -0.29907279515E+03  0.11910012495E+03 -0.23872352615E+03  0.40077212789E+03  0.00000000000E+00 0.  1.
         15    1    5    5    0    0  0.11109191526E+03 -0.56429625657E+02 -0.36800690115E+02  0.12993523314E+03  0.17770000000E+01 0. -1.
        -15    1    5    5    0    0  0.50091707168E+03 -0.10844356789E+03 -0.15360286645E+02  0.51275434298E+03  0.17770000000E+01 0.  1.
          1    1    6    6  503    0 -0.64778463919E+02 -0.26355053221E+02  0.11329031124E+02  0.70846207832E+02  0.00000000000E+00 0. -1.
         -1    1    6    6    0  503 -0.26059293237E+02 -0.10608532994E+03  0.81013728836E+02  0.13600150092E+03  0.00000000000E+00 0.  1.
<mgrwt>
<rscale>  0 0.71149352E+03</rscale>
<asrwt>0</asrwt>
<pdfrwt beam="1">  1        2 0.92758279E-01 0.71149352E+03</pdfrwt>
<pdfrwt beam="2">  1       -2 0.15192982E+00 0.71149352E+03</pdfrwt>
<totfact> 0.14543240E+01</totfact>
</mgrwt>
</event>
<event>
12    1  0.8033771E-008  0.5632288E+03  0.7818608E-02  0.9984775E-01
          1   -1    0    0  501    0  0.00000000000E+00  0.00000000000E+00  0.18197104432E+04  0.18197104432E+04  0.00000000000E+00 0. -1.
         -1   -1    0    0    0  501 -0.00000000000E+00 -0.00000000000E+00 -0.21630218300E+03  0.21630218300E+03  0.00000000000E+00 0.  1.
         23    2    1    2    0    0 -0.19789519130E+03  0.41144202605E+03  0.39053395589E+03  0.60787340709E+03  0.92445988615E+02 0.  0.
    5000000    2    1    2    0    0  0.19789519130E+03 -0.41144202605E+03  0.12128743043E+04  0.14281392191E+04  0.60005875005E+03 0.  0.
         23    2    4    4    0    0  0.11046618683E+03 -0.50042906759E+03  0.59252726133E+03  0.78886057721E+03  0.92630582007E+02 0.  0.
         23    2    4    4    0    0  0.87429004471E+02  0.88987041546E+02  0.62034704294E+03  0.63927864185E+03  0.91017601931E+02 0.  0.
          3    1    3    3  502    0 -0.14868757795E+03  0.26469411207E+03  0.20534735042E+03  0.36652217276E+03  0.00000000000E+00 0. -1.
         -3    1    3    3    0  502 -0.49207613353E+02  0.14674791397E+03  0.18518660547E+03  0.24135123433E+03  0.00000000000E+00 0.  1.
         15    1    5    5    0    0  0.96664571064E+01 -0.11104129577E+03  0.79339411929E+02  0.13682656823E+03  0.17770000000E+01 0.  1.
        -15    1    5    5    0    0  0.10079972973E+03 -0.38938777182E+03  0.51318784940E+03  0.65203400898E+03  0.17770000000E+01 0. -1.
          4    1    6    6  503    0 -0.14843795263E+02 -0.48146009281E+01  0.67442123378E+02  0.69223974501E+02  0.00000000000E+00 0. -1.
         -4    1    6    6    0  503  0.10227279973E+03  0.93801642475E+02  0.55290491956E+03  0.57005466735E+03  0.00000000000E+00 0.  1.
<mgrwt>
<rscale>  0 0.56322875E+03</rscale>
<asrwt>0</asrwt>
<pdfrwt beam="1">  1        1 0.27995544E+00 0.56322875E+03</pdfrwt>
<pdfrwt beam="2">  1       -1 0.33277260E-01 0.56322875E+03</pdfrwt>
<totfact> 0.35635707E+01</totfact>
</mgrwt>
</event>
<event>
12    1  0.8033771E-008  0.3343767E+03  0.7818608E-02  0.1069217E+00
         -2   -1    0    0    0  501 -0.00000000000E+00  0.00000000000E+00  0.29308766149E+03  0.29308766149E+03  0.00000000000E+00 0.  1.
          2   -1    0    0  501    0  0.00000000000E+00 -0.00000000000E+00 -0.50670269357E+03  0.50670269357E+03  0.00000000000E+00 0. -1.
         23    2    1    2    0    0 -0.75150581741E+01 -0.92220976307E+02  0.48240412754E+02  0.13847117813E+03  0.91027167258E+02 0.  0.
    5000000    2    1    2    0    0  0.75150581741E+01  0.92220976307E+02 -0.26185544483E+03  0.66131917693E+03  0.60017796962E+03 0.  0.
         23    2    4    4    0    0  0.14407348647E+03  0.26835779029E+03 -0.19187620447E+02  0.31958077952E+03  0.94818968284E+02 0.  0.
         23    2    4    4    0    0 -0.13655842830E+03 -0.17613681398E+03 -0.24266782439E+03  0.34173839742E+03  0.90692214111E+02 0.  0.
          4    1    3    3  502    0  0.31476203065E+02 -0.50702755730E+02 -0.57968458723E+01  0.59959354733E+02  0.00000000000E+00 0. -1.
         -4    1    3    3    0  502 -0.38991261239E+02 -0.41518220577E+02  0.54037258626E+02  0.78511823394E+02  0.00000000000E+00 0.  1.
         15    1    5    5    0    0 -0.93926837194E+01  0.27004483569E+02  0.13560235793E+02  0.31693885278E+02  0.17770000000E+01 0.  1.
        -15    1    5    5    0    0  0.15346617019E+03  0.24135330672E+03 -0.32747856241E+02  0.28788689424E+03  0.17770000000E+01 0. -1.
          3    1    6    6  503    0 -0.81636869684E+02 -0.16095102768E+03 -0.15907540771E+03  0.24057181286E+03  0.00000000000E+00 0. -1.
         -3    1    6    6    0  503 -0.54921558615E+02 -0.15185786298E+02 -0.83592416676E+02  0.10116658456E+03  0.00000000000E+00 0.  1.
<mgrwt>
<rscale>  0 0.33437674E+03</rscale>
<asrwt>0</asrwt>
<pdfrwt beam="1">  1        2 0.77954260E-01 0.33437674E+03</pdfrwt>
<pdfrwt beam="2">  1       -2 0.45090410E-01 0.33437674E+03</pdfrwt>
<totfact> 0.29036862E+02</totfact>
</mgrwt>
</event>
<event>
12    1  0.8033771E-008  0.5090315E+03  0.7818608E-02  0.1011448E+00
          2   -1    0    0  501    0  0.00000000000E+00  0.00000000000E+00  0.14491606680E+04  0.14491606680E+04  0.00000000000E+00 0.  1.
         -2   -1    0    0    0  501 -0.00000000000E+00 -0.00000000000E+00 -0.20453411035E+03  0.20453411035E+03  0.00000000000E+00 0. -1.
         23    2    1    2    0    0  0.25547020904E+03 -0.23157365634E+03  0.66077113226E+03  0.74823405104E+03  0.65911454952E+02 0.  0.
    5000000    2    1    2    0    0 -0.25547020904E+03  0.23157365634E+03  0.58385542535E+03  0.90546072726E+03  0.60006715032E+03 0.  0.
         23    2    4    4    0    0  0.16810018588E+03 -0.10405455651E+02  0.21223857934E+03  0.28454204174E+03  0.86908071860E+02 0.  0.
         23    2    4    4    0    0 -0.42357039492E+03  0.24197911199E+03  0.37161684601E+03  0.62091868553E+03  0.97340452572E+02 0.  0.
          3    1    3    3  502    0  0.11294437376E+03 -0.12589186963E+03  0.38227578323E+03  0.41801910106E+03  0.00000000000E+00 0. -1.
         -3    1    3    3    0  502  0.14252583527E+03 -0.10568178670E+03  0.27849534903E+03  0.33021494998E+03  0.00000000000E+00 0.  1.
         15    1    5    5    0    0  0.69273021453E+02 -0.26608424572E+02  0.14793936810E+03  0.16551729252E+03  0.17770000000E+01 0.  1.
        -15    1    5    5    0    0  0.98827164431E+02  0.16202968921E+02  0.64299211233E+02  0.11902474921E+03  0.17770000000E+01 0. -1.
          2    1    6    6  503    0 -0.14917992744E+03  0.13939055641E+03  0.14161872855E+03  0.24847583835E+03  0.00000000000E+00 0. -1.
         -2    1    6    6    0  503 -0.27439046748E+03  0.10258855558E+03  0.22999811746E+03  0.37244284718E+03  0.00000000000E+00 0.  1.
<mgrwt>
<rscale>  0 0.50903150E+03</rscale>
<asrwt>0</asrwt>
<pdfrwt beam="1">  1        2 0.22294779E+00 0.50903150E+03</pdfrwt>
<pdfrwt beam="2">  1       -2 0.31466787E-01 0.50903150E+03</pdfrwt>
<totfact> 0.13238888E+02</totfact>
</mgrwt>
</event>
<event>
12    1  0.8033771E-008  0.4947618E+03  0.7818608E-02  0.1015155E+00
         -1   -1    0    0    0  501 -0.00000000000E+00  0.00000000000E+00  0.22002767383E+03  0.22002767383E+03  0.00000000000E+00 0. -1.
          1   -1    0    0  501    0  0.00000000000E+00 -0.00000000000E+00 -0.16455626164E+04  0.16455626164E+04  0.00000000000E+00 0.  1.
         23    2    1    2    0    0  0.28442813910E+03 -0.34359930046E+03 -0.51422469988E+03  0.68686082874E+03  0.91601913203E+02 0.  0.
    5000000    2    1    2    0    0 -0.28442813910E+03  0.34359930046E+03 -0.91131024266E+03  0.11787294614E+04  0.59996411504E+03 0.  0.
         23    2    4    4    0    0 -0.43578673029E+02 -0.21693163338E+02  0.53457812877E+02  0.11555515702E+03  0.90141901899E+02 0.  0.
         23    2    4    4    0    0 -0.24084946607E+03  0.36529246380E+03 -0.96476805553E+03  0.10631743044E+04  0.90084134048E+02 0.  0.
          4    1    3    3  502    0  0.25349715608E+03 -0.32738567195E+03 -0.43645843597E+03  0.60161295919E+03  0.00000000000E+00 0. -1.
         -4    1    3    3    0  502  0.30930983015E+02 -0.16213628515E+02 -0.77766263912E+02  0.85247869550E+02  0.00000000000E+00 0.  1.
         15    1    5    5    0    0  0.25159511671E+02  0.93157435270E+01  0.11527108808E+02  0.29254334234E+02  0.17770000000E+01 0. -1.
        -15    1    5    5    0    0 -0.68738184701E+02 -0.31008906865E+02  0.41930704069E+02  0.86300822787E+02  0.17770000000E+01 0.  1.
          3    1    6    6  503    0 -0.22710022059E+03  0.33234801129E+03 -0.81207682402E+03  0.90636553272E+03  0.00000000000E+00 0. -1.
         -3    1    6    6    0  503 -0.13749245475E+02  0.32944452509E+02 -0.15269123151E+03  0.15680877170E+03  0.00000000000E+00 0.  1.
<mgrwt>
<rscale>  0 0.49476179E+03</rscale>
<asrwt>0</asrwt>
<pdfrwt beam="1">  1        1 0.25316347E+00 0.49476179E+03</pdfrwt>
<pdfrwt beam="2">  1       -1 0.33850412E-01 0.49476179E+03</pdfrwt>
<totfact> 0.45692091E+01</totfact>
</mgrwt>
</event>
<event>
12    1  0.8033771E-008  0.4663421E+03  0.7818608E-02  0.1022958E+00
          2   -1    0    0  501    0  0.00000000000E+00  0.00000000000E+00  0.34158753023E+04  0.34158753023E+04  0.00000000000E+00 0. -1.
         -2   -1    0    0    0  501 -0.00000000000E+00 -0.00000000000E+00 -0.98420255923E+02  0.98420255923E+02  0.00000000000E+00 0.  1.
         23    2    1    2    0    0  0.34230431453E+03 -0.20515933878E+03  0.84792662230E+03  0.94163637842E+03  0.91852677266E+02 0.  0.
    5000000    2    1    2    0    0 -0.34230431453E+03  0.20515933878E+03  0.24695284240E+04  0.25726591798E+04  0.60061803175E+03 0.  0.
         23    2    4    4    0    0 -0.88857288659E+01  0.16990899513E+03  0.20478498180E+03  0.28146191827E+03  0.91301149287E+02 0.  0.
         23    2    4    4    0    0 -0.33341858567E+03  0.35250343645E+02  0.22647434422E+04  0.22911972615E+04  0.90063821409E+02 0.  0.
          3    1    3    3  502    0  0.22625328628E+03 -0.13430724594E+03  0.45189054608E+03  0.52290921918E+03  0.00000000000E+00 0. -1.
         -3    1    3    3    0  502  0.11605102825E+03 -0.70852092837E+02  0.39603607622E+03  0.41872715924E+03  0.00000000000E+00 0.  1.
         15    1    5    5    0    0 -0.13872239317E+02  0.17914714751E+03  0.17931768832E+03  0.25385848530E+03  0.17770000000E+01 0.  1.
        -15    1    5    5    0    0  0.49865104508E+01 -0.92381523750E+01  0.25467293476E+02  0.27603432971E+02  0.17770000000E+01 0. -1.
          4    1    6    6  503    0  0.74435934224E+00  0.79494203423E+01  0.19696666014E+02  0.21253376359E+02  0.00000000000E+00 0. -1.
         -4    1    6    6    0  503 -0.33416294501E+03  0.27300923303E+02  0.22450467762E+04  0.22699438851E+04  0.00000000000E+00 0.  1.
<mgrwt>
<rscale>  0 0.46634210E+03</rscale>
<asrwt>0</asrwt>
<pdfrwt beam="1">  1        2 0.52551918E+00 0.46634210E+03</pdfrwt>
<pdfrwt beam="2">  1       -2 0.15141581E-01 0.46634210E+03</pdfrwt>
<totfact> 0.36441241E+01</totfact>
</mgrwt>
</event>
<event>
12    1  0.8033771E-008  0.1944397E+04  0.7818608E-02  0.8633068E-01
          2   -1    0    0  501    0  0.00000000000E+00  0.00000000000E+00  0.17388436657E+04  0.17388436657E+04  0.00000000000E+00 0. -1.
         -2   -1    0    0    0  501 -0.00000000000E+00 -0.00000000000E+00 -0.30912039423E+04  0.30912039423E+04  0.00000000000E+00 0.  1.
         23    2    1    2    0    0 -0.14472082176E+04 -0.12728677198E+04 -0.19315200256E+04  0.27300529490E+04  0.88406096178E+02 0.  0.
    5000000    2    1    2    0    0  0.14472082176E+04  0.12728677198E+04  0.57915974898E+03  0.20999946590E+04  0.59995641154E+03 0.  0.
         23    2    4    4    0    0  0.13693194336E+04  0.12794867658E+04  0.46480615899E+03  0.19330550426E+04  0.92384724316E+02 0.  0.
         23    2    4    4    0    0  0.77888783961E+02 -0.66190459554E+01  0.11435358999E+03  0.16693961637E+03  0.93175198057E+02 0.  0.
          1    1    3    3  502    0 -0.49940707558E+03 -0.47933126494E+03 -0.73591048467E+03  0.10103118975E+04  0.00000000000E+00 0.  1.
         -1    1    3    3    0  502 -0.94780114200E+03 -0.79353645489E+03 -0.11956095409E+04  0.17197410515E+04  0.00000000000E+00 0. -1.
         15    1    5    5    0    0  0.10896589174E+04  0.99722458365E+03  0.40153582097E+03  0.15307016691E+04  0.17770000000E+01 0. -1.
        -15    1    5    5    0    0  0.27966051625E+03  0.28226218213E+03  0.63270338026E+02  0.40235337356E+03  0.17770000000E+01 0.  1.
          3    1    6    6  503    0  0.40589983985E+02  0.14537589034E+02  0.11627924700E+03  0.12401512640E+03  0.00000000000E+00 0. -1.
         -3    1    6    6    0  503  0.37298799976E+02 -0.21156634990E+02 -0.19256570070E+01  0.42924489963E+02  0.00000000000E+00 0.  1.
<mgrwt>
<rscale>  0 0.19443965E+04</rscale>
<asrwt>0</asrwt>
<pdfrwt beam="1">  1        2 0.26751441E+00 0.19443965E+04</pdfrwt>
<pdfrwt beam="2">  1       -2 0.47556984E+00 0.19443965E+04</pdfrwt>
<totfact> 0.19551666E-02</totfact>
</mgrwt>
</event>
<event>
12    1  0.8033771E-008  0.2021245E+04  0.7818608E-02  0.8596752E-01
         -1   -1    0    0    0  501 -0.00000000000E+00  0.00000000000E+00  0.17969410150E+04  0.17969410150E+04  0.00000000000E+00 0.  1.
          1   -1    0    0  501    0  0.00000000000E+00 -0.00000000000E+00 -0.24463037099E+04  0.24463037099E+04  0.00000000000E+00 0. -1.
         23    2    1    2    0    0  0.96296993371E+03  0.17492035388E+04  0.16379409536E+03  0.20054973851E+04  0.90372243597E+02 0.  0.
    5000000    2    1    2    0    0 -0.96296993371E+03 -0.17492035388E+04 -0.81315679032E+03  0.22377473398E+04  0.59938725194E+03 0.  0.
         23    2    4    4    0    0 -0.34629166310E+03 -0.10722786684E+04 -0.24627584556E+03  0.11569025791E+04  0.89846128720E+02 0.  0.
         23    2    4    4    0    0 -0.61667827061E+03 -0.67692487047E+03 -0.56688094476E+03  0.10808447607E+04  0.91389395371E+02 0.  0.
          3    1    3    3  502    0  0.43956353010E+03  0.79913963840E+03  0.29663430609E+02  0.91253502825E+03  0.00000000000E+00 0. -1.
         -3    1    3    3    0  502  0.52340640361E+03  0.95006390042E+03  0.13413066475E+03  0.10929623568E+04  0.00000000000E+00 0.  1.
         15    1    5    5    0    0 -0.47393115712E+02 -0.24600134330E+03 -0.76702661193E+02  0.26200996982E+03  0.17770000000E+01 0. -1.
        -15    1    5    5    0    0 -0.29889854739E+03 -0.82627732505E+03 -0.16957318436E+03  0.89489260926E+03  0.17770000000E+01 0.  1.
          3    1    6    6  503    0 -0.13955458706E+03 -0.12984501813E+03 -0.79701925934E+02  0.20660979769E+03  0.00000000000E+00 0. -1.
         -3    1    6    6    0  503 -0.47712368354E+03 -0.54707985234E+03 -0.48717901883E+03  0.87423496305E+03  0.00000000000E+00 0.  1.
<mgrwt>
<rscale>  0 0.20212455E+04</rscale>
<asrwt>0</asrwt>
<pdfrwt beam="1">  1        1 0.37635442E+00 0.20212455E+04</pdfrwt>
<pdfrwt beam="2">  1       -1 0.27645246E+00 0.20212455E+04</pdfrwt>
<totfact> 0.61500114E-02</totfact>
</mgrwt>
</event>
<event>
12    1  0.8033771E-008  0.9420360E+03  0.7818608E-02  0.9374508E-01
         -2   -1    0    0    0  501 -0.00000000000E+00  0.00000000000E+00  0.10028841345E+04  0.10028841345E+04  0.00000000000E+00 0.  1.
          2   -1    0    0  501    0  0.00000000000E+00 -0.00000000000E+00 -0.10190933129E+04  0.10190933129E+04  0.00000000000E+00 0. -1.
         23    2    1    2    0    0  0.54516691958E+03  0.73949810303E+03 -0.42278642751E+02  0.92426156747E+03  0.91692676290E+02 0.  0.
    5000000    2    1    2    0    0 -0.54516691958E+03 -0.73949810303E+03  0.26069464355E+02  0.10977158799E+04  0.60019673560E+03 0.  0.
         23    2    4    4    0    0 -0.63851876814E+02 -0.45733419670E+02 -0.18780138324E+03  0.22162571970E+03  0.87635564920E+02 0.  0.
         23    2    4    4    0    0 -0.48131504276E+03 -0.69376468336E+03  0.21387084759E+03  0.87609016020E+03  0.93912848294E+02 0.  0.
          1    1    3    3  502    0  0.42584617147E+03  0.53655949619E+03  0.37019327946E+00  0.68501181870E+03  0.00000000000E+00 0. -1.
         -1    1    3    3    0  502  0.11932074810E+03  0.20293860684E+03 -0.42648836031E+02  0.23924974877E+03  0.00000000000E+00 0.  1.
         15    1    5    5    0    0 -0.80505180823E+02 -0.13924845100E+02 -0.12896593639E+03  0.15267729343E+03  0.17770000000E+01 0. -1.
        -15    1    5    5    0    0  0.16653304009E+02 -0.31808574570E+02 -0.58835446850E+02  0.68948426274E+02  0.17770000000E+01 0.  1.
          2    1    6    6  503    0 -0.28030797332E+03 -0.35859655389E+03  0.74776522451E+02  0.46125435139E+03  0.00000000000E+00 0. -1.
         -2    1    6    6    0  503 -0.20100706944E+03 -0.33516812947E+03  0.13909432514E+03  0.41483580880E+03  0.00000000000E+00 0.  1.
<mgrwt>
<rscale>  0 0.94203599E+03</rscale>
<asrwt>0</asrwt>
<pdfrwt beam="1">  1        2 0.15678359E+00 0.94203599E+03</pdfrwt>
<pdfrwt beam="2">  1       -2 0.15428987E+00 0.94203599E+03</pdfrwt>
<totfact> 0.67847998E+00</totfact>
</mgrwt>
</event>
<event>
12    1  0.8033771E-008  0.4716344E+03  0.7818608E-02  0.1021460E+00
          1   -1    0    0  501    0  0.00000000000E+00  0.00000000000E+00  0.27160869878E+04  0.27160869878E+04  0.00000000000E+00 0. -1.
         -1   -1    0    0    0  501 -0.00000000000E+00 -0.00000000000E+00 -0.10451945176E+03  0.10451945176E+03  0.00000000000E+00 0.  1.
         23    2    1    2    0    0 -0.31065064871E+03  0.57302583008E+02  0.13366548439E+04  0.13765806383E+04  0.92415747818E+02 0.  0.
    5000000    2    1    2    0    0  0.31065064871E+03 -0.57302583008E+02  0.12749126921E+04  0.14440258013E+04  0.60001727524E+03 0.  0.
         23    2    4    4    0    0 -0.65980074192E+02 -0.19626651426E+03  0.70700260187E+03  0.74250325866E+03  0.92652551291E+02 0.  0.
         23    2    4    4    0    0  0.37663072290E+03  0.13896393125E+03  0.56791009026E+03  0.70152254260E+03  0.91925684857E+02 0.  0.
          1    1    3    3  502    0 -0.25847034575E+03  0.75130015214E+02  0.10073716858E+04  0.10427124015E+04  0.00000000000E+00 0. -1.
         -1    1    3    3    0  502 -0.52180302962E+02 -0.17827432206E+02  0.32928315808E+03  0.33386823681E+03  0.00000000000E+00 0.  1.
         15    1    5    5    0    0 -0.39703654366E+00 -0.73555886795E+02  0.13425798567E+03  0.15309797702E+03  0.17770000000E+01 0. -1.
        -15    1    5    5    0    0 -0.65583037648E+02 -0.12271062746E+03  0.57274461619E+03  0.58940528164E+03  0.17770000000E+01 0.  1.
          3    1    6    6  503    0  0.72294128632E+02  0.15483461676E+01  0.15058602101E+03  0.16704786180E+03  0.00000000000E+00 0. -1.
         -3    1    6    6    0  503  0.30433659427E+03  0.13741558508E+03  0.41732406925E+03  0.53447468079E+03  0.00000000000E+00 0.  1.
<mgrwt>
<rscale>  0 0.47163438E+03</rscale>
<asrwt>0</asrwt>
<pdfrwt beam="1">  1        1 0.41785948E+00 0.47163438E+03</pdfrwt>
<pdfrwt beam="2">  1       -1 0.16079918E-01 0.47163438E+03</pdfrwt>
<totfact> 0.30934991E+01</totfact>
</mgrwt>
</event>
<event>
12    1  0.8033771E-008  0.4354944E+03  0.7818608E-02  0.1032138E+00
          1   -1    0    0  501    0  0.00000000000E+00  0.00000000000E+00  0.14762805003E+04  0.14762805003E+04  0.00000000000E+00 0. -1.
         -1   -1    0    0    0  501 -0.00000000000E+00 -0.00000000000E+00 -0.19885178897E+03  0.19885178897E+03  0.00000000000E+00 0.  1.
         23    2    1    2    0    0 -0.20156547663E+03 -0.24474547496E+03  0.73868825744E+03  0.80864232719E+03  0.87824158228E+02 0.  0.
    5000000    2    1    2    0    0  0.20156547663E+03  0.24474547496E+03  0.53874045390E+03  0.86648996209E+03  0.60002882334E+03 0.  0.
         23    2    4    4    0    0  0.17499852028E+03 -0.85493061556E+02  0.46793585364E+03  0.51512458028E+03  0.91955556733E+02 0.  0.
         23    2    4    4    0    0  0.26566956354E+02  0.33023853652E+03  0.70804600261E+02  0.35136538181E+03  0.93172130717E+02 0.  0.
          2    1    3    3  502    0 -0.59589089322E+01 -0.36597552921E+02  0.44104349504E+02  0.57620162449E+02  0.00000000000E+00 0. -1.
         -2    1    3    3    0  502 -0.19560656770E+03 -0.20814792204E+03  0.69458390793E+03  0.75102216474E+03  0.00000000000E+00 0.  1.
         15    1    5    5    0    0  0.14118123452E+03 -0.22136450307E+02  0.32947667619E+03  0.35913813679E+03  0.17770000000E+01 0. -1.
        -15    1    5    5    0    0  0.33817285764E+02 -0.63356611249E+02  0.13845917744E+03  0.15598644349E+03  0.17770000000E+01 0.  1.
          3    1    6    6  503    0  0.29191917974E+02  0.12897511635E+03 -0.13944442143E+02  0.13297065909E+03  0.00000000000E+00 0. -1.
         -3    1    6    6    0  503 -0.26249616196E+01  0.20126342017E+03  0.84749042405E+02  0.21839472271E+03  0.00000000000E+00 0.  1.
<mgrwt>
<rscale>  0 0.43549441E+03</rscale>
<asrwt>0</asrwt>
<pdfrwt beam="1">  1        1 0.22712007E+00 0.43549441E+03</pdfrwt>
<pdfrwt beam="2">  1       -1 0.30592584E-01 0.43549441E+03</pdfrwt>
<totfact> 0.71556244E+01</totfact>
</mgrwt>
</event>
<event>
12    1  0.8033771E-008  0.1686413E+04  0.7818608E-02  0.8769151E-01
          1   -1    0    0  501    0  0.00000000000E+00  0.00000000000E+00  0.33691281513E+04  0.33691281513E+04  0.00000000000E+00 0. -1.
         -1   -1    0    0    0  501 -0.00000000000E+00 -0.00000000000E+00 -0.99244186157E+03  0.99244186157E+03  0.00000000000E+00 0.  1.
         23    2    1    2    0    0 -0.16665309113E+04  0.22719047997E+03  0.18436255251E+04  0.24979486279E+04  0.10886449636E+03 0.  0.
    5000000    2    1    2    0    0  0.16665309113E+04 -0.22719047997E+03  0.53306076461E+03  0.18636213849E+04  0.59999174604E+03 0.  0.
         23    2    4    4    0    0  0.60997951163E+03 -0.60930786748E+02  0.48863893865E+03  0.78922608324E+03  0.91226272108E+02 0.  0.
         23    2    4    4    0    0  0.10565513996E+04 -0.16625969322E+03  0.44421825961E+02  0.10743953017E+04  0.91699618698E+02 0.  0.
          2    1    3    3  502    0 -0.98785125068E+03  0.18839560520E+03  0.11062858661E+04  0.14950623449E+04  0.00000000000E+00 0. -1.
         -2    1    3    3    0  502 -0.67867966057E+03  0.38794874773E+02  0.73733965903E+03  0.10028862831E+04  0.00000000000E+00 0.  1.
         15    1    5    5    0    0  0.44175495319E+03 -0.77556908442E+02  0.38372991384E+03  0.59026631042E+03  0.17770000000E+01 0.  1.
        -15    1    5    5    0    0  0.16822455844E+03  0.16626121693E+02  0.10490902481E+03  0.19895977282E+03  0.17770000000E+01 0. -1.
          3    1    6    6  503    0  0.32489366354E+03 -0.40073859475E+02  0.54533943027E+02  0.33186707846E+03  0.00000000000E+00 0. -1.
         -3    1    6    6    0  503  0.73165773608E+03 -0.12618583375E+03 -0.10112117066E+02  0.74252822324E+03  0.00000000000E+00 0.  1.
<mgrwt>
<rscale>  0 0.16864133E+04</rscale>
<asrwt>0</asrwt>
<pdfrwt beam="1">  1        1 0.51832740E+00 0.16864133E+04</pdfrwt>
<pdfrwt beam="2">  1       -1 0.15268336E+00 0.16864133E+04</pdfrwt>
<totfact> 0.98038441E-02</totfact>
</mgrwt>
</event>
<event>
12    1  0.8033771E-008  0.1256466E+04  0.7818608E-02  0.9064819E-01
          2   -1    0    0  501    0  0.00000000000E+00  0.00000000000E+00  0.24586582418E+04  0.24586582418E+04  0.00000000000E+00 0. -1.
         -2   -1    0    0    0  501 -0.00000000000E+00 -0.00000000000E+00 -0.83805598169E+03  0.83805598169E+03  0.00000000000E+00 0.  1.
         23    2    1    2    0    0  0.96643966674E+03 -0.78997186847E+03  0.12441126606E+03  0.12578066675E+04  0.92402744731E+02 0.  0.
    5000000    2    1    2    0    0 -0.96643966674E+03  0.78997186847E+03  0.14961909941E+04  0.20389075560E+04  0.60041264884E+03 0.  0.
         23    2    4    4    0    0 -0.40563861143E+03  0.24644341144E+03  0.99349959458E+03  0.11058714502E+04  0.10311732078E+03 0.  0.
         23    2    4    4    0    0 -0.56080105531E+03  0.54352845703E+03  0.50269139950E+03  0.93303610582E+03  0.89088295552E+02 0.  0.
          4    1    3    3  502    0  0.81878582258E+03 -0.70738220217E+03  0.11872020188E+03  0.10885284973E+04  0.00000000000E+00 0. -1.
         -4    1    3    3    0  502  0.14765384416E+03 -0.82589666303E+02  0.56910641772E+01  0.16927817014E+03  0.00000000000E+00 0.  1.
         15    1    5    5    0    0 -0.19342137289E+03  0.89178878961E+02  0.34255258991E+03  0.40337344301E+03  0.17770000000E+01 0.  1.
        -15    1    5    5    0    0 -0.21221723854E+03  0.15726453248E+03  0.65094700467E+03  0.70249800720E+03  0.17770000000E+01 0. -1.
          3    1    6    6  503    0 -0.44797034786E+03  0.47325259018E+03  0.43829053717E+03  0.78533053019E+03  0.00000000000E+00 0. -1.
         -3    1    6    6    0  503 -0.11283070745E+03  0.70275866849E+02  0.64400862326E+02  0.14770557563E+03  0.00000000000E+00 0.  1.
<mgrwt>
<rscale>  0 0.12564662E+04</rscale>
<asrwt>0</asrwt>
<pdfrwt beam="1">  1        2 0.37825511E+00 0.12564662E+04</pdfrwt>
<pdfrwt beam="2">  1       -2 0.12893169E+00 0.12564662E+04</pdfrwt>
<totfact> 0.15865993E+00</totfact>
</mgrwt>
</event>
<event>
12    1  0.8033771E-008  0.1353574E+04  0.7818608E-02  0.8988127E-01
         -2   -1    0    0    0  501 -0.00000000000E+00  0.00000000000E+00  0.17654563227E+04  0.17654563227E+04  0.00000000000E+00 0.  1.
          2   -1    0    0  501    0  0.00000000000E+00 -0.00000000000E+00 -0.14653652469E+04  0.14653652469E+04  0.00000000000E+00 0. -1.
         23    2    1    2    0    0 -0.38013871719E+03  0.12422562668E+04 -0.70588685348E+03  0.14816645436E+04  0.96682434542E+02 0.  0.
    5000000    2    1    2    0    0  0.38013871719E+03 -0.12422562668E+04  0.10059779293E+04  0.17491570259E+04  0.59987717941E+03 0.  0.
         23    2    4    4    0    0  0.30106991255E+03 -0.12668821106E+04  0.94212237999E+03  0.16097644342E+04  0.90075414446E+02 0.  0.
         23    2    4    4    0    0  0.79068804645E+02  0.24625843756E+02  0.63855549275E+02  0.13939259175E+03  0.92165369919E+02 0.  0.
          4    1    3    3  502    0 -0.13291696714E+03  0.59911404097E+03 -0.33504408597E+03  0.69918459206E+03  0.00000000000E+00 0. -1.
         -4    1    3    3    0  502 -0.24722175006E+03  0.64314222586E+03 -0.37084276751E+03  0.78247995156E+03  0.00000000000E+00 0.  1.
         15    1    5    5    0    0  0.49393154074E+02 -0.31166148885E+03  0.26600385357E+03  0.41271512590E+03  0.17770000000E+01 0. -1.
        -15    1    5    5    0    0  0.25167675847E+03 -0.95522062173E+03  0.67611852641E+03  0.11970493083E+04  0.17770000000E+01 0.  1.
          4    1    6    6  503    0 -0.79838542059E+01 -0.46319002624E+01  0.44616476753E+02  0.45561238195E+02  0.00000000000E+00 0. -1.
         -4    1    6    6    0  503  0.87052658851E+02  0.29257744018E+02  0.19239072522E+02  0.93831353552E+02  0.00000000000E+00 0.  1.
<mgrwt>
<rscale>  0 0.13535740E+04</rscale>
<asrwt>0</asrwt>
<pdfrwt beam="1">  1        2 0.22544081E+00 0.13535740E+04</pdfrwt>
<pdfrwt beam="2">  1       -2 0.27160866E+00 0.13535740E+04</pdfrwt>
<totfact> 0.60130165E-01</totfact>
</mgrwt>
</event>
<event>
12    1  0.8033771E-008  0.6841788E+03  0.7818608E-02  0.9744678E-01
         -2   -1    0    0    0  501 -0.00000000000E+00  0.00000000000E+00  0.16210321569E+04  0.16210321569E+04  0.00000000000E+00 0.  1.
          2   -1    0    0  501    0  0.00000000000E+00 -0.00000000000E+00 -0.42820763275E+03  0.42820763275E+03  0.00000000000E+00 0. -1.
         23    2    1    2    0    0 -0.50602116755E+03 -0.30342626740E+03  0.10323875363E+04  0.11925560472E+04  0.90779837408E+02 0.  0.
    5000000    2    1    2    0    0  0.50602116755E+03  0.30342626740E+03  0.16043698792E+03  0.85668374250E+03  0.60003507048E+03 0.  0.
         23    2    4    4    0    0  0.28353029995E+03  0.41906468781E+03  0.25413101134E+03  0.57385842565E+03  0.93414550311E+02 0.  0.
         23    2    4    4    0    0  0.22249086761E+03 -0.11563842041E+03 -0.93694023420E+02  0.28282531685E+03  0.91308046644E+02 0.  0.
          1    1    3    3  502    0 -0.33281179932E+03 -0.14832268832E+03  0.64039726793E+03  0.73679846255E+03  0.00000000000E+00 0. -1.
         -1    1    3    3    0  502 -0.17320936824E+03 -0.15510357907E+03  0.39199026832E+03  0.45575758462E+03  0.00000000000E+00 0.  1.
         15    1    5    5    0    0  0.11870536043E+03  0.25652472573E+03  0.15039376542E+03  0.32018329112E+03  0.17770000000E+01 0. -1.
        -15    1    5    5    0    0  0.16482493952E+03  0.16253996208E+03  0.10373724592E+03  0.25367513454E+03  0.17770000000E+01 0.  1.
          2    1    6    6  503    0  0.16638128887E+03 -0.11305666629E+03 -0.39950963680E+02  0.20508686593E+03  0.00000000000E+00 0. -1.
         -2    1    6    6    0  503  0.56109578737E+02 -0.25817541161E+01 -0.53743059740E+02  0.77738450914E+02  0.00000000000E+00 0.  1.
<mgrwt>
<rscale>  0 0.68417881E+03</rscale>
<asrwt>0</asrwt>
<pdfrwt beam="1">  1        2 0.65878098E-01 0.68417881E+03</pdfrwt>
<pdfrwt beam="2">  1       -2 0.24938956E+00 0.68417881E+03</pdfrwt>
<totfact> 0.49500643E+00</totfact>
</mgrwt>
</event>
<event>
12    1  0.8033771E-008  0.5322042E+03  0.7818608E-02  0.1005699E+00
         -2   -1    0    0    0  501 -0.00000000000E+00  0.00000000000E+00  0.31650928337E+03  0.31650928337E+03  0.00000000000E+00 0.  1.
          2   -1    0    0  501    0  0.00000000000E+00 -0.00000000000E+00 -0.10651525159E+04  0.10651525159E+04  0.00000000000E+00 0. -1.
         23    2    1    2    0    0  0.18681016216E+03  0.31109603649E+03 -0.52640519187E+03  0.64612744190E+03  0.93270920136E+02 0.  0.
    5000000    2    1    2    0    0 -0.18681016216E+03 -0.31109603649E+03 -0.22223804068E+03  0.73553435739E+03  0.59995188439E+03 0.  0.
         23    2    4    4    0    0 -0.17905238852E+03  0.13498212900E+03 -0.47219183388E+02  0.24743217400E+03  0.93343968560E+02 0.  0.
         23    2    4    4    0    0 -0.77577736344E+01 -0.44607816549E+03 -0.17501885729E+03  0.48810218339E+03  0.92553920770E+02 0.  0.
          2    1    3    3  502    0  0.10461592064E+03  0.87608440972E+02 -0.18484745849E+03  0.22975707322E+03  0.00000000000E+00 0. -1.
         -2    1    3    3    0  502  0.82194241515E+02  0.22348759552E+03 -0.34155773337E+03  0.41637036868E+03  0.00000000000E+00 0.  1.
         15    1    5    5    0    0 -0.20824398382E+02  0.52679418036E+02 -0.39162049002E+02  0.68888318775E+02  0.17770000000E+01 0.  1.
        -15    1    5    5    0    0 -0.15822799014E+03  0.82302710963E+02 -0.80571343865E+01  0.17854385523E+03  0.17770000000E+01 0. -1.
          1    1    6    6  503    0 -0.31609399486E+02 -0.58582064184E+02 -0.15297519662E+02  0.68300999171E+02  0.00000000000E+00 0. -1.
         -1    1    6    6    0  503  0.23851625852E+02 -0.38749610130E+03 -0.15972133763E+03  0.41980118422E+03  0.00000000000E+00 0.  1.
<mgrwt>
<rscale>  0 0.53220422E+03</rscale>
<asrwt>0</asrwt>
<pdfrwt beam="1">  1        2 0.16386962E+00 0.53220422E+03</pdfrwt>
<pdfrwt beam="2">  1       -2 0.48693736E-01 0.53220422E+03</pdfrwt>
<totfact> 0.94633560E+01</totfact>
</mgrwt>
</event>
<event>
12    1  0.8033771E-008  0.1339848E+04  0.7818608E-02  0.8998549E-01
          1   -1    0    0  501    0  0.00000000000E+00  0.00000000000E+00  0.12274314168E+04  0.12274314168E+04  0.00000000000E+00 0. -1.
         -1   -1    0    0    0  501 -0.00000000000E+00 -0.00000000000E+00 -0.17659761196E+04  0.17659761196E+04  0.00000000000E+00 0.  1.
         23    2    1    2    0    0 -0.12772685781E+04  0.12035203613E+03 -0.85216185623E+03  0.15427847991E+04  0.90030405869E+02 0.  0.
    5000000    2    1    2    0    0  0.12772685781E+04 -0.12035203613E+03  0.31361715344E+03  0.14506227373E+04  0.60004247665E+03 0.  0.
         23    2    4    4    0    0  0.44901445819E+03  0.21378404490E+03  0.20873097240E+03  0.54690285712E+03  0.90644993080E+02 0.  0.
         23    2    4    4    0    0  0.82825411990E+03 -0.33413608102E+03  0.10488618103E+03  0.90371988015E+03  0.89759139012E+02 0.  0.
          3    1    3    3  502    0 -0.29480759566E+03  0.40323527906E+02 -0.15550662891E+03  0.33573772054E+03  0.00000000000E+00 0. -1.
         -3    1    3    3    0  502 -0.98246098243E+03  0.80028508221E+02 -0.69665522732E+03  0.12070470786E+04  0.00000000000E+00 0.  1.
         15    1    5    5    0    0  0.20248513663E+03  0.13622495640E+03  0.13117336232E+03  0.27706872435E+03  0.17770000000E+01 0. -1.
        -15    1    5    5    0    0  0.24652932156E+03  0.77559088501E+02  0.77557610083E+02  0.26983413277E+03  0.17770000000E+01 0.  1.
          3    1    6    6  503    0  0.58017514055E+03 -0.25277600858E+03  0.11129406962E+03  0.64256149446E+03  0.00000000000E+00 0. -1.
         -3    1    6    6    0  503  0.24807897934E+03 -0.81360072445E+02 -0.64078885801E+01  0.26115838569E+03  0.00000000000E+00 0.  1.
<mgrwt>
<rscale>  0 0.13398477E+04</rscale>
<asrwt>0</asrwt>
<pdfrwt beam="1">  1        1 0.18883560E+00 0.13398477E+04</pdfrwt>
<pdfrwt beam="2">  1       -1 0.27168863E+00 0.13398477E+04</pdfrwt>
<totfact> 0.49628305E-01</totfact>
</mgrwt>
</event>
<event>
12    1  0.8033771E-008  0.1481202E+04  0.7818608E-02  0.8897051E-01
         -2   -1    0    0    0  501 -0.00000000000E+00  0.00000000000E+00  0.94228877577E+03  0.94228877577E+03  0.00000000000E+00 0.  1.
          2   -1    0    0  501    0  0.00000000000E+00 -0.00000000000E+00 -0.24529952780E+04  0.24529952780E+04  0.00000000000E+00 0. -1.
         23    2    1    2    0    0  0.14305533309E+04  0.17232025953E+03 -0.98730209925E+03  0.17490389884E+04  0.90525374773E+02 0.  0.
    5000000    2    1    2    0    0 -0.14305533309E+04 -0.17232025953E+03 -0.52340440293E+03  0.16462450653E+04  0.59999461802E+03 0.  0.
         23    2    4    4    0    0 -0.10080503541E+04 -0.33424943617E+03 -0.51647752343E+03  0.11851395340E+04  0.99591570001E+02 0.  0.
         23    2    4    4    0    0 -0.42250297681E+03  0.16192917664E+03 -0.69268795057E+01  0.46110553134E+03  0.88546630144E+02 0.  0.
          4    1    3    3  502    0  0.71417968807E+03  0.85302118227E+02 -0.54766495857E+03  0.90402764619E+03  0.00000000000E+00 0. -1.
         -4    1    3    3    0  502  0.71637364282E+03  0.87018141304E+02 -0.43963714068E+03  0.84501134224E+03  0.00000000000E+00 0.  1.
         15    1    5    5    0    0 -0.35779219339E+03 -0.85883616899E+02 -0.21866337589E+03  0.42802812874E+03  0.17770000000E+01 0.  1.
        -15    1    5    5    0    0 -0.65025816068E+03 -0.24836581927E+03 -0.29781414754E+03  0.75711140522E+03  0.17770000000E+01 0. -1.
          2    1    6    6  503    0 -0.10752332504E+02  0.18605083392E+02 -0.12936229106E+02  0.25082021565E+02  0.00000000000E+00 0. -1.
         -2    1    6    6    0  503 -0.41175064431E+03  0.14332409325E+03  0.60093496005E+01  0.43602350977E+03  0.00000000000E+00 0.  1.
<mgrwt>
<rscale>  0 0.14812018E+04</rscale>
<asrwt>0</asrwt>
<pdfrwt beam="1">  1        2 0.37738389E+00 0.14812018E+04</pdfrwt>
<pdfrwt beam="2">  1       -2 0.14496750E+00 0.14812018E+04</pdfrwt>
<totfact> 0.11509983E+00</totfact>
</mgrwt>
</event>
<event>
12    1  0.8033771E-008  0.6888692E+03  0.7818608E-02  0.9736459E-01
          2   -1    0    0  501    0  0.00000000000E+00  0.00000000000E+00  0.27884450299E+04  0.27884450299E+04  0.00000000000E+00 0. -1.
         -2   -1    0    0    0  501 -0.00000000000E+00 -0.00000000000E+00 -0.23329951594E+03  0.23329951594E+03  0.00000000000E+00 0.  1.
         23    2    1    2    0    0  0.45631347731E+03  0.47936153710E+03  0.14806159417E+04  0.16243158988E+04  0.90383071535E+02 0.  0.
    5000000    2    1    2    0    0 -0.45631347731E+03 -0.47936153710E+03  0.10745295723E+04  0.13974286470E+04  0.60015293799E+03 0.  0.
         23    2    4    4    0    0 -0.15478070861E+03 -0.31964736500E+03  0.95956299115E+03  0.10274013941E+04  0.93064413108E+02 0.  0.
         23    2    4    4    0    0 -0.30153276870E+03 -0.15971417209E+03  0.11496658114E+03  0.37002725288E+03  0.85277345929E+02 0.  0.
          4    1    3    3  502    0  0.26118191729E+03  0.33256995226E+03  0.97904370791E+03  0.10664639464E+04  0.00000000000E+00 0. -1.
         -4    1    3    3    0  502  0.19513156003E+03  0.14679158484E+03  0.50157223377E+03  0.55785195240E+03  0.00000000000E+00 0.  1.
         15    1    5    5    0    0 -0.74676531007E+02 -0.21359651399E+03  0.70194049251E+03  0.73751180860E+03  0.17770000000E+01 0.  1.
        -15    1    5    5    0    0 -0.80104177607E+02 -0.10605085101E+03  0.25762249864E+03  0.28988958554E+03  0.17770000000E+01 0. -1.
          3    1    6    6  503    0 -0.68902989726E+02 -0.80001127060E+02  0.40602834561E+02  0.11312114081E+03  0.00000000000E+00 0. -1.
         -3    1    6    6    0  503 -0.23262977897E+03 -0.79713045035E+02  0.74363746575E+02  0.25690611207E+03  0.00000000000E+00 0.  1.
<mgrwt>
<rscale>  0 0.68886924E+03</rscale>
<asrwt>0</asrwt>
<pdfrwt beam="1">  1        2 0.42899152E+00 0.68886924E+03</pdfrwt>
<pdfrwt beam="2">  1       -2 0.35892235E-01 0.68886924E+03</pdfrwt>
<totfact> 0.18263657E+01</totfact>
</mgrwt>
</event>
<event>
12    1  0.8033771E-008  0.1008954E+04  0.7818608E-02  0.9298779E-01
         -1   -1    0    0    0  501 -0.00000000000E+00  0.00000000000E+00  0.11644230581E+04  0.11644230581E+04  0.00000000000E+00 0.  1.
          1   -1    0    0  501    0  0.00000000000E+00 -0.00000000000E+00 -0.12311560419E+04  0.12311560419E+04  0.00000000000E+00 0. -1.
         23    2    1    2    0    0  0.92583387121E+03  0.54068816577E+02  0.59710916850E+03  0.11068738072E+04  0.92403852461E+02 0.  0.
    5000000    2    1    2    0    0 -0.92583387121E+03 -0.54068816577E+02 -0.66384215233E+03  0.12887052929E+04  0.59998594536E+03 0.  0.
         23    2    4    4    0    0 -0.42724606977E+03  0.25281643817E+03 -0.37383786566E+03  0.62890773111E+03  0.96513361272E+02 0.  0.
         23    2    4    4    0    0 -0.49858780144E+03 -0.30688525475E+03 -0.29000428667E+03  0.65979756175E+03  0.91989025860E+02 0.  0.
          1    1    3    3  502    0  0.52987334795E+03 -0.13679579681E+02  0.32724351407E+03  0.62292954118E+03  0.00000000000E+00 0.  1.
         -1    1    3    3    0  502  0.39596052326E+03  0.67748396258E+02  0.26986565443E+03  0.48394426602E+03  0.00000000000E+00 0. -1.
         15    1    5    5    0    0 -0.26102726919E+03  0.11836518760E+03 -0.25858558841E+03  0.38602489189E+03  0.17770000000E+01 0.  1.
        -15    1    5    5    0    0 -0.16621880058E+03  0.13445125057E+03 -0.11525227725E+03  0.24288283922E+03  0.17770000000E+01 0. -1.
          1    1    6    6  503    0 -0.16282259344E+03 -0.90565917357E+02 -0.46578580454E+02  0.19204933345E+03  0.00000000000E+00 0. -1.
         -1    1    6    6    0  503 -0.33576520800E+03 -0.21631933739E+03 -0.24342570622E+03  0.46774822830E+03  0.00000000000E+00 0.  1.
<mgrwt>
<rscale>  0 0.10089536E+04</rscale>
<asrwt>0</asrwt>
<pdfrwt beam="1">  1        1 0.18940862E+00 0.10089536E+04</pdfrwt>
<pdfrwt beam="2">  1       -1 0.17914201E+00 0.10089536E+04</pdfrwt>
<totfact> 0.21472957E+00</totfact>
</mgrwt>
</event>
<event>
12    1  0.8033771E-008  0.6010825E+03  0.7818608E-02  0.9903163E-01
         -2   -1    0    0    0  501 -0.00000000000E+00  0.00000000000E+00  0.16202735009E+04  0.16202735009E+04  0.00000000000E+00 0.  1.
          2   -1    0    0  501    0  0.00000000000E+00 -0.00000000000E+00 -0.10024887073E+04  0.10024887073E+04  0.00000000000E+00 0. -1.
         23    2    1    2    0    0  0.40748536851E+03  0.25073931894E+03  0.14268527530E+04  0.15076948884E+04  0.91217137867E+02 0.  0.
    5000000    2    1    2    0    0 -0.40748536851E+03 -0.25073931894E+03 -0.80906795946E+03  0.11150673197E+04  0.59989135092E+03 0.  0.
         23    2    4    4    0    0 -0.15074963674E+03  0.16313846596E+03 -0.43032846065E+03  0.49245028874E+03  0.89359335145E+02 0.  0.
         23    2    4    4    0    0 -0.25673573177E+03 -0.41387778489E+03 -0.37873949881E+03  0.62261703100E+03  0.83667810667E+02 0.  0.
          3    1    3    3  502    0  0.35548384081E+03  0.18355406880E+03  0.12255270700E+04  0.12891770463E+04  0.00000000000E+00 0. -1.
         -3    1    3    3    0  502  0.52001527702E+02  0.67185250138E+02  0.20132568298E+03  0.21851784217E+03  0.00000000000E+00 0.  1.
         15    1    5    5    0    0 -0.67727705328E+02  0.88254799192E+02 -0.30411549795E+03  0.32382919182E+03  0.17770000000E+01 0.  1.
        -15    1    5    5    0    0 -0.83021931414E+02  0.74883666764E+02 -0.12621296270E+03  0.16862109692E+03  0.17770000000E+01 0. -1.
          4    1    6    6  503    0 -0.51773955494E+02 -0.32625442085E+02 -0.51584721010E+02  0.80037150001E+02  0.00000000000E+00 0. -1.
         -4    1    6    6    0  503 -0.20496177627E+03 -0.38125234281E+03 -0.32715477780E+03  0.54257988100E+03  0.00000000000E+00 0.  1.
<mgrwt>
<rscale>  0 0.60108253E+03</rscale>
<asrwt>0</asrwt>
<pdfrwt beam="1">  1        2 0.15422903E+00 0.60108253E+03</pdfrwt>
<pdfrwt beam="2">  1       -2 0.24927284E+00 0.60108253E+03</pdfrwt>
<totfact> 0.17333365E+00</totfact>
</mgrwt>
</event>
<event>
12    1  0.8033771E-008  0.9323824E+03  0.7818608E-02  0.9385983E-01
          2   -1    0    0  501    0  0.00000000000E+00  0.00000000000E+00  0.59188601089E+03  0.59188601089E+03  0.00000000000E+00 0. -1.
         -2   -1    0    0    0  501 -0.00000000000E+00 -0.00000000000E+00 -0.17025634977E+04  0.17025634977E+04  0.00000000000E+00 0.  1.
         23    2    1    2    0    0 -0.57041771440E+01 -0.90477466207E+03 -0.37781850249E+03  0.98473415862E+03  0.91130760896E+02 0.  0.
    5000000    2    1    2    0    0  0.57041771440E+01  0.90477466207E+03 -0.73285898436E+03  0.13097153500E+04  0.59968515099E+03 0.  0.
         23    2    4    4    0    0  0.15025214575E+03  0.59575756680E+03 -0.72829374844E+03  0.95655586324E+03  0.84169767613E+02 0.  0.
         23    2    4    4    0    0 -0.14454796860E+03  0.30901709527E+03 -0.45652359200E+01  0.35315948676E+03  0.91187177368E+02 0.  0.
          1    1    3    3  502    0  0.74795126187E+01 -0.30031718152E+03 -0.80644097423E+02  0.31104633590E+03  0.00000000000E+00 0. -1.
         -1    1    3    3    0  502 -0.13183689763E+02 -0.60445748055E+03 -0.29717440507E+03  0.67368782273E+03  0.00000000000E+00 0.  1.
         15    1    5    5    0    0  0.86183559404E+02  0.24160190392E+03 -0.35539873415E+03  0.43830412256E+03  0.17770000000E+01 0. -1.
        -15    1    5    5    0    0  0.64068586342E+02  0.35415566288E+03 -0.37289501430E+03  0.51825174068E+03  0.17770000000E+01 0.  1.
          1    1    6    6  503    0 -0.26793460716E+02  0.98860561971E+02  0.36599474359E+02  0.10876958110E+03  0.00000000000E+00 0. -1.
         -1    1    6    6    0  503 -0.11775450789E+03  0.21015653330E+03 -0.41164710279E+02  0.24438990566E+03  0.00000000000E+00 0.  1.
<mgrwt>
<rscale>  0 0.93238237E+03</rscale>
<asrwt>0</asrwt>
<pdfrwt beam="1">  1        2 0.91059387E-01 0.93238237E+03</pdfrwt>
<pdfrwt beam="2">  1       -2 0.26193284E+00 0.93238237E+03</pdfrwt>
<totfact> 0.27602416E+00</totfact>
</mgrwt>
</event>
<event>
12    1  0.8033771E-008  0.1816015E+04  0.7818608E-02  0.8697829E-01
         -2   -1    0    0    0  501 -0.00000000000E+00  0.00000000000E+00  0.25208111795E+04  0.25208111795E+04  0.00000000000E+00 0. -1.
          2   -1    0    0  501    0  0.00000000000E+00 -0.00000000000E+00 -0.15116441444E+04  0.15116441444E+04  0.00000000000E+00 0.  1.
         23    2    1    2    0    0  0.47718333031E+02 -0.18068967659E+04  0.11136459803E+04  0.21250644919E+04  0.92405428725E+02 0.  0.
    5000000    2    1    2    0    0 -0.47718333031E+02  0.18068967659E+04 -0.10447894519E+03  0.19073908321E+04  0.60005914228E+03 0.  0.
         23    2    4    4    0    0  0.48659956094E+02  0.34865566909E+03  0.19555954495E+03  0.41258757595E+03  0.89757480406E+02 0.  0.
         23    2    4    4    0    0 -0.96378289125E+02  0.14582410968E+04 -0.30003849014E+03  0.14948032561E+04  0.93047341814E+02 0.  0.
          1    1    3    3  502    0 -0.17653056516E+02 -0.10420253274E+04  0.64927278421E+03  0.12278776656E+04  0.00000000000E+00 0. -1.
         -1    1    3    3    0  502  0.65371389547E+02 -0.76487143850E+03  0.46437319608E+03  0.89718682628E+03  0.00000000000E+00 0.  1.
         15    1    5    5    0    0  0.63572918942E+02  0.19508974779E+03  0.81851297777E+02  0.22091699435E+03  0.17770000000E+01 0. -1.
        -15    1    5    5    0    0 -0.14912962848E+02  0.15356592130E+03  0.11370824717E+03  0.19167058159E+03  0.17770000000E+01 0.  1.
          3    1    6    6  503    0 -0.19748487622E+02  0.76229177865E+03 -0.19214853263E+03  0.78638401379E+03  0.00000000000E+00 0. -1.
         -3    1    6    6    0  503 -0.76629801503E+02  0.69594931818E+03 -0.10788995751E+03  0.70841924232E+03  0.00000000000E+00 0.  1.
<mgrwt>
<rscale>  0 0.18160153E+04</rscale>
<asrwt>0</asrwt>
<pdfrwt beam="1">  1        2 0.23256064E+00 0.18160153E+04</pdfrwt>
<pdfrwt beam="2">  1       -2 0.38781710E+00 0.18160153E+04</pdfrwt>
<totfact> 0.10139783E-01</totfact>
</mgrwt>
</event>
<event>
12    1  0.8033771E-008  0.5434137E+03  0.7818608E-02  0.1003030E+00
         -2   -1    0    0    0  501 -0.00000000000E+00  0.00000000000E+00  0.34243024488E+03  0.34243024488E+03  0.00000000000E+00 0.  1.
          2   -1    0    0  501    0  0.00000000000E+00 -0.00000000000E+00 -0.10090674555E+04  0.10090674555E+04  0.00000000000E+00 0. -1.
         23    2    1    2    0    0 -0.60506630194E+02 -0.42055887564E+03 -0.31394176437E+03  0.53608880490E+03  0.91109577712E+02 0.  0.
    5000000    2    1    2    0    0  0.60506630194E+02  0.42055887564E+03 -0.35269544626E+03  0.81540889549E+03  0.59997230674E+03 0.  0.
         23    2    4    4    0    0 -0.74831445065E+02  0.47283545627E+03 -0.40730361052E+03  0.63533908421E+03  0.92662866966E+02 0.  0.
         23    2    4    4    0    0  0.13533807526E+03 -0.52276580627E+02  0.54608164251E+02  0.18006981128E+03  0.91617955848E+02 0.  0.
          4    1    3    3  502    0 -0.62160044769E+02 -0.17061036331E+03 -0.10132899486E+03  0.20794069451E+03  0.00000000000E+00 0. -1.
         -4    1    3    3    0  502  0.16534145747E+01 -0.24994851233E+03 -0.21261276951E+03  0.32814811039E+03  0.00000000000E+00 0.  1.
         15    1    5    5    0    0 -0.87551496360E+02  0.28027886553E+03 -0.26531452034E+03  0.39574797461E+03  0.17770000000E+01 0. -1.
        -15    1    5    5    0    0  0.12720051295E+02  0.19255659074E+03 -0.14198909018E+03  0.23959110960E+03  0.17770000000E+01 0.  1.
          3    1    6    6  503    0 -0.11345490374E+02  0.32880017183E+01  0.13458351589E+02  0.17906935377E+02  0.00000000000E+00 0. -1.
         -3    1    6    6    0  503  0.14668356563E+03 -0.55564582345E+02  0.41149812663E+02  0.16216287590E+03  0.00000000000E+00 0.  1.
<mgrwt>
<rscale>  0 0.54341371E+03</rscale>
<asrwt>0</asrwt>
<pdfrwt beam="1">  1        2 0.15524115E+00 0.54341371E+03</pdfrwt>
<pdfrwt beam="2">  1       -2 0.52681576E-01 0.54341371E+03</pdfrwt>
<totfact> 0.87278834E+01</totfact>
</mgrwt>
</event>
<event>
12    1  0.8033771E-008  0.5926824E+03  0.7818608E-02  0.9920705E-01
          1   -1    0    0  501    0  0.00000000000E+00  0.00000000000E+00  0.30788833912E+04  0.30788833912E+04  0.00000000000E+00 0. -1.
         -1   -1    0    0    0  501 -0.00000000000E+00 -0.00000000000E+00 -0.14539499967E+03  0.14539499967E+03  0.00000000000E+00 0.  1.
         23    2    1    2    0    0 -0.32725583460E+03  0.29570514162E+03  0.18883280612E+04  0.19413383594E+04  0.92053500106E+02 0.  0.
    5000000    2    1    2    0    0  0.32725583460E+03 -0.29570514162E+03  0.10451603303E+04  0.12829400315E+04  0.59919704288E+03 0.  0.
         23    2    4    4    0    0 -0.59916875808E+02 -0.32485899786E+03  0.42233877006E+03  0.54340717812E+03  0.88305855028E+02 0.  0.
         23    2    4    4    0    0  0.38717271041E+03  0.29153856240E+02  0.62282156025E+03  0.73953285334E+03  0.90826704452E+02 0.  0.
          1    1    3    3  502    0 -0.25441355196E+03  0.27511351722E+03  0.15516128057E+04  0.15962192836E+04  0.00000000000E+00 0. -1.
         -1    1    3    3    0  502 -0.72842282641E+02  0.20591624395E+02  0.33671525553E+03  0.34511907575E+03  0.00000000000E+00 0.  1.
         15    1    5    5    0    0 -0.24478054496E+02 -0.29359947634E+03  0.36619022605E+03  0.46999815643E+03  0.17770000000E+01 0. -1.
        -15    1    5    5    0    0 -0.35438821312E+02 -0.31259521513E+02  0.56148544010E+02  0.73409021685E+02  0.17770000000E+01 0.  1.
          2    1    6    6  503    0  0.21295566145E+03  0.46454316690E+02  0.28241873316E+03  0.35674705062E+03  0.00000000000E+00 0. -1.
         -2    1    6    6    0  503  0.17421704896E+03 -0.17300460450E+02  0.34040282708E+03  0.38278580272E+03  0.00000000000E+00 0.  1.
<mgrwt>
<rscale>  0 0.59268237E+03</rscale>
<asrwt>0</asrwt>
<pdfrwt beam="1">  1        1 0.47367432E+00 0.59268237E+03</pdfrwt>
<pdfrwt beam="2">  1       -1 0.22368464E-01 0.59268237E+03</pdfrwt>
<totfact> 0.97134974E+00</totfact>
</mgrwt>
</event>
<event>
12    1  0.8033771E-008  0.7555928E+03  0.7818608E-02  0.9626617E-01
          2   -1    0    0  501    0  0.00000000000E+00  0.00000000000E+00  0.64472215930E+03  0.64472215930E+03  0.00000000000E+00 0. -1.
         -2   -1    0    0    0  501 -0.00000000000E+00 -0.00000000000E+00 -0.94062248416E+03  0.94062248416E+03  0.00000000000E+00 0.  1.
         23    2    1    2    0    0 -0.63833446102E+03  0.54545554958E+02 -0.28410107165E+03  0.70752524915E+03  0.97120840130E+02 0.  0.
    5000000    2    1    2    0    0  0.63833446102E+03 -0.54545554958E+02 -0.11799253204E+02  0.87781939431E+03  0.59998463726E+03 0.  0.
         23    2    4    4    0    0 -0.85407650588E+02 -0.70319668955E+02  0.33513700744E+02  0.14665450467E+03  0.90249947275E+02 0.  0.
         23    2    4    4    0    0  0.72374211161E+03  0.15774113996E+02 -0.45312953948E+02  0.73116488963E+03  0.92181154514E+02 0.  0.
          3    1    3    3  502    0 -0.42163253608E+03  0.70058773018E+02 -0.22166906409E+03  0.48147627266E+03  0.00000000000E+00 0. -1.
         -3    1    3    3    0  502 -0.21670192494E+03 -0.15513218060E+02 -0.62432007558E+02  0.22604897649E+03  0.00000000000E+00 0.  1.
         15    1    5    5    0    0 -0.91878348948E+02 -0.85576311391E+02  0.25386822937E+02  0.12811160987E+03  0.17770000000E+01 0.  1.
        -15    1    5    5    0    0  0.64706983599E+01  0.15256642437E+02  0.81268778066E+01  0.18542894801E+02  0.17770000000E+01 0. -1.
          1    1    6    6  503    0  0.20245127608E+03  0.14718085668E+02 -0.53095644049E+02  0.20981489139E+03  0.00000000000E+00 0. -1.
         -1    1    6    6    0  503  0.52129083552E+03  0.10560283286E+01  0.77826901009E+01  0.52134999824E+03  0.00000000000E+00 0.  1.
<mgrwt>
<rscale>  0 0.75559279E+03</rscale>
<asrwt>0</asrwt>
<pdfrwt beam="1">  1        2 0.99188025E-01 0.75559279E+03</pdfrwt>
<pdfrwt beam="2">  1       -2 0.14471115E+00 0.75559279E+03</pdfrwt>
<totfact> 0.15168418E+01</totfact>
</mgrwt>
</event>
<event>
12    1  0.8033771E-008  0.7253465E+03  0.7818608E-02  0.9674842E-01
          2   -1    0    0  501    0  0.00000000000E+00  0.00000000000E+00  0.22098446328E+04  0.22098446328E+04  0.00000000000E+00 0. -1.
         -2   -1    0    0    0  501 -0.00000000000E+00 -0.00000000000E+00 -0.24930074854E+03  0.24930074854E+03  0.00000000000E+00 0.  1.
         23    2    1    2    0    0 -0.57852878083E+03  0.20356782910E+03  0.93670041072E+03  0.11233050298E+04  0.90945693428E+02 0.  0.
    5000000    2    1    2    0    0  0.57852878083E+03 -0.20356782910E+03  0.10238434735E+04  0.13358403516E+04  0.60006547583E+03 0.  0.
         23    2    4    4    0    0  0.18023255851E+03  0.19516787703E+03  0.41503368142E+03  0.50097624425E+03  0.90277157779E+02 0.  0.
         23    2    4    4    0    0  0.39829622231E+03 -0.39873570613E+03  0.60880979209E+03  0.83486410730E+03  0.93373822095E+02 0.  0.
          2    1    3    3  502    0 -0.10399228461E+03  0.50514343537E+02  0.12153984415E+03  0.16774393544E+03  0.00000000000E+00 0. -1.
         -2    1    3    3    0  502 -0.47453649621E+03  0.15305348557E+03  0.81516056657E+03  0.95556109431E+03  0.00000000000E+00 0.  1.
         15    1    5    5    0    0  0.76994576273E+02  0.12853040023E+03  0.16832096038E+03  0.22535157419E+03  0.17770000000E+01 0.  1.
        -15    1    5    5    0    0  0.10323798224E+03  0.66637476798E+02  0.24671272105E+03  0.27562467006E+03  0.17770000000E+01 0. -1.
          2    1    6    6  503    0  0.10284915261E+03 -0.11136014173E+03  0.22747859968E+03  0.27335973125E+03  0.00000000000E+00 0. -1.
         -2    1    6    6    0  503  0.29544706970E+03 -0.28737556440E+03  0.38133119242E+03  0.56150437605E+03  0.00000000000E+00 0.  1.
<mgrwt>
<rscale>  0 0.72534654E+03</rscale>
<asrwt>0</asrwt>
<pdfrwt beam="1">  1        2 0.33997608E+00 0.72534654E+03</pdfrwt>
<pdfrwt beam="2">  1       -2 0.38353963E-01 0.72534654E+03</pdfrwt>
<totfact> 0.34030483E+01</totfact>
</mgrwt>
</event>
<event>
12    1  0.8033771E-008  0.1778060E+04  0.7818608E-02  0.8718055E-01
         -3   -1    0    0    0  501 -0.00000000000E+00  0.00000000000E+00  0.26318050278E+04  0.26318050278E+04  0.00000000000E+00 0.  1.
          3   -1    0    0  501    0  0.00000000000E+00 -0.00000000000E+00 -0.12635641003E+04  0.12635641003E+04  0.00000000000E+00 0. -1.
         23    2    1    2    0    0 -0.13501567566E+03 -0.17678431521E+04  0.67925332287E+03  0.19008062687E+04  0.90447506650E+02 0.  0.
    5000000    2    1    2    0    0  0.13501567566E+03  0.17678431521E+04  0.68898760467E+03  0.19945628593E+04  0.60006536092E+03 0.  0.
         23    2    4    4    0    0  0.68877532289E+02  0.68074589808E+03  0.56987759576E+03  0.89513596315E+03  0.91371911264E+02 0.  0.
         23    2    4    4    0    0  0.66138143370E+02  0.10870972540E+04  0.11911000890E+03  0.10994268962E+04  0.91638486108E+02 0.  0.
          2    1    3    3  502    0 -0.27053309698E+02 -0.64754028528E+03  0.20834912235E+03  0.68077137088E+03  0.00000000000E+00 0. -1.
         -2    1    3    3    0  502 -0.10796236596E+03 -0.11203028668E+04  0.47090420053E+03  0.12200348978E+04  0.00000000000E+00 0.  1.
         15    1    5    5    0    0 -0.17172595087E+02  0.23270869375E+03  0.21235026547E+03  0.31550598591E+03  0.17770000000E+01 0. -1.
        -15    1    5    5    0    0  0.86050127376E+02  0.44803720433E+03  0.35752733029E+03  0.57962997725E+03  0.17770000000E+01 0.  1.
          3    1    6    6  503    0  0.86293587011E+02  0.99132538849E+03  0.10698290961E+03  0.10008086490E+04  0.00000000000E+00 0. -1.
         -3    1    6    6    0  503 -0.20155443641E+02  0.95771865527E+02  0.12127099293E+02  0.98618247156E+02  0.00000000000E+00 0.  1.
<mgrwt>
<rscale>  0 0.17780598E+04</rscale>
<asrwt>0</asrwt>
<pdfrwt beam="1">  1        3 0.19439448E+00 0.17780598E+04</pdfrwt>
<pdfrwt beam="2">  1       -3 0.40489308E+00 0.17780598E+04</pdfrwt>
<totfact> 0.37146703E-03</totfact>
</mgrwt>
</event>
<event>
12    1  0.8033771E-008  0.1382550E+04  0.7818608E-02  0.8966547E-01
          1   -1    0    0  501    0  0.00000000000E+00  0.00000000000E+00  0.23498208747E+04  0.23498208747E+04  0.00000000000E+00 0. -1.
         -1   -1    0    0    0  501 -0.00000000000E+00 -0.00000000000E+00 -0.98134208058E+03  0.98134208058E+03  0.00000000000E+00 0.  1.
         23    2    1    2    0    0  0.94303028207E+03 -0.10034925540E+04  0.11828278454E+04  0.18176404072E+04  0.91823302951E+02 0.  0.
    5000000    2    1    2    0    0 -0.94303028207E+03  0.10034925540E+04  0.18565094866E+03  0.15135225481E+04  0.59998400812E+03 0.  0.
         23    2    4    4    0    0 -0.78257482141E+03  0.76492321521E+03 -0.95363530472E+02  0.11020787288E+04  0.89176484172E+02 0.  0.
         23    2    4    4    0    0 -0.16045546066E+03  0.23856933880E+03  0.28101447913E+03  0.41144381926E+03  0.87496255106E+02 0.  0.
          2    1    3    3  502    0  0.48958801166E+03 -0.45618830386E+03  0.55817120601E+03  0.87141223595E+03  0.00000000000E+00 0. -1.
         -2    1    3    3    0  502  0.45344227041E+03 -0.54730425015E+03  0.62465663944E+03  0.94622817122E+03  0.00000000000E+00 0.  1.
         15    1    5    5    0    0 -0.74634114134E+03  0.75091943531E+03 -0.86960343463E+02  0.10622948539E+04  0.17770000000E+01 0. -1.
        -15    1    5    5    0    0 -0.36233680073E+02  0.14003779905E+02 -0.84031870095E+01  0.39783874926E+02  0.17770000000E+01 0.  1.
          1    1    6    6  503    0 -0.12812531691E+03  0.18643571561E+03  0.16428966009E+03  0.27958087435E+03  0.00000000000E+00 0. -1.
         -1    1    6    6    0  503 -0.32330143743E+02  0.52133623189E+02  0.11672481903E+03  0.13186294491E+03  0.00000000000E+00 0.  1.
<mgrwt>
<rscale>  0 0.13825500E+04</rscale>
<asrwt>0</asrwt>
<pdfrwt beam="1">  1        1 0.36151090E+00 0.13825500E+04</pdfrwt>
<pdfrwt beam="2">  1       -1 0.15097571E+00 0.13825500E+04</pdfrwt>
<totfact> 0.56764533E-01</totfact>
</mgrwt>
</event>
<event>
12    1  0.8033771E-008  0.5235386E+03  0.7818608E-02  0.1007811E+00
          2   -1    0    0  501    0  0.00000000000E+00  0.00000000000E+00  0.70129033817E+03  0.70129033817E+03  0.00000000000E+00 0. -1.
         -2   -1    0    0    0  501 -0.00000000000E+00 -0.00000000000E+00 -0.44470724371E+03  0.44470724371E+03  0.00000000000E+00 0.  1.
         23    2    1    2    0    0  0.38932264742E+03 -0.25755915931E+02  0.10611694299E+03  0.41462487167E+03  0.91746867063E+02 0.  0.
    5000000    2    1    2    0    0 -0.38932264742E+03  0.25755915931E+02  0.15046615147E+03  0.73137271022E+03  0.60002540572E+03 0.  0.
         23    2    4    4    0    0 -0.45811843807E+03 -0.12352296384E+03  0.22082378498E+03  0.53119398616E+03  0.90958677559E+02 0.  0.
         23    2    4    4    0    0  0.68795790651E+02  0.14927887978E+03 -0.70357633511E+02  0.20017872406E+03  0.90023775819E+02 0.  0.
          3    1    3    3  502    0  0.28330028086E+03  0.22726155343E+02  0.77286548217E+02  0.29453138679E+03  0.00000000000E+00 0. -1.
         -3    1    3    3    0  502  0.10602236656E+03 -0.48482071274E+02  0.28830394769E+02  0.12009348487E+03  0.00000000000E+00 0.  1.
         15    1    5    5    0    0 -0.15454313913E+03 -0.72686005223E+02  0.44636910159E+02  0.17652888910E+03  0.17770000000E+01 0. -1.
        -15    1    5    5    0    0 -0.30357529894E+03 -0.50836958622E+02  0.17618687482E+03  0.35466509706E+03  0.17770000000E+01 0.  1.
          2    1    6    6  503    0  0.70480570314E+02  0.12621862475E+03 -0.21536421322E+02  0.14615905538E+03  0.00000000000E+00 0. -1.
         -2    1    6    6    0  503 -0.16847796630E+01  0.23060255026E+02 -0.48821212190E+02  0.54019668678E+02  0.00000000000E+00 0.  1.
<mgrwt>
<rscale>  0 0.52353856E+03</rscale>
<asrwt>0</asrwt>
<pdfrwt beam="1">  1        2 0.10789082E+00 0.52353856E+03</pdfrwt>
<pdfrwt beam="2">  1       -2 0.68416499E-01 0.52353856E+03</pdfrwt>
<totfact> 0.82298164E+01</totfact>
</mgrwt>
</event>
<event>
12    1  0.8033771E-008  0.7682878E+03  0.7818608E-02  0.9607089E-01
         -2   -1    0    0    0  501 -0.00000000000E+00  0.00000000000E+00  0.12211800510E+04  0.12211800510E+04  0.00000000000E+00 0.  1.
          2   -1    0    0  501    0  0.00000000000E+00 -0.00000000000E+00 -0.52273706935E+03  0.52273706935E+03  0.00000000000E+00 0. -1.
         23    2    1    2    0    0  0.65395218517E+03  0.13170883969E+03  0.13810624789E+03  0.68611182752E+03  0.81703275383E+02 0.  0.
    5000000    2    1    2    0    0 -0.65395218517E+03 -0.13170883969E+03  0.56033673372E+03  0.10578052928E+04  0.59997841909E+03 0.  0.
         23    2    4    4    0    0 -0.45796810025E+02 -0.23842249011E+03  0.25275242897E+03  0.36188912157E+03  0.90207063829E+02 0.  0.
         23    2    4    4    0    0 -0.60815537515E+03  0.10671365042E+03  0.30758430476E+03  0.69591617123E+03  0.91926325589E+02 0.  0.
          1    1    3    3  502    0  0.47157985954E+03  0.59131252688E+02  0.10988284227E+03  0.48780970469E+03  0.00000000000E+00 0. -1.
         -1    1    3    3    0  502  0.18237232564E+03  0.72577586999E+02  0.28223405619E+02  0.19830212283E+03  0.00000000000E+00 0.  1.
         15    1    5    5    0    0 -0.66333352263E+01 -0.61282540601E+02  0.12688645605E+03  0.14107757220E+03  0.17770000000E+01 0.  1.
        -15    1    5    5    0    0 -0.39163474798E+02 -0.17713994951E+03  0.12586597292E+03  0.22081154938E+03  0.17770000000E+01 0. -1.
          4    1    6    6  503    0 -0.59250230068E+03  0.11596586403E+03  0.28711559653E+03  0.66853752602E+03  0.00000000000E+00 0. -1.
         -4    1    6    6    0  503 -0.15653074471E+02 -0.92522136021E+01  0.20468708228E+02  0.27378645209E+02  0.00000000000E+00 0.  1.
<mgrwt>
<rscale>  0 0.76828782E+03</rscale>
<asrwt>0</asrwt>
<pdfrwt beam="1">  1        2 0.80421088E-01 0.76828782E+03</pdfrwt>
<pdfrwt beam="2">  1       -2 0.18787385E+00 0.76828782E+03</pdfrwt>
<totfact> 0.95127971E+00</totfact>
</mgrwt>
</event>
<event>
12    1  0.8033771E-008  0.3492944E+03  0.7818608E-02  0.1062905E+00
         -2   -1    0    0    0  501 -0.00000000000E+00  0.00000000000E+00  0.10301096290E+03  0.10301096290E+03  0.00000000000E+00 0.  1.
          2   -1    0    0  501    0  0.00000000000E+00 -0.00000000000E+00 -0.17967267798E+04  0.17967267798E+04  0.00000000000E+00 0. -1.
         23    2    1    2    0    0  0.16974711665E+02 -0.19673135493E+03 -0.30770810771E+03  0.37660272801E+03  0.90299326377E+02 0.  0.
    5000000    2    1    2    0    0 -0.16974711665E+02  0.19673135493E+03 -0.13860077092E+04  0.15231350147E+04  0.59994294412E+03 0.  0.
         23    2    4    4    0    0 -0.95474453791E+02  0.32211920539E+03 -0.43637882394E+03  0.55802919702E+03  0.89966398957E+02 0.  0.
         23    2    4    4    0    0  0.78499742126E+02 -0.12538785046E+03 -0.94962888525E+03  0.96510581767E+03  0.88033499526E+02 0.  0.
          1    1    3    3  502    0 -0.21259284839E+00 -0.17321845669E+02  0.28296827964E+01  0.17552738756E+02  0.00000000000E+00 0.  1.
         -1    1    3    3    0  502  0.17187304513E+02 -0.17940950926E+03 -0.31053779050E+03  0.35904998925E+03  0.00000000000E+00 0. -1.
         15    1    5    5    0    0 -0.45462186925E+01  0.17017243418E+03 -0.19924265135E+03  0.26206891709E+03  0.17770000000E+01 0.  1.
        -15    1    5    5    0    0 -0.90928235098E+02  0.15194677121E+03 -0.23713617259E+03  0.29596027993E+03  0.17770000000E+01 0. -1.
          2    1    6    6  503    0  0.97799939971E-01 -0.31022125482E+02 -0.43298207418E+03  0.43409199301E+03  0.00000000000E+00 0. -1.
         -2    1    6    6    0  503  0.78401942186E+02 -0.94365724979E+02 -0.51664681107E+03  0.53101382466E+03  0.00000000000E+00 0.  1.
<mgrwt>
<rscale>  0 0.34929442E+03</rscale>
<asrwt>0</asrwt>
<pdfrwt beam="1">  1        2 0.27641950E+00 0.34929442E+03</pdfrwt>
<pdfrwt beam="2">  1       -2 0.15847841E-01 0.34929442E+03</pdfrwt>
<totfact> 0.29406991E+02</totfact>
</mgrwt>
</event>
<event>
12    1  0.8033771E-008  0.3789648E+03  0.7818608E-02  0.1051317E+00
         -1   -1    0    0    0  501 -0.00000000000E+00  0.00000000000E+00  0.54044913531E+03  0.54044913531E+03  0.00000000000E+00 0.  1.
          1   -1    0    0  501    0  0.00000000000E+00 -0.00000000000E+00 -0.89812452838E+03  0.89812452838E+03  0.00000000000E+00 0. -1.
         23    2    1    2    0    0 -0.10506588609E+03 -0.25062508176E+03 -0.65579558637E+03  0.71576324923E+03  0.91637360397E+02 0.  0.
    5000000    2    1    2    0    0  0.10506588609E+03  0.25062508176E+03  0.29812019330E+03  0.72281041447E+03  0.59977285166E+03 0.  0.
         23    2    4    4    0    0  0.23402617356E+03  0.15722886581E+03 -0.75083034702E+02  0.30645528858E+03  0.93745483341E+02 0.  0.
         23    2    4    4    0    0 -0.12896028747E+03  0.93396215957E+02  0.37320322800E+03  0.41635512589E+03  0.93366656587E+02 0.  0.
          1    1    3    3  502    0 -0.63651333736E+02 -0.68453612244E+02 -0.15196748715E+03  0.17841386287E+03  0.00000000000E+00 0. -1.
         -1    1    3    3    0  502 -0.41414552350E+02 -0.18217146952E+03 -0.50382809922E+03  0.53734938635E+03  0.00000000000E+00 0.  1.
         15    1    5    5    0    0  0.10401676198E+03  0.12387474102E+03 -0.54239407618E+02  0.17061509108E+03  0.17770000000E+01 0. -1.
        -15    1    5    5    0    0  0.13000941158E+03  0.33354124786E+02 -0.20843627084E+02  0.13584019750E+03  0.17770000000E+01 0.  1.
          1    1    6    6  503    0 -0.37493951843E+02 -0.14492662055E+02  0.54922510952E+02  0.68061118764E+02  0.00000000000E+00 0. -1.
         -1    1    6    6    0  503 -0.91466335629E+02  0.10788887801E+03  0.31828071705E+03  0.34829400712E+03  0.00000000000E+00 0.  1.
<mgrwt>
<rscale>  0 0.37896481E+03</rscale>
<asrwt>0</asrwt>
<pdfrwt beam="1">  1        1 0.13817300E+00 0.37896481E+03</pdfrwt>
<pdfrwt beam="2">  1       -1 0.83146022E-01 0.37896481E+03</pdfrwt>
<totfact> 0.28514918E+01</totfact>
</mgrwt>
</event>
<event>
12    1  0.8033771E-008  0.1306812E+04  0.7818608E-02  0.9024180E-01
         -2   -1    0    0    0  501 -0.00000000000E+00  0.00000000000E+00  0.47680573116E+03  0.47680573116E+03  0.00000000000E+00 0.  1.
          2   -1    0    0  501    0  0.00000000000E+00 -0.00000000000E+00 -0.38496507392E+04  0.38496507392E+04  0.00000000000E+00 0. -1.
         23    2    1    2    0    0 -0.95904387261E+03  0.83687184810E+03 -0.13012496346E+04  0.18221812791E+04  0.83512651190E+02 0.  0.
    5000000    2    1    2    0    0  0.95904387261E+03 -0.83687184810E+03 -0.20715953735E+04  0.25042751913E+04  0.59980597048E+03 0.  0.
         23    2    4    4    0    0  0.18807080641E+03 -0.13144981412E+02 -0.10373791910E+03  0.23423026045E+03  0.92514000515E+02 0.  0.
         23    2    4    4    0    0  0.77097306620E+03 -0.82372686669E+03 -0.19678574544E+04  0.22700449308E+04  0.87838529444E+02 0.  0.
          1    1    3    3  502    0 -0.16144446858E+03  0.18447477012E+03 -0.25142314300E+03  0.35115360468E+03  0.00000000000E+00 0. -1.
         -1    1    3    3    0  502 -0.79759940403E+03  0.65239707798E+03 -0.10498264916E+04  0.14710276745E+04  0.00000000000E+00 0.  1.
         15    1    5    5    0    0  0.87050419111E+02 -0.49090347512E+02 -0.31004669843E+02  0.10465220957E+03  0.17770000000E+01 0.  1.
        -15    1    5    5    0    0  0.10102038730E+03  0.35945366100E+02 -0.72733249255E+02  0.12957805088E+03  0.17770000000E+01 0. -1.
          1    1    6    6  503    0  0.18663767341E+03 -0.24965780634E+03 -0.58111227943E+03  0.65943469935E+03  0.00000000000E+00 0. -1.
         -1    1    6    6    0  503  0.58433539278E+03 -0.57406906035E+03 -0.13867451750E+04  0.16106102314E+04  0.00000000000E+00 0.  1.
<mgrwt>
<rscale>  0 0.13068122E+04</rscale>
<asrwt>0</asrwt>
<pdfrwt beam="1">  1        2 0.59225398E+00 0.13068122E+04</pdfrwt>
<pdfrwt beam="2">  1       -2 0.73354726E-01 0.13068122E+04</pdfrwt>
<totfact> 0.75288599E-01</totfact>
</mgrwt>
</event>
<event>
12    1  0.8033771E-008  0.1409562E+04  0.7818608E-02  0.8946926E-01
         -2   -1    0    0    0  501 -0.00000000000E+00  0.00000000000E+00  0.10842945495E+04  0.10842945495E+04  0.00000000000E+00 0.  1.
          2   -1    0    0  501    0  0.00000000000E+00 -0.00000000000E+00 -0.24521393205E+04  0.24521393205E+04  0.00000000000E+00 0. -1.
         23    2    1    2    0    0  0.61436322769E+03  0.12626323734E+04  0.11012958497E+03  0.14113589032E+04  0.90126257638E+02 0.  0.
    5000000    2    1    2    0    0 -0.61436322769E+03 -0.12626323734E+04 -0.14779743560E+04  0.21250749668E+04  0.59987726368E+03 0.  0.
         23    2    4    4    0    0 -0.30294518749E+03 -0.56039489769E+03 -0.10741325786E+04  0.12521947831E+04  0.91721047358E+02 0.  0.
         23    2    4    4    0    0 -0.31141804020E+03 -0.70223747574E+03 -0.40384177742E+03  0.87288018367E+03  0.93343268373E+02 0.  0.
          3    1    3    3  502    0  0.45421423784E+02  0.13873891398E+03  0.30589432728E+02  0.14915530626E+03  0.00000000000E+00 0. -1.
         -3    1    3    3    0  502  0.56894180391E+03  0.11238934594E+04  0.79540152244E+02  0.12622035970E+04  0.00000000000E+00 0.  1.
         15    1    5    5    0    0 -0.26703456626E+01 -0.36935760216E+02 -0.37709899668E+02  0.52882656804E+02  0.17770000000E+01 0. -1.
        -15    1    5    5    0    0 -0.30027484182E+03 -0.52345913748E+03 -0.10364226789E+04  0.11993121263E+04  0.17770000000E+01 0.  1.
          3    1    6    6  503    0 -0.20801943695E+03 -0.55731078401E+03 -0.32870836510E+03  0.67964445514E+03  0.00000000000E+00 0. -1.
         -3    1    6    6    0  503 -0.10339860326E+03 -0.14492669173E+03 -0.75133412328E+02  0.19323572853E+03  0.00000000000E+00 0.  1.
<mgrwt>
<rscale>  0 0.14095622E+04</rscale>
<asrwt>0</asrwt>
<pdfrwt beam="1">  1        2 0.37725220E+00 0.14095622E+04</pdfrwt>
<pdfrwt beam="2">  1       -2 0.16681455E+00 0.14095622E+04</pdfrwt>
<totfact> 0.79326606E-01</totfact>
</mgrwt>
</event>
<event>
12    1  0.8033771E-008  0.1308942E+04  0.7818608E-02  0.9022504E-01
         -1   -1    0    0    0  501 -0.00000000000E+00  0.00000000000E+00  0.21718896997E+04  0.21718896997E+04  0.00000000000E+00 0.  1.
          1   -1    0    0  501    0  0.00000000000E+00 -0.00000000000E+00 -0.10496966336E+04  0.10496966336E+04  0.00000000000E+00 0. -1.
         23    2    1    2    0    0  0.98301720579E+03  0.79125234864E+03 -0.21973307921E+03  0.12842586425E+04  0.92922164416E+02 0.  0.
    5000000    2    1    2    0    0 -0.98301720579E+03 -0.79125234864E+03  0.13419261453E+04  0.19373276907E+04  0.60005807703E+03 0.  0.
         23    2    4    4    0    0 -0.10094595779E+04 -0.69180726074E+03  0.13024754269E+04  0.17894971038E+04  0.90838986283E+02 0.  0.
         23    2    4    4    0    0  0.26442372122E+02 -0.99445087898E+02  0.39450718403E+02  0.14783058694E+03  0.98534251414E+02 0.  0.
          3    1    3    3  502    0  0.77254962717E+03  0.65107563689E+03 -0.20537336708E+03  0.10309755726E+04  0.00000000000E+00 0. -1.
         -3    1    3    3    0  502  0.21046757862E+03  0.14017671175E+03 -0.14359712126E+02  0.25328306990E+03  0.00000000000E+00 0.  1.
         15    1    5    5    0    0 -0.14683208265E+03 -0.63760858473E+02  0.17194289569E+03  0.23493110623E+03  0.17770000000E+01 0.  1.
        -15    1    5    5    0    0 -0.86262749527E+03 -0.62804640227E+03  0.11305325312E+04  0.15545659976E+04  0.17770000000E+01 0. -1.
          2    1    6    6  503    0  0.53042684766E+02 -0.70952972577E+02  0.56727260608E+02  0.10519426230E+03  0.00000000000E+00 0. -1.
         -2    1    6    6    0  503 -0.26600312643E+02 -0.28492115321E+02 -0.17276542205E+02  0.42636324639E+02  0.00000000000E+00 0.  1.
<mgrwt>
<rscale>  0 0.13089415E+04</rscale>
<asrwt>0</asrwt>
<pdfrwt beam="1">  1        1 0.16149179E+00 0.13089415E+04</pdfrwt>
<pdfrwt beam="2">  1       -1 0.33413688E+00 0.13089415E+04</pdfrwt>
<totfact> 0.26649963E-01</totfact>
</mgrwt>
</event>
<event>
12    1  0.8033771E-008  0.8068746E+03  0.7818608E-02  0.9550119E-01
         -2   -1    0    0    0  501 -0.00000000000E+00  0.00000000000E+00  0.49178116456E+03  0.49178116456E+03  0.00000000000E+00 0.  1.
          2   -1    0    0  501    0  0.00000000000E+00 -0.00000000000E+00 -0.16122860887E+04  0.16122860887E+04  0.00000000000E+00 0. -1.
         23    2    1    2    0    0 -0.30943992711E+03 -0.69433640991E+03 -0.26047408220E+03  0.80894351160E+03  0.93202676130E+02 0.  0.
    5000000    2    1    2    0    0  0.30943992711E+03  0.69433640991E+03 -0.86003084192E+03  0.12951237417E+04  0.59986359992E+03 0.  0.
         23    2    4    4    0    0 -0.87901166162E+02  0.11325471943E+03 -0.43735546219E+03  0.46928006618E+03  0.91600948252E+02 0.  0.
         23    2    4    4    0    0  0.39734109327E+03  0.58108169048E+03 -0.42267537973E+03  0.82584367547E+03  0.88472731768E+02 0.  0.
          4    1    3    3  502    0 -0.78022683015E+02 -0.14590629204E+03 -0.18890825932E+02  0.16653242455E+03  0.00000000000E+00 0. -1.
         -4    1    3    3    0  502 -0.23141724409E+03 -0.54843011787E+03 -0.24158325627E+03  0.64241108705E+03  0.00000000000E+00 0.  1.
         15    1    5    5    0    0 -0.65263041542E+01  0.12577577924E+02 -0.18595513711E+03  0.18650270469E+03  0.17770000000E+01 0. -1.
        -15    1    5    5    0    0 -0.81374862008E+02  0.10067714151E+03 -0.25140032508E+03  0.28277736149E+03  0.17770000000E+01 0.  1.
          3    1    6    6  503    0  0.11846036271E+03  0.24825477469E+03 -0.15463059127E+03  0.31555334010E+03  0.00000000000E+00 0. -1.
         -3    1    6    6    0  503  0.27888073056E+03  0.33282691579E+03 -0.26804478846E+03  0.51029033537E+03  0.00000000000E+00 0.  1.
<mgrwt>
<rscale>  0 0.80687463E+03</rscale>
<asrwt>0</asrwt>
<pdfrwt beam="1">  1        2 0.24804402E+00 0.80687463E+03</pdfrwt>
<pdfrwt beam="2">  1       -2 0.75658640E-01 0.80687463E+03</pdfrwt>
<totfact> 0.17517910E+01</totfact>
</mgrwt>
</event>
<event>
12    1  0.9211113E-008  0.1531996E+04  0.7818608E-02  0.8863451E-01
          1   -1    0    0  501    0  0.00000000000E+00  0.00000000000E+00  0.20842011642E+04  0.20842011642E+04  0.00000000000E+00 0. -1.
         -1   -1    0    0    0  501 -0.00000000000E+00 -0.00000000000E+00 -0.13957958290E+04  0.13957958290E+04  0.00000000000E+00 0.  1.
         23    2    1    2    0    0 -0.86511629768E+03 -0.12261231933E+04 -0.36980935077E+03  0.15482397308E+04  0.92103281328E+02 0.  0.
    5000000    2    1    2    0    0  0.86511629768E+03  0.12261231933E+04  0.10582146859E+04  0.19317572624E+04  0.60005291910E+03 0.  0.
         23    2    4    4    0    0  0.18226555243E+02  0.12021978260E+02 -0.22563357482E+02  0.96543030252E+02  0.91294667489E+02 0.  0.
         23    2    4    4    0    0  0.84688974243E+03  0.12141012150E+04  0.10807780434E+04  0.18352142321E+04  0.93091904109E+02 0.  0.
          1    1    3    3  502    0 -0.59452317220E+03 -0.86770332753E+03 -0.29972374214E+03  0.10937098283E+04  0.00000000000E+00 0. -1.
         -1    1    3    3    0  502 -0.27059312548E+03 -0.35841986572E+03 -0.70085608632E+02  0.45452990247E+03  0.00000000000E+00 0.  1.
         15    1    5    5    0    0  0.43380998634E+02 -0.12675154032E+02  0.12361196438E+02  0.46888457840E+02  0.17770000000E+01 0. -1.
        -15    1    5    5    0    0 -0.25154443392E+02  0.24697132292E+02 -0.34924553920E+02  0.49654572411E+02  0.17770000000E+01 0.  1.
          3    1    6    6  503    0  0.28730358715E+03  0.48090537485E+03  0.38146967468E+03  0.67774069042E+03  0.00000000000E+00 0. -1.
         -3    1    6    6    0  503  0.55958615528E+03  0.73319584015E+03  0.69930836873E+03  0.11574735417E+04  0.00000000000E+00 0.  1.
<mgrwt>
<rscale>  0 0.15319958E+04</rscale>
<asrwt>0</asrwt>
<pdfrwt beam="1">  1        1 0.32064633E+00 0.15319958E+04</pdfrwt>
<pdfrwt beam="2">  1       -1 0.21473782E+00 0.15319958E+04</pdfrwt>
<totfact> 0.29349617E-01</totfact>
</mgrwt>
</event>
<event>
12    1  0.8033771E-008  0.7082615E+03  0.7818608E-02  0.9703207E-01
         -1   -1    0    0    0  501 -0.00000000000E+00  0.00000000000E+00  0.15139465722E+04  0.15139465722E+04  0.00000000000E+00 0.  1.
          1   -1    0    0  501    0  0.00000000000E+00 -0.00000000000E+00 -0.43838437825E+03  0.43838437825E+03  0.00000000000E+00 0. -1.
         23    2    1    2    0    0 -0.34756928035E+03 -0.57186693070E+03  0.21793113889E+03  0.71000494577E+03  0.93684847480E+02 0.  0.
    5000000    2    1    2    0    0  0.34756928035E+03  0.57186693070E+03  0.85763105505E+03  0.12423260047E+04  0.60000557016E+03 0.  0.
         23    2    4    4    0    0  0.20229510669E+03  0.53019145523E+03  0.28185718743E+03  0.64003381231E+03  0.90407507508E+02 0.  0.
         23    2    4    4    0    0  0.14527417366E+03  0.41675475472E+02  0.57577386762E+03  0.60229219235E+03  0.91645553896E+02 0.  0.
          4    1    3    3  502    0 -0.20131026852E+03 -0.28147998378E+03  0.71288903382E+02  0.35332550605E+03  0.00000000000E+00 0. -1.
         -4    1    3    3    0  502 -0.14625901183E+03 -0.29038694692E+03  0.14664223551E+03  0.35667943971E+03  0.00000000000E+00 0.  1.
         15    1    5    5    0    0  0.18761388002E+02  0.18818604672E+02  0.33089770498E+02  0.42476113313E+02  0.17770000000E+01 0. -1.
        -15    1    5    5    0    0  0.18353371868E+03  0.51137285056E+03  0.24876741693E+03  0.59755769900E+03  0.17770000000E+01 0.  1.
          4    1    6    6  503    0  0.17790507284E+02  0.44434617752E+02  0.12572884419E+03  0.13453133340E+03  0.00000000000E+00 0. -1.
         -4    1    6    6    0  503  0.12748366638E+03 -0.27591422800E+01  0.45004502342E+03  0.46776085895E+03  0.00000000000E+00 0.  1.
<mgrwt>
<rscale>  0 0.70826147E+03</rscale>
<asrwt>0</asrwt>
<pdfrwt beam="1">  1        1 0.67443751E-01 0.70826147E+03</pdfrwt>
<pdfrwt beam="2">  1       -1 0.23291485E+00 0.70826147E+03</pdfrwt>
<totfact> 0.50030662E+00</totfact>
</mgrwt>
</event>
<event>
12    1  0.8033771E-008  0.5913617E+03  0.7818608E-02  0.9923492E-01
          2   -1    0    0  501    0  0.00000000000E+00  0.00000000000E+00  0.15182639591E+04  0.15182639591E+04  0.00000000000E+00 0. -1.
         -2   -1    0    0    0  501 -0.00000000000E+00 -0.00000000000E+00 -0.32137138509E+03  0.32137138509E+03  0.00000000000E+00 0.  1.
         23    2    1    2    0    0  0.44565401138E+03 -0.15086772253E+03  0.77684776043E+02  0.48546096472E+03  0.90933251784E+02 0.  0.
    5000000    2    1    2    0    0 -0.44565401138E+03  0.15086772253E+03  0.11192077979E+04  0.13541743794E+04  0.59982796485E+03 0.  0.
         23    2    4    4    0    0 -0.20154614058E+03 -0.18754511254E+03  0.24262300635E+03  0.37911977573E+03  0.95246339158E+02 0.  0.
         23    2    4    4    0    0 -0.24410787081E+03  0.33841283506E+03  0.87658479157E+03  0.97505460370E+03  0.90656956992E+02 0.  0.
          1    1    3    3  502    0  0.20270348371E+03 -0.11660746519E+03  0.38191290874E+02  0.23694847107E+03  0.00000000000E+00 0. -1.
         -1    1    3    3    0  502  0.24295052768E+03 -0.34260257341E+02  0.39493485169E+02  0.24851249365E+03  0.00000000000E+00 0.  1.
         15    1    5    5    0    0 -0.99419310740E+02 -0.11064020433E+03  0.18888424371E+03  0.24042851206E+03  0.17770000000E+01 0.  1.
        -15    1    5    5    0    0 -0.10212682984E+03 -0.76904908206E+02  0.53738762638E+02  0.13869126367E+03  0.17770000000E+01 0. -1.
          3    1    6    6  503    0 -0.17318879869E+03  0.29961010200E+03  0.71861388281E+03  0.79760045497E+03  0.00000000000E+00 0. -1.
         -3    1    6    6    0  503 -0.70919072120E+02  0.38802733067E+02  0.15797090877E+03  0.17745414873E+03  0.00000000000E+00 0.  1.
<mgrwt>
<rscale>  0 0.59136167E+03</rscale>
<asrwt>0</asrwt>
<pdfrwt beam="1">  1        2 0.23357907E+00 0.59136167E+03</pdfrwt>
<pdfrwt beam="2">  1       -2 0.49441753E-01 0.59136167E+03</pdfrwt>
<totfact> 0.49987666E+01</totfact>
</mgrwt>
</event>
<event>
12    1  0.8033771E-008  0.4660477E+03  0.7818608E-02  0.1023042E+00
          2   -1    0    0  501    0  0.00000000000E+00  0.00000000000E+00  0.35546599848E+04  0.35546599848E+04  0.00000000000E+00 0. -1.
         -2   -1    0    0    0  501 -0.00000000000E+00 -0.00000000000E+00 -0.90961928686E+02  0.90961928686E+02  0.00000000000E+00 0.  1.
         23    2    1    2    0    0 -0.24860977241E+03 -0.20376118164E+03  0.47724091185E+03  0.58257468013E+03  0.91153342749E+02 0.  0.
    5000000    2    1    2    0    0  0.24860977241E+03  0.20376118164E+03  0.29864571442E+04  0.30630472333E+04  0.60000553431E+03 0.  0.
         23    2    4    4    0    0  0.14174668497E+03 -0.16451513711E+03  0.60490801330E+03  0.64905729270E+03  0.90577655118E+02 0.  0.
         23    2    4    4    0    0  0.10686308744E+03  0.36827631875E+03  0.23815491309E+04  0.24139899406E+04  0.92325533020E+02 0.  0.
          1    1    3    3  502    0 -0.11566988335E+03 -0.74630343242E+02  0.27949837023E+03  0.31155825941E+03  0.00000000000E+00 0. -1.
         -1    1    3    3    0  502 -0.13293988906E+03 -0.12913083840E+03  0.19774254163E+03  0.27101642072E+03  0.00000000000E+00 0.  1.
         15    1    5    5    0    0  0.94435809366E+02 -0.12908577804E+03  0.53006655544E+03  0.55367406577E+03  0.17770000000E+01 0. -1.
        -15    1    5    5    0    0  0.47310875604E+02 -0.35429359073E+02  0.74841457860E+02  0.95383226924E+02  0.17770000000E+01 0.  1.
          3    1    6    6  503    0  0.67396691321E+02  0.11191434693E+03  0.63647030796E+03  0.64973963090E+03  0.00000000000E+00 0. -1.
         -3    1    6    6    0  503  0.39466396122E+02  0.25636197182E+03  0.17450788229E+04  0.17642503097E+04  0.00000000000E+00 0.  1.
<mgrwt>
<rscale>  0 0.46604767E+03</rscale>
<asrwt>0</asrwt>
<pdfrwt beam="1">  1        2 0.54687066E+00 0.46604767E+03</pdfrwt>
<pdfrwt beam="2">  1       -2 0.13994146E-01 0.46604767E+03</pdfrwt>
<totfact> 0.33553957E+01</totfact>
</mgrwt>
</event>
<event>
12    1  0.8033771E-008  0.7811943E+03  0.7818608E-02  0.9587644E-01
         -2   -1    0    0    0  501 -0.00000000000E+00  0.00000000000E+00  0.97324160698E+03  0.97324160698E+03  0.00000000000E+00 0.  1.
          2   -1    0    0  501    0  0.00000000000E+00 -0.00000000000E+00 -0.90138423451E+03  0.90138423451E+03  0.00000000000E+00 0. -1.
         23    2    1    2    0    0 -0.47531636737E+03  0.47441260251E+03  0.53383496244E+03  0.86255764470E+03  0.89626763892E+02 0.  0.
    5000000    2    1    2    0    0  0.47531636737E+03 -0.47441260251E+03 -0.46197758997E+03  0.10120681968E+04  0.59988813525E+03 0.  0.
         23    2    4    4    0    0  0.28188740820E+03  0.78550121353E+02 -0.16239013406E+03  0.34647668898E+03  0.89693410556E+02 0.  0.
         23    2    4    4    0    0  0.19342895916E+03 -0.55296272387E+03 -0.29958745591E+03  0.66559150781E+03  0.10038364062E+03 0.  0.
          1    1    3    3  502    0 -0.31352183584E+03  0.36965273317E+03  0.37672434594E+03  0.61388949944E+03  0.00000000000E+00 0. -1.
         -1    1    3    3    0  502 -0.16179453152E+03  0.10475986934E+03  0.15711061650E+03  0.24866814527E+03  0.00000000000E+00 0.  1.
         15    1    5    5    0    0  0.15244565425E+03  0.55141733513E+02 -0.13752332387E+03  0.21259376898E+03  0.17770000000E+01 0.  1.
        -15    1    5    5    0    0  0.12944175395E+03  0.23408387841E+02 -0.24866810191E+02  0.13388291999E+03  0.17770000000E+01 0. -1.
          1    1    6    6  503    0  0.49870169972E+02 -0.26321623874E+03 -0.10210927075E+03  0.28669866648E+03  0.00000000000E+00 0. -1.
         -1    1    6    6    0  503  0.14355878919E+03 -0.28974648512E+03 -0.19747818516E+03  0.37889284133E+03  0.00000000000E+00 0.  1.
<mgrwt>
<rscale>  0 0.78119430E+03</rscale>
<asrwt>0</asrwt>
<pdfrwt beam="1">  1        2 0.13867450E+00 0.78119430E+03</pdfrwt>
<pdfrwt beam="2">  1       -2 0.14972948E+00 0.78119430E+03</pdfrwt>
<totfact> 0.89277910E+00</totfact>
</mgrwt>
</event>
<event>
12    1  0.8033771E-008  0.6645694E+03  0.7818608E-02  0.9779818E-01
         -1   -1    0    0    0  501 -0.00000000000E+00  0.00000000000E+00  0.10677916540E+04  0.10677916540E+04  0.00000000000E+00 0.  1.
          1   -1    0    0  501    0  0.00000000000E+00 -0.00000000000E+00 -0.19470141478E+04  0.19470141478E+04  0.00000000000E+00 0. -1.
         23    2    1    2    0    0 -0.58180307191E+03  0.19666717544E+03  0.86846036928E+03  0.10676954392E+04  0.92613959256E+02 0.  0.
    5000000    2    1    2    0    0  0.58180307191E+03 -0.19666717544E+03 -0.17476828631E+04  0.19471103626E+04  0.59972542195E+03 0.  0.
         23    2    4    4    0    0  0.33669255156E+03  0.67184015730E+02 -0.13797384552E+04  0.14247656634E+04  0.91670194786E+02 0.  0.
         23    2    4    4    0    0  0.24511052035E+03 -0.26385119117E+03 -0.36794440792E+03  0.52234469920E+03  0.88115147373E+02 0.  0.
          3    1    3    3  502    0 -0.39149746962E+03  0.17221432453E+03  0.56421287471E+03  0.70800014850E+03  0.00000000000E+00 0. -1.
         -3    1    3    3    0  502 -0.19030560229E+03  0.24452850910E+02  0.30424749457E+03  0.35969529067E+03  0.00000000000E+00 0.  1.
         15    1    5    5    0    0  0.27963603160E+03  0.61293158287E+02 -0.12582283213E+04  0.12903855345E+04  0.17770000000E+01 0. -1.
        -15    1    5    5    0    0  0.57056519958E+02  0.58908574434E+01 -0.12151013384E+03  0.13438012884E+03  0.17770000000E+01 0.  1.
          3    1    6    6  503    0  0.14140609358E+03 -0.19707114242E+03 -0.28224755364E+03  0.37215104462E+03  0.00000000000E+00 0. -1.
         -3    1    6    6    0  503  0.10370442677E+03 -0.66780048748E+02 -0.85696854271E+02  0.15019365457E+03  0.00000000000E+00 0.  1.
<mgrwt>
<rscale>  0 0.66456944E+03</rscale>
<asrwt>0</asrwt>
<pdfrwt beam="1">  1        1 0.29954064E+00 0.66456944E+03</pdfrwt>
<pdfrwt beam="2">  1       -1 0.16427564E+00 0.66456944E+03</pdfrwt>
<totfact> 0.94828552E-01</totfact>
</mgrwt>
</event>
<event>
12    1  0.8033771E-008  0.4901106E+03  0.7818608E-02  0.1016393E+00
         -4   -1    0    0    0  501 -0.00000000000E+00  0.00000000000E+00  0.19561682017E+04  0.19561682017E+04  0.00000000000E+00 0.  1.
          4   -1    0    0  501    0  0.00000000000E+00 -0.00000000000E+00 -0.15815941427E+03  0.15815941427E+03  0.00000000000E+00 0. -1.
         23    2    1    2    0    0 -0.33688383782E+03  0.16383215939E+03  0.83352776886E+03  0.91828170526E+03  0.90227779067E+02 0.  0.
    5000000    2    1    2    0    0  0.33688383782E+03 -0.16383215939E+03  0.96448101862E+03  0.11960459108E+04  0.59997540677E+03 0.  0.
         23    2    4    4    0    0  0.39251982680E+03 -0.26884411811E+03  0.45443459477E+03  0.66439278575E+03  0.92509451214E+02 0.  0.
         23    2    4    4    0    0 -0.55635988980E+02  0.10501195872E+03  0.51004642385E+03  0.53165312501E+03  0.91568641475E+02 0.  0.
          4    1    3    3  502    0 -0.21791970321E+03  0.11980803930E+03  0.44762422124E+03  0.51206484625E+03  0.00000000000E+00 0. -1.
         -4    1    3    3    0  502 -0.11896413461E+03  0.44024120085E+02  0.38590354762E+03  0.40621685901E+03  0.00000000000E+00 0.  1.
         15    1    5    5    0    0  0.23565048707E+03 -0.10879267985E+03  0.26506203482E+03  0.37098253231E+03  0.17770000000E+01 0. -1.
        -15    1    5    5    0    0  0.15686933973E+03 -0.16005143825E+03  0.18937255995E+03  0.29341025344E+03  0.17770000000E+01 0.  1.
          4    1    6    6  503    0 -0.57839962131E+02  0.10233738823E+03  0.30942643009E+03  0.33100319922E+03  0.00000000000E+00 0. -1.
         -4    1    6    6    0  503  0.22039731508E+01  0.26745704859E+01  0.20061999376E+03  0.20064992579E+03  0.00000000000E+00 0.  1.
<mgrwt>
<rscale>  0 0.49011065E+03</rscale>
<asrwt>0</asrwt>
<pdfrwt beam="1">  1        4 0.24332219E-01 0.49011065E+03</pdfrwt>
<pdfrwt beam="2">  1       -4 0.30094894E+00 0.49011065E+03</pdfrwt>
<totfact> 0.10083509E+00</totfact>
</mgrwt>
</event>
<event>
12    1  0.8033771E-008  0.1299683E+04  0.7818608E-02  0.9029817E-01
         -1   -1    0    0    0  501 -0.00000000000E+00  0.00000000000E+00  0.81394599668E+03  0.81394599668E+03  0.00000000000E+00 0.  1.
          1   -1    0    0  501    0  0.00000000000E+00 -0.00000000000E+00 -0.29573651975E+04  0.29573651975E+04  0.00000000000E+00 0. -1.
         23    2    1    2    0    0  0.97308770079E+03  0.80378365980E+03 -0.19997626431E+04  0.23665058044E+04  0.91275672466E+02 0.  0.
    5000000    2    1    2    0    0 -0.97308770079E+03 -0.80378365980E+03 -0.14365655772E+03  0.14048053898E+04  0.59989426685E+03 0.  0.
         23    2    4    4    0    0 -0.24077809854E+03 -0.45798786483E+03 -0.25204753704E+03  0.58261539015E+03  0.90475161476E+02 0.  0.
         23    2    4    4    0    0 -0.73230960225E+03 -0.34579579497E+03  0.10839097932E+03  0.82218999963E+03  0.91628083723E+02 0.  0.
          1    1    3    3  502    0  0.44196592879E+03  0.30677295599E+03 -0.84280945240E+03  0.99988564436E+03  0.00000000000E+00 0. -1.
         -1    1    3    3    0  502  0.53112177200E+03  0.49701070380E+03 -0.11569531907E+04  0.13666201601E+04  0.00000000000E+00 0.  1.
         15    1    5    5    0    0 -0.11944842807E+03 -0.14179385900E+03 -0.70614623972E+02  0.19840112970E+03  0.17770000000E+01 0.  1.
        -15    1    5    5    0    0 -0.12132967046E+03 -0.31619400583E+03 -0.18143291307E+03  0.38421426045E+03  0.17770000000E+01 0. -1.
          1    1    6    6  503    0 -0.25214871944E+03 -0.11524694300E+03  0.81069931642E+02  0.28884800225E+03  0.00000000000E+00 0. -1.
         -1    1    6    6    0  503 -0.48016088281E+03 -0.23054885196E+03  0.27321047681E+02  0.53334199738E+03  0.00000000000E+00 0.  1.
<mgrwt>
<rscale>  0 0.12996829E+04</rscale>
<asrwt>0</asrwt>
<pdfrwt beam="1">  1        1 0.45497925E+00 0.12996829E+04</pdfrwt>
<pdfrwt beam="2">  1       -1 0.12522246E+00 0.12996829E+04</pdfrwt>
<totfact> 0.35038735E-01</totfact>
</mgrwt>
</event>
<event>
12    1  0.8033771E-008  0.5209393E+03  0.7818608E-02  0.1008453E+00
         -2   -1    0    0    0  501 -0.00000000000E+00  0.00000000000E+00  0.80906624707E+03  0.80906624707E+03  0.00000000000E+00 0.  1.
          2   -1    0    0  501    0  0.00000000000E+00 -0.00000000000E+00 -0.76515224285E+03  0.76515224285E+03  0.00000000000E+00 0. -1.
         23    2    1    2    0    0 -0.45556806304E+03 -0.15155843472E+03  0.48570220834E+03  0.68904874445E+03  0.91483975862E+02 0.  0.
    5000000    2    1    2    0    0  0.45556806304E+03  0.15155843472E+03 -0.44178820412E+03  0.88516974548E+03  0.59819431777E+03 0.  0.
         23    2    4    4    0    0  0.44631285844E+03  0.11844868131E+03 -0.56032348711E+03  0.73187698037E+03  0.91957851607E+02 0.  0.
         23    2    4    4    0    0  0.92552046004E+01  0.33109753408E+02  0.11853528299E+03  0.15329276511E+03  0.90918336638E+02 0.  0.
          3    1    3    3  502    0 -0.19674661696E+03 -0.40853011960E+02  0.25775919250E+03  0.32683023298E+03  0.00000000000E+00 0. -1.
         -3    1    3    3    0  502 -0.25882144608E+03 -0.11070542276E+03  0.22794301585E+03  0.36221851147E+03  0.00000000000E+00 0.  1.
         15    1    5    5    0    0  0.90243098247E+02 -0.12362299764E+02 -0.12049477384E+03  0.15105890072E+03  0.17770000000E+01 0. -1.
        -15    1    5    5    0    0  0.35606976019E+03  0.13081098107E+03 -0.43982871328E+03  0.58081807965E+03  0.17770000000E+01 0.  1.
          3    1    6    6  503    0 -0.23954544531E+02 -0.16642808911E+02  0.71423468030E+02  0.77149951896E+02  0.00000000000E+00 0. -1.
         -3    1    6    6    0  503  0.33209749131E+02  0.49752562319E+02  0.47111814962E+02  0.76142813211E+02  0.00000000000E+00 0.  1.
<mgrwt>
<rscale>  0 0.52093933E+03</rscale>
<asrwt>0</asrwt>
<pdfrwt beam="1">  1        2 0.11771573E+00 0.52093933E+03</pdfrwt>
<pdfrwt beam="2">  1       -2 0.12447173E+00 0.52093933E+03</pdfrwt>
<totfact> 0.18451635E+01</totfact>
</mgrwt>
</event>
<event>
12    1  0.8033771E-008  0.6489944E+03  0.7818608E-02  0.9808668E-01
         -2   -1    0    0    0  501 -0.00000000000E+00  0.00000000000E+00  0.58236031754E+03  0.58236031754E+03  0.00000000000E+00 0.  1.
          2   -1    0    0  501    0  0.00000000000E+00 -0.00000000000E+00 -0.21983947222E+04  0.21983947222E+04  0.00000000000E+00 0. -1.
         23    2    1    2    0    0  0.55437259678E+03  0.28932967599E+03  0.28373392627E+03  0.69265141066E+03  0.90666412273E+02 0.  0.
    5000000    2    1    2    0    0 -0.55437259678E+03 -0.28932967599E+03 -0.18997683309E+04  0.20881036291E+04  0.60001368076E+03 0.  0.
         23    2    4    4    0    0 -0.53838280048E+03 -0.28778966935E+03 -0.94417260805E+03  0.11279496591E+04  0.90164217435E+02 0.  0.
         23    2    4    4    0    0 -0.15989796294E+02 -0.15400066392E+01 -0.95559572288E+03  0.96015396995E+03  0.92056586989E+02 0.  0.
          1    1    3    3  502    0  0.22069910255E+03  0.16280686846E+03  0.10647161471E+03  0.29419445104E+03  0.00000000000E+00 0. -1.
         -1    1    3    3    0  502  0.33367349422E+03  0.12652280753E+03  0.17726231156E+03  0.39845695962E+03  0.00000000000E+00 0.  1.
         15    1    5    5    0    0 -0.29051944612E+02 -0.34257700390E+02 -0.43015477164E+02  0.62218120562E+02  0.17770000000E+01 0. -1.
        -15    1    5    5    0    0 -0.50933085587E+03 -0.25353196896E+03 -0.90115713089E+03  0.10657315386E+04  0.17770000000E+01 0.  1.
          1    1    6    6  503    0  0.16141875026E+02 -0.10944541895E+02 -0.46269802671E+02  0.50211928521E+02  0.00000000000E+00 0. -1.
         -1    1    6    6    0  503 -0.32131671320E+02  0.94045352554E+01 -0.90932592021E+03  0.90994204143E+03  0.00000000000E+00 0.  1.
<mgrwt>
<rscale>  0 0.64899436E+03</rscale>
<asrwt>0</asrwt>
<pdfrwt beam="1">  1        2 0.33821458E+00 0.64899436E+03</pdfrwt>
<pdfrwt beam="2">  1       -2 0.89593893E-01 0.64899436E+03</pdfrwt>
<totfact> 0.58594047E+00</totfact>
</mgrwt>
</event>
<event>
12    1  0.8033771E-008  0.2479068E+03  0.7818608E-02  0.1114635E+00
         -4   -1    0    0    0  501 -0.00000000000E+00  0.00000000000E+00  0.95965781964E+02  0.95965781964E+02  0.00000000000E+00 0. -1.
          4   -1    0    0  501    0  0.00000000000E+00 -0.00000000000E+00 -0.13153671058E+04  0.13153671058E+04  0.00000000000E+00 0.  1.
         23    2    1    2    0    0 -0.44568613969E+02 -0.35296214957E+02 -0.16600382480E+03  0.19772181046E+03  0.91128811825E+02 0.  0.
    5000000    2    1    2    0    0  0.44568613969E+02  0.35296214957E+02 -0.10533974991E+04  0.12136110773E+04  0.59997780945E+03 0.  0.
         23    2    4    4    0    0  0.20168542270E+03  0.68306202485E+02 -0.11691784254E+03  0.25922581388E+03  0.90473718004E+02 0.  0.
         23    2    4    4    0    0 -0.15711680873E+03 -0.33009987528E+02 -0.93647965654E+03  0.95438526346E+03  0.89898460146E+02 0.  0.
          1    1    3    3  502    0 -0.10633174766E+02 -0.56024780282E+02 -0.52718842160E+02  0.77660264807E+02  0.00000000000E+00 0. -1.
         -1    1    3    3    0  502 -0.33935439203E+02  0.20728565325E+02 -0.11328498264E+03  0.12006154566E+03  0.00000000000E+00 0.  1.
         15    1    5    5    0    0  0.15616777524E+03  0.79000384012E+02 -0.12019690886E+03  0.21232025181E+03  0.17770000000E+01 0. -1.
        -15    1    5    5    0    0  0.45517647455E+02 -0.10694181527E+02  0.32790663195E+01  0.46905562072E+02  0.17770000000E+01 0.  1.
          3    1    6    6  503    0 -0.10221587432E+03  0.16189964230E+02 -0.66796214363E+03  0.67593167202E+03  0.00000000000E+00 0. -1.
         -3    1    6    6    0  503 -0.54900934415E+02 -0.49199951757E+02 -0.26851751291E+03  0.27845359145E+03  0.00000000000E+00 0.  1.
<mgrwt>
<rscale>  0 0.24790683E+03</rscale>
<asrwt>0</asrwt>
<pdfrwt beam="1">  1        4 0.20236417E+00 0.24790683E+03</pdfrwt>
<pdfrwt beam="2">  1       -4 0.14763967E-01 0.24790683E+03</pdfrwt>
<totfact> 0.97815997E+00</totfact>
</mgrwt>
</event>
<event>
12    1  0.8033771E-008  0.8286470E+03  0.7818608E-02  0.9519453E-01
         -2   -1    0    0    0  501 -0.00000000000E+00  0.00000000000E+00  0.13238840879E+04  0.13238840879E+04  0.00000000000E+00 0.  1.
          2   -1    0    0  501    0  0.00000000000E+00 -0.00000000000E+00 -0.11269927531E+04  0.11269927531E+04  0.00000000000E+00 0. -1.
         23    2    1    2    0    0  0.60468073779E+03 -0.42943737209E+03  0.96889194872E+03  0.12235408305E+04  0.90803658113E+02 0.  0.
    5000000    2    1    2    0    0 -0.60468073779E+03  0.42943737209E+03 -0.77200061391E+03  0.12273360105E+04  0.60026117951E+03 0.  0.
         23    2    4    4    0    0 -0.19408843330E+02 -0.97403157163E+02 -0.20865771397E+02  0.13507743968E+03  0.89142896915E+02 0.  0.
         23    2    4    4    0    0 -0.58527189446E+03  0.52684052926E+03 -0.75113484251E+03  0.10922585708E+04  0.93386831046E+02 0.  0.
          3    1    3    3  502    0  0.20206314202E+03 -0.19714609176E+03  0.35815098799E+03  0.45603533312E+03  0.00000000000E+00 0. -1.
         -3    1    3    3    0  502  0.40261759577E+03 -0.23229128033E+03  0.61074096073E+03  0.76750549735E+03  0.00000000000E+00 0.  1.
         15    1    5    5    0    0  0.25591034976E+02 -0.36919753088E+02 -0.36688260577E+02  0.58027195627E+02  0.17770000000E+01 0. -1.
        -15    1    5    5    0    0 -0.44999878305E+02 -0.60483404075E+02  0.15822489181E+02  0.77050244055E+02  0.17770000000E+01 0.  1.
          3    1    6    6  503    0 -0.14326787536E+03  0.16547931497E+03 -0.25331414443E+03  0.33477924601E+03  0.00000000000E+00 0. -1.
         -3    1    6    6    0  503 -0.44200401910E+03  0.36136121429E+03 -0.49782069808E+03  0.75747932482E+03  0.00000000000E+00 0.  1.
<mgrwt>
<rscale>  0 0.82864705E+03</rscale>
<asrwt>0</asrwt>
<pdfrwt beam="1">  1        2 0.17338350E+00 0.82864705E+03</pdfrwt>
<pdfrwt beam="2">  1       -2 0.20367447E+00 0.82864705E+03</pdfrwt>
<totfact> 0.26769617E+00</totfact>
</mgrwt>
</event>
<event>
12    1  0.8033771E-008  0.1397503E+04  0.7818608E-02  0.8955628E-01
          2   -1    0    0  501    0  0.00000000000E+00  0.00000000000E+00  0.17388491752E+04  0.17388491752E+04  0.00000000000E+00 0. -1.
         -2   -1    0    0    0  501 -0.00000000000E+00 -0.00000000000E+00 -0.12471633848E+04  0.12471633848E+04  0.00000000000E+00 0.  1.
         23    2    1    2    0    0 -0.56166321191E+03 -0.12738238991E+04  0.46309593452E+03  0.14700509878E+04  0.92190956151E+02 0.  0.
    5000000    2    1    2    0    0  0.56166321191E+03  0.12738238991E+04  0.28589855847E+02  0.15159615722E+04  0.59935733821E+03 0.  0.
         23    2    4    4    0    0  0.13295223002E+03  0.44951423699E+03 -0.25263576842E+03  0.54105041222E+03  0.95767282258E+02 0.  0.
         23    2    4    4    0    0  0.42871098189E+03  0.82430966214E+03  0.28122562426E+03  0.97491115997E+03  0.89913252614E+02 0.  0.
          4    1    3    3  502    0 -0.11147629345E+03 -0.24796407171E+03  0.52549461700E+02  0.27690177100E+03  0.00000000000E+00 0. -1.
         -4    1    3    3    0  502 -0.45018691846E+03 -0.10258598274E+04  0.41054647282E+03  0.11931492167E+04  0.00000000000E+00 0.  1.
         15    1    5    5    0    0  0.18954376439E+02  0.32950910959E+02 -0.53028479420E+02  0.65270271011E+02  0.17770000000E+01 0. -1.
        -15    1    5    5    0    0  0.11399785358E+03  0.41656332604E+03 -0.19960728899E+03  0.47578014121E+03  0.17770000000E+01 0.  1.
          1    1    6    6  503    0  0.13581581203E+03  0.35026370112E+03  0.12989248935E+03  0.39749547659E+03  0.00000000000E+00 0. -1.
         -1    1    6    6    0  503  0.29289516986E+03  0.47404596102E+03  0.15133313491E+03  0.57741568338E+03  0.00000000000E+00 0.  1.
<mgrwt>
<rscale>  0 0.13975035E+04</rscale>
<asrwt>0</asrwt>
<pdfrwt beam="1">  1        2 0.26751526E+00 0.13975035E+04</pdfrwt>
<pdfrwt beam="2">  1       -2 0.19187129E+00 0.13975035E+04</pdfrwt>
<totfact> 0.13352396E+00</totfact>
</mgrwt>
</event>
<event>
12    1  0.8033771E-008  0.7108782E+03  0.7818608E-02  0.9698808E-01
          2   -1    0    0  501    0  0.00000000000E+00  0.00000000000E+00  0.13794506849E+04  0.13794506849E+04  0.00000000000E+00 0.  1.
         -2   -1    0    0    0  501 -0.00000000000E+00 -0.00000000000E+00 -0.44736754495E+03  0.44736754495E+03  0.00000000000E+00 0. -1.
         23    2    1    2    0    0  0.60215952280E+03 -0.18652814783E+03  0.14635972312E+03  0.65379757649E+03  0.92958386624E+02 0.  0.
    5000000    2    1    2    0    0 -0.60215952280E+03  0.18652814783E+03  0.78572341683E+03  0.11730206534E+04  0.60102190028E+03 0.  0.
         23    2    4    4    0    0 -0.25348557225E+03 -0.14820536553E+03  0.54684287146E+03  0.62596862519E+03  0.81116138628E+02 0.  0.
         23    2    4    4    0    0 -0.34867395056E+03  0.33473351336E+03  0.23888054537E+03  0.54705202817E+03  0.92638856872E+02 0.  0.
          3    1    3    3  502    0  0.25412075250E+03 -0.31279560295E+02  0.63627470039E+02  0.26382612207E+03  0.00000000000E+00 0. -1.
         -3    1    3    3    0  502  0.34803877030E+03 -0.15524858754E+03  0.82732253080E+02  0.38997145442E+03  0.00000000000E+00 0.  1.
         15    1    5    5    0    0 -0.12333541863E+01 -0.92522335697E+01  0.56592786755E+02  0.57384895489E+02  0.17770000000E+01 0.  1.
        -15    1    5    5    0    0 -0.25225221806E+03 -0.13895313196E+03  0.49025008471E+03  0.56858372970E+03  0.17770000000E+01 0. -1.
          4    1    6    6  503    0 -0.10068042173E+02  0.29785226112E+02 -0.22151500556E+01  0.31518757233E+02  0.00000000000E+00 0.  1.
         -4    1    6    6    0  503 -0.33860590838E+03  0.30494828725E+03  0.24109569542E+03  0.51553327093E+03  0.00000000000E+00 0. -1.
<mgrwt>
<rscale>  0 0.71087815E+03</rscale>
<asrwt>0</asrwt>
<pdfrwt beam="1">  1        2 0.21222318E+00 0.71087815E+03</pdfrwt>
<pdfrwt beam="2">  1       -2 0.68825776E-01 0.71087815E+03</pdfrwt>
<totfact> 0.29423189E+01</totfact>
</mgrwt>
</event>
<event>
12    1  0.8033771E-008  0.5452666E+03  0.7818608E-02  0.1002595E+00
          1   -1    0    0  501    0  0.00000000000E+00  0.00000000000E+00  0.22496241240E+04  0.22496241240E+04  0.00000000000E+00 0. -1.
         -1   -1    0    0    0  501 -0.00000000000E+00 -0.00000000000E+00 -0.16354689612E+03  0.16354689612E+03  0.00000000000E+00 0.  1.
         23    2    1    2    0    0 -0.65273732658E+02 -0.39352882483E+03  0.37111391251E+03  0.55301075620E+03  0.94708839458E+02 0.  0.
    5000000    2    1    2    0    0  0.65273732658E+02  0.39352882483E+03  0.17149633154E+04  0.18601602639E+04  0.59997619809E+03 0.  0.
         23    2    4    4    0    0  0.17262915797E+03 -0.75320708774E+02  0.74214945533E+03  0.77108816365E+03  0.91198172810E+02 0.  0.
         23    2    4    4    0    0 -0.10735542532E+03  0.46884953360E+03  0.97281386003E+03  0.10890721003E+04  0.91466719668E+02 0.  0.
          3    1    3    3  502    0  0.58510044410E+01 -0.24650342034E+03  0.21736422008E+03  0.32870256261E+03  0.00000000000E+00 0. -1.
         -3    1    3    3    0  502 -0.71124737099E+02 -0.14702540448E+03  0.15374969243E+03  0.22430819359E+03  0.00000000000E+00 0.  1.
         15    1    5    5    0    0  0.28788855311E+02  0.10578054599E+02  0.47886757222E+02  0.56894575097E+02  0.17770000000E+01 0. -1.
        -15    1    5    5    0    0  0.14384030266E+03 -0.85898763373E+02  0.69426269811E+03  0.71419358856E+03  0.17770000000E+01 0.  1.
          1    1    6    6  503    0 -0.73396894765E+02  0.38440996424E+03  0.85404347757E+03  0.93944046450E+03  0.00000000000E+00 0.  1.
         -1    1    6    6    0  503 -0.33958530551E+02  0.84439569356E+02  0.11877038246E+03  0.14963163576E+03  0.00000000000E+00 0. -1.
<mgrwt>
<rscale>  0 0.54526663E+03</rscale>
<asrwt>0</asrwt>
<pdfrwt beam="1">  1        1 0.34609600E+00 0.54526663E+03</pdfrwt>
<pdfrwt beam="2">  1       -1 0.25161063E-01 0.54526663E+03</pdfrwt>
<totfact> 0.30011494E+01</totfact>
</mgrwt>
</event>
<event>
12    1  0.8033771E-008  0.7360328E+03  0.7818608E-02  0.9657521E-01
          2   -1    0    0  501    0  0.00000000000E+00  0.00000000000E+00  0.11504509187E+04  0.11504509187E+04  0.00000000000E+00 0. -1.
         -2   -1    0    0    0  501 -0.00000000000E+00 -0.00000000000E+00 -0.49279518504E+03  0.49279518504E+03  0.00000000000E+00 0.  1.
         23    2    1    2    0    0  0.35492374552E+03 -0.51855824367E+03  0.24138685517E+03  0.67948904514E+03  0.92543132680E+02 0.  0.
    5000000    2    1    2    0    0 -0.35492374552E+03  0.51855824367E+03  0.41626887849E+03  0.96375705861E+03  0.60056171341E+03 0.  0.
         23    2    4    4    0    0 -0.63747904178E+01  0.48263590801E+03  0.14346975490E+03  0.51166954840E+03  0.90797018353E+02 0.  0.
         23    2    4    4    0    0 -0.34854895510E+03  0.35922335664E+02  0.27279912359E+03  0.45208751021E+03  0.84775979811E+02 0.  0.
          1    1    3    3  502    0  0.21611631429E+03 -0.28748480734E+03  0.91728687099E+02  0.37117102229E+03  0.00000000000E+00 0. -1.
         -1    1    3    3    0  502  0.13880743123E+03 -0.23107343633E+03  0.14965816807E+03  0.30831802284E+03  0.00000000000E+00 0.  1.
         15    1    5    5    0    0  0.54531974023E+01  0.37149122348E+03  0.70472539717E+02  0.37816002310E+03  0.17770000000E+01 0.  1.
        -15    1    5    5    0    0 -0.11827987820E+02  0.11114468452E+03  0.72997215181E+02  0.13350952531E+03  0.17770000000E+01 0. -1.
          3    1    6    6  503    0 -0.19382252318E+03 -0.20342566964E+02  0.13122671336E+03  0.23494986874E+03  0.00000000000E+00 0. -1.
         -3    1    6    6    0  503 -0.15472643192E+03  0.56264902628E+02  0.14157241024E+03  0.21713764147E+03  0.00000000000E+00 0.  1.
<mgrwt>
<rscale>  0 0.73603281E+03</rscale>
<asrwt>0</asrwt>
<pdfrwt beam="1">  1        2 0.17699245E+00 0.73603281E+03</pdfrwt>
<pdfrwt beam="2">  1       -2 0.75814644E-01 0.73603281E+03</pdfrwt>
<totfact> 0.32242259E+01</totfact>
</mgrwt>
</event>
<event>
12    1  0.8033771E-008  0.1073980E+04  0.7818608E-02  0.9230930E-01
         -2   -1    0    0    0  501 -0.00000000000E+00  0.00000000000E+00  0.73526433168E+03  0.73526433168E+03  0.00000000000E+00 0.  1.
          2   -1    0    0  501    0  0.00000000000E+00 -0.00000000000E+00 -0.24998989022E+04  0.24998989022E+04  0.00000000000E+00 0. -1.
         23    2    1    2    0    0  0.85031208791E+03  0.58935215744E+03  0.74921608585E+02  0.10409927668E+04  0.87670295881E+02 0.  0.
    5000000    2    1    2    0    0 -0.85031208791E+03 -0.58935215744E+03 -0.18395561791E+04  0.21941704671E+04  0.60004207367E+03 0.  0.
         23    2    4    4    0    0 -0.96884233024E+02  0.40864990567E+02 -0.56870879284E+03  0.58553906284E+03  0.91486616498E+02 0.  0.
         23    2    4    4    0    0 -0.75342785489E+03 -0.63021714801E+03 -0.12708473863E+04  0.16086314043E+04  0.88400957842E+02 0.  0.
          4    1    3    3  502    0  0.71110433394E+03  0.50290223954E+03  0.31792273181E+02  0.87154505616E+03  0.00000000000E+00 0. -1.
         -4    1    3    3    0  502  0.13920775397E+03  0.86449917909E+02  0.43129335404E+02  0.16944771065E+03  0.00000000000E+00 0.  1.
         15    1    5    5    0    0 -0.43990142324E+02 -0.21375780630E+02 -0.32088138675E+03  0.32459217290E+03  0.17770000000E+01 0. -1.
        -15    1    5    5    0    0 -0.52894090700E+02  0.62240771196E+02 -0.24782740609E+03  0.26094688994E+03  0.17770000000E+01 0.  1.
          2    1    6    6  503    0 -0.32944676976E+03 -0.26180141345E+03 -0.61424237851E+03  0.74455950316E+03  0.00000000000E+00 0. -1.
         -2    1    6    6    0  503 -0.42398108513E+03 -0.36841573456E+03 -0.65660500778E+03  0.86407190109E+03  0.00000000000E+00 0.  1.
<mgrwt>
<rscale>  0 0.10739804E+04</rscale>
<asrwt>0</asrwt>
<pdfrwt beam="1">  1        2 0.38459983E+00 0.10739804E+04</pdfrwt>
<pdfrwt beam="2">  1       -2 0.11311759E+00 0.10739804E+04</pdfrwt>
<totfact> 0.21314851E+00</totfact>
</mgrwt>
</event>
<event>
12    1  0.8033771E-008  0.8017774E+03  0.7818608E-02  0.9557448E-01
         -2   -1    0    0    0  501 -0.00000000000E+00  0.00000000000E+00  0.28148412763E+03  0.28148412763E+03  0.00000000000E+00 0.  1.
          2   -1    0    0  501    0  0.00000000000E+00 -0.00000000000E+00 -0.26653176864E+04  0.26653176864E+04  0.00000000000E+00 0. -1.
         23    2    1    2    0    0  0.64743341245E+03  0.31282428922E+03 -0.14678061639E+04  0.16367618917E+04  0.86634265254E+02 0.  0.
    5000000    2    1    2    0    0 -0.64743341245E+03 -0.31282428922E+03 -0.91602739486E+03  0.13100399223E+04  0.60005778922E+03 0.  0.
         23    2    4    4    0    0 -0.55976969906E+03 -0.11987464675E+02 -0.76196020840E+03  0.94987427247E+03  0.90509441614E+02 0.  0.
         23    2    4    4    0    0 -0.87663713387E+02 -0.30083682454E+03 -0.15406718647E+03  0.36016564983E+03  0.88288593413E+02 0.  0.
          3    1    3    3  502    0  0.52631193406E+03  0.25937334083E+03 -0.12666025668E+04  0.13959086088E+04  0.00000000000E+00 0. -1.
         -3    1    3    3    0  502  0.12112147839E+03  0.53450948385E+02 -0.20120359707E+03  0.24085328290E+03  0.00000000000E+00 0.  1.
         15    1    5    5    0    0 -0.35118647175E+03  0.32326260865E+02 -0.50491820225E+03  0.61589160879E+03  0.17770000000E+01 0. -1.
        -15    1    5    5    0    0 -0.20858322731E+03 -0.44313725540E+02 -0.25704200614E+03  0.33398266368E+03  0.17770000000E+01 0.  1.
          3    1    6    6  503    0 -0.88241177409E+00 -0.96301412278E+02 -0.13493649853E+02  0.97246178556E+02  0.00000000000E+00 0. -1.
         -3    1    6    6    0  503 -0.86781301613E+02 -0.20453541226E+03 -0.14057353661E+03  0.26291947127E+03  0.00000000000E+00 0.  1.
<mgrwt>
<rscale>  0 0.80177744E+03</rscale>
<asrwt>0</asrwt>
<pdfrwt beam="1">  1        2 0.41004888E+00 0.80177744E+03</pdfrwt>
<pdfrwt beam="2">  1       -2 0.43305250E-01 0.80177744E+03</pdfrwt>
<totfact> 0.14685763E+01</totfact>
</mgrwt>
</event>
<event>
12    1  0.8033771E-008  0.8000625E+03  0.7818608E-02  0.9559927E-01
          2   -1    0    0  501    0  0.00000000000E+00  0.00000000000E+00  0.26249707255E+04  0.26249707255E+04  0.00000000000E+00 0. -1.
         -2   -1    0    0    0  501 -0.00000000000E+00 -0.00000000000E+00 -0.31135912402E+03  0.31135912402E+03  0.00000000000E+00 0.  1.
         23    2    1    2    0    0  0.64611911643E+03 -0.44326840381E+03  0.13046369833E+04  0.15247870349E+04  0.94557143462E+02 0.  0.
    5000000    2    1    2    0    0 -0.64611911643E+03  0.44326840381E+03  0.10089746183E+04  0.14115428146E+04  0.60038866313E+03 0.  0.
         23    2    4    4    0    0 -0.35451710906E+03  0.11442546901E+03  0.97890026583E+02  0.39567410421E+03  0.90553690489E+02 0.  0.
         23    2    4    4    0    0 -0.29160200736E+03  0.32884293479E+03  0.91108459168E+03  0.10158687104E+04  0.93513085458E+02 0.  0.
          3    1    3    3  502    0  0.54593903017E+03 -0.40057064621E+03  0.10724035999E+04  0.12682885115E+04  0.00000000000E+00 0. -1.
         -3    1    3    3    0  502  0.10018008626E+03 -0.42697757594E+02  0.23223338338E+03  0.25649852347E+03  0.00000000000E+00 0.  1.
         15    1    5    5    0    0 -0.17766955932E+03  0.77841730666E+02  0.85152275797E+01  0.19416867454E+03  0.17770000000E+01 0.  1.
        -15    1    5    5    0    0 -0.17684754974E+03  0.36583738346E+02  0.89374799004E+02  0.20150542967E+03  0.17770000000E+01 0. -1.
          4    1    6    6  503    0 -0.99863982552E+02  0.11345929435E+03  0.42012915720E+03  0.44649113677E+03  0.00000000000E+00 0. -1.
         -4    1    6    6    0  503 -0.19173802481E+03  0.21538364044E+03  0.49095543448E+03  0.56937757365E+03  0.00000000000E+00 0.  1.
<mgrwt>
<rscale>  0 0.80006255E+03</rscale>
<asrwt>0</asrwt>
<pdfrwt beam="1">  1        2 0.40384164E+00 0.80006255E+03</pdfrwt>
<pdfrwt beam="2">  1       -2 0.47901405E-01 0.80006255E+03</pdfrwt>
<totfact> 0.12668287E+01</totfact>
</mgrwt>
</event>
<event>
12    1  0.8033771E-008  0.8747113E+03  0.7818608E-02  0.9457758E-01
          2   -1    0    0  501    0  0.00000000000E+00  0.00000000000E+00  0.13378875443E+04  0.13378875443E+04  0.00000000000E+00 0. -1.
         -2   -1    0    0    0  501 -0.00000000000E+00 -0.00000000000E+00 -0.59079652011E+03  0.59079652011E+03  0.00000000000E+00 0.  1.
         23    2    1    2    0    0  0.57758253396E+03  0.53034359443E+03  0.29372406356E+03  0.84232610109E+03  0.91506958101E+02 0.  0.
    5000000    2    1    2    0    0 -0.57758253396E+03 -0.53034359443E+03  0.45336696066E+03  0.10863579634E+04  0.59980506153E+03 0.  0.
         23    2    4    4    0    0 -0.67643808488E+03 -0.38482074053E+03  0.31379393350E+03  0.84408092852E+03  0.91381049255E+02 0.  0.
         23    2    4    4    0    0  0.98855550923E+02 -0.14552285389E+03  0.13957302717E+03  0.24227703484E+03  0.90929702211E+02 0.  0.
          1    1    3    3  502    0  0.23532475772E+03  0.16858550044E+03  0.79491358875E+02  0.30019608374E+03  0.00000000000E+00 0. -1.
         -1    1    3    3    0  502  0.34225777624E+03  0.36175809398E+03  0.21423270468E+03  0.54213001735E+03  0.00000000000E+00 0.  1.
         15    1    5    5    0    0 -0.46004959953E+03 -0.27476756005E+03  0.25914526021E+03  0.59523295415E+03  0.17770000000E+01 0.  1.
        -15    1    5    5    0    0 -0.21638848535E+03 -0.11005318048E+03  0.54648673288E+02  0.24884797437E+03  0.17770000000E+01 0. -1.
          3    1    6    6  503    0  0.51006720438E+02 -0.32269450235E+02  0.58746533852E+01  0.60642513971E+02  0.00000000000E+00 0. -1.
         -3    1    6    6    0  503  0.47848830485E+02 -0.11325340366E+03  0.13369837378E+03  0.18163452087E+03  0.00000000000E+00 0.  1.
<mgrwt>
<rscale>  0 0.87471133E+03</rscale>
<asrwt>0</asrwt>
<pdfrwt beam="1">  1        2 0.20582885E+00 0.87471133E+03</pdfrwt>
<pdfrwt beam="2">  1       -2 0.90891773E-01 0.87471133E+03</pdfrwt>
<totfact> 0.16350786E+01</totfact>
</mgrwt>
</event>
<event>
12    1  0.8033771E-008  0.1074556E+04  0.7818608E-02  0.9230352E-01
          2   -1    0    0  501    0  0.00000000000E+00  0.00000000000E+00  0.26135243218E+04  0.26135243218E+04  0.00000000000E+00 0.  1.
         -2   -1    0    0    0  501 -0.00000000000E+00 -0.00000000000E+00 -0.67497784596E+03  0.67497784596E+03  0.00000000000E+00 0. -1.
         23    2    1    2    0    0 -0.10448755972E+04  0.48928038251E+02  0.54472622485E+02  0.10515487121E+04  0.92889509136E+02 0.  0.
    5000000    2    1    2    0    0  0.10448755972E+04 -0.48928038251E+02  0.18840738534E+04  0.22369534557E+04  0.60005625675E+03 0.  0.
         23    2    4    4    0    0  0.82535425786E+03 -0.17486486908E+03  0.17313696183E+04  0.19281613572E+04  0.91531912098E+02 0.  0.
         23    2    4    4    0    0  0.21952133931E+03  0.12593683083E+03  0.15270423511E+03  0.30879209845E+03  0.89354758532E+02 0.  0.
          4    1    3    3  502    0 -0.71059985122E+03  0.31223541225E+02 -0.64020552676E+01  0.71131430774E+03  0.00000000000E+00 0. -1.
         -4    1    3    3    0  502 -0.33427574595E+03  0.17704497027E+02  0.60874677752E+02  0.34023440440E+03  0.00000000000E+00 0.  1.
         15    1    5    5    0    0  0.31944304446E+02 -0.51229932180E+01  0.11648405218E+03  0.12090647537E+03  0.17770000000E+01 0. -1.
        -15    1    5    5    0    0  0.79340995341E+03 -0.16974187586E+03  0.16148855661E+04  0.18072548818E+04  0.17770000000E+01 0.  1.
          3    1    6    6  503    0  0.40449434753E+02  0.97014951715E-01  0.57053507666E+02  0.69937607342E+02  0.00000000000E+00 0. -1.
         -3    1    6    6    0  503  0.17907190456E+03  0.12583981588E+03  0.95650727448E+02  0.23885449111E+03  0.00000000000E+00 0.  1.
<mgrwt>
<rscale>  0 0.10745564E+04</rscale>
<asrwt>0</asrwt>
<pdfrwt beam="1">  1        2 0.40208066E+00 0.10745564E+04</pdfrwt>
<pdfrwt beam="2">  1       -2 0.10384275E+00 0.10745564E+04</pdfrwt>
<totfact> 0.22556907E+00</totfact>
</mgrwt>
</event>
<event>
12    1  0.8033771E-008  0.5559912E+03  0.7818608E-02  0.1000117E+00
          1   -1    0    0  501    0  0.00000000000E+00  0.00000000000E+00  0.95730627912E+03  0.95730627912E+03  0.00000000000E+00 0. -1.
         -1   -1    0    0    0  501 -0.00000000000E+00 -0.00000000000E+00 -0.37873351542E+03  0.37873351542E+03  0.00000000000E+00 0.  1.
         23    2    1    2    0    0  0.17212918818E+03  0.35833046230E+03 -0.75625003585E+01  0.40786014152E+03  0.90903938276E+02 0.  0.
    5000000    2    1    2    0    0 -0.17212918818E+03 -0.35833046230E+03  0.58613526405E+03  0.92817965301E+03  0.59994478318E+03 0.  0.
         23    2    4    4    0    0  0.20819452237E+03 -0.15837186697E+03  0.24252661333E+03  0.37048242251E+03  0.10005728272E+03 0.  0.
         23    2    4    4    0    0 -0.38032371055E+03 -0.19995859533E+03  0.34360865073E+03  0.55769723050E+03  0.91267362211E+02 0.  0.
          4    1    3    3  502    0  0.74819484850E+02  0.13994493182E+03 -0.47091429185E+02  0.16552988237E+03  0.00000000000E+00 0. -1.
         -4    1    3    3    0  502  0.97309703333E+02  0.21838553048E+03  0.39528928826E+02  0.24233025915E+03  0.00000000000E+00 0.  1.
         15    1    5    5    0    0  0.18917827084E+03 -0.16851639617E+03  0.20004000881E+03  0.32280854510E+03  0.17770000000E+01 0. -1.
        -15    1    5    5    0    0  0.19016251528E+02  0.10144529199E+02  0.42486604517E+02  0.47673877409E+02  0.17770000000E+01 0.  1.
          2    1    6    6  503    0 -0.71948619813E+02 -0.81923609848E+02  0.88793322189E+02  0.14061413801E+03  0.00000000000E+00 0. -1.
         -2    1    6    6    0  503 -0.30837509074E+03 -0.11803498548E+03  0.25481532854E+03  0.41708309249E+03  0.00000000000E+00 0.  1.
<mgrwt>
<rscale>  0 0.55599120E+03</rscale>
<asrwt>0</asrwt>
<pdfrwt beam="1">  1        1 0.14727789E+00 0.55599120E+03</pdfrwt>
<pdfrwt beam="2">  1       -1 0.58266695E-01 0.55599120E+03</pdfrwt>
<totfact> 0.51070067E+01</totfact>
</mgrwt>
</event>
<event>
12    1  0.8033771E-008  0.1633414E+04  0.7818608E-02  0.8800280E-01
         -2   -1    0    0    0  501 -0.00000000000E+00  0.00000000000E+00  0.17208343099E+04  0.17208343099E+04  0.00000000000E+00 0.  1.
          2   -1    0    0  501    0  0.00000000000E+00 -0.00000000000E+00 -0.23954398514E+04  0.23954398514E+04  0.00000000000E+00 0. -1.
         23    2    1    2    0    0  0.39630268739E+03 -0.15281738591E+04  0.88928089882E+03  0.18145137392E+04  0.96272679968E+02 0.  0.
    5000000    2    1    2    0    0 -0.39630268739E+03  0.15281738591E+04 -0.15638864404E+04  0.23017604221E+04  0.59999089904E+03 0.  0.
         23    2    4    4    0    0  0.61476542498E+02  0.89032086302E+03 -0.79641161988E+03  0.12000652539E+04  0.97131564745E+02 0.  0.
         23    2    4    4    0    0 -0.45777922989E+03  0.63785299610E+03 -0.76747482048E+03  0.11016951683E+04  0.91084443189E+02 0.  0.
          1    1    3    3  502    0  0.59383414621E+02 -0.33561703652E+03  0.15884999111E+03  0.37602992542E+03  0.00000000000E+00 0. -1.
         -1    1    3    3    0  502  0.33691927277E+03 -0.11925568226E+04  0.73043090771E+03  0.14384838137E+04  0.00000000000E+00 0.  1.
         15    1    5    5    0    0 -0.94838653811E+01  0.47009114995E+03 -0.45041087213E+03  0.65111346509E+03  0.17770000000E+01 0.  1.
        -15    1    5    5    0    0  0.70960407879E+02  0.42022971307E+03 -0.34600074775E+03  0.54895178878E+03  0.17770000000E+01 0. -1.
          1    1    6    6  503    0 -0.31462656349E+03  0.50556425745E+03 -0.57875059408E+03  0.83038385281E+03  0.00000000000E+00 0. -1.
         -1    1    6    6    0  503 -0.14315266640E+03  0.13228873865E+03 -0.18872422640E+03  0.27131131546E+03  0.00000000000E+00 0.  1.
<mgrwt>
<rscale>  0 0.16334137E+04</rscale>
<asrwt>0</asrwt>
<pdfrwt beam="1">  1        2 0.36852921E+00 0.16334137E+04</pdfrwt>
<pdfrwt beam="2">  1       -2 0.26474374E+00 0.16334137E+04</pdfrwt>
<totfact> 0.19264983E-01</totfact>
</mgrwt>
</event>
<event>
12    1  0.8033771E-008  0.8358912E+03  0.7818608E-02  0.9509471E-01
         -2   -1    0    0    0  501 -0.00000000000E+00  0.00000000000E+00  0.21291889355E+03  0.21291889355E+03  0.00000000000E+00 0.  1.
          2   -1    0    0  501    0  0.00000000000E+00 -0.00000000000E+00 -0.40878340771E+04  0.40878340771E+04  0.00000000000E+00 0. -1.
         23    2    1    2    0    0  0.82208384194E+03 -0.12259940551E+03 -0.18967658334E+04  0.20727964602E+04  0.88949879232E+02 0.  0.
    5000000    2    1    2    0    0 -0.82208384194E+03  0.12259940551E+03 -0.19781493501E+04  0.22279565105E+04  0.59988574228E+03 0.  0.
         23    2    4    4    0    0 -0.11607889469E+03 -0.78132215640E+01 -0.10012771593E+04  0.10122376604E+04  0.92378434039E+02 0.  0.
         23    2    4    4    0    0 -0.70600494725E+03  0.13041262707E+03 -0.97687219076E+03  0.12157188501E+04  0.90788801544E+02 0.  0.
          1    1    3    3  502    0  0.59207003167E+03 -0.66441858724E+02 -0.12701653351E+04  0.14029545330E+04  0.00000000000E+00 0. -1.
         -1    1    3    3    0  502  0.23001381026E+03 -0.56157546786E+02 -0.62660049829E+03  0.66984192719E+03  0.00000000000E+00 0.  1.
         15    1    5    5    0    0 -0.11530634494E+02 -0.74863581564E+01 -0.14966750338E+02  0.20400059680E+02  0.17770000000E+01 0.  1.
        -15    1    5    5    0    0 -0.10454826019E+03 -0.32686340768E+00 -0.98631040900E+03  0.99183760071E+03  0.17770000000E+01 0. -1.
          3    1    6    6  503    0 -0.61593330889E+03  0.13521467726E+03 -0.81578476647E+03  0.10310972966E+04  0.00000000000E+00 0. -1.
         -3    1    6    6    0  503 -0.90071638362E+02 -0.48020501895E+01 -0.16108742429E+03  0.18462155342E+03  0.00000000000E+00 0.  1.
<mgrwt>
<rscale>  0 0.83589117E+03</rscale>
<asrwt>0</asrwt>
<pdfrwt beam="1">  1        2 0.62889756E+00 0.83589117E+03</pdfrwt>
<pdfrwt beam="2">  1       -2 0.32756752E-01 0.83589117E+03</pdfrwt>
<totfact> 0.27465051E+00</totfact>
</mgrwt>
</event>
<event>
12    1  0.8033771E-008  0.8448196E+03  0.7818608E-02  0.9497316E-01
          2   -1    0    0  501    0  0.00000000000E+00  0.00000000000E+00  0.36087761811E+04  0.36087761811E+04  0.00000000000E+00 0. -1.
         -2   -1    0    0    0  501 -0.00000000000E+00 -0.00000000000E+00 -0.22773567125E+03  0.22773567125E+03  0.00000000000E+00 0.  1.
         23    2    1    2    0    0  0.65934666391E+03 -0.35901307988E+03  0.89773300308E+03  0.11737267538E+04  0.89897347001E+02 0.  0.
    5000000    2    1    2    0    0 -0.65934666391E+03  0.35901307988E+03  0.24833075068E+04  0.26627850986E+04  0.59998324407E+03 0.  0.
         23    2    4    4    0    0 -0.47053060867E+03 -0.47999804160E+02  0.98852715413E+03  0.10995342208E+04  0.89925153650E+02 0.  0.
         23    2    4    4    0    0 -0.18881605525E+03  0.40701288404E+03  0.14947803526E+04  0.15632508778E+04  0.89855516355E+02 0.  0.
          1    1    3    3  502    0  0.31513848574E+03 -0.21750818961E+03  0.48604668108E+03  0.61875960916E+03  0.00000000000E+00 0. -1.
         -1    1    3    3    0  502  0.34420817817E+03 -0.14150489028E+03  0.41168632200E+03  0.55496714463E+03  0.00000000000E+00 0.  1.
         15    1    5    5    0    0 -0.24722065169E+03  0.60347961930E+01  0.58607416724E+03  0.63611363499E+03  0.17770000000E+01 0. -1.
        -15    1    5    5    0    0 -0.22330995698E+03 -0.54034600353E+02  0.40245298689E+03  0.46342058576E+03  0.17770000000E+01 0.  1.
          2    1    6    6  503    0 -0.23604961342E+02  0.15085650844E+03  0.48508108816E+03  0.50854551658E+03  0.00000000000E+00 0. -1.
         -2    1    6    6    0  503 -0.16521109390E+03  0.25615637560E+03  0.10096992645E+04  0.10547053612E+04  0.00000000000E+00 0.  1.
<mgrwt>
<rscale>  0 0.84481958E+03</rscale>
<asrwt>0</asrwt>
<pdfrwt beam="1">  1        2 0.55519629E+00 0.84481958E+03</pdfrwt>
<pdfrwt beam="2">  1       -2 0.35036260E-01 0.84481958E+03</pdfrwt>
<totfact> 0.55526243E+00</totfact>
</mgrwt>
</event>
<event>
12    1  0.8033771E-008  0.3259413E+03  0.7818608E-02  0.1072947E+00
         -2   -1    0    0    0  501 -0.00000000000E+00  0.00000000000E+00  0.95504791007E+02  0.95504791007E+02  0.00000000000E+00 0. -1.
          2   -1    0    0  501    0  0.00000000000E+00 -0.00000000000E+00 -0.31167065305E+04  0.31167065305E+04  0.00000000000E+00 0.  1.
         23    2    1    2    0    0 -0.21173719938E+02  0.21886722797E+03 -0.17726939083E+03  0.29738472773E+03  0.93070131990E+02 0.  0.
    5000000    2    1    2    0    0  0.21173719938E+02 -0.21886722797E+03 -0.28439323487E+04  0.29148265938E+04  0.59992639392E+03 0.  0.
         23    2    4    4    0    0 -0.78033166477E+02  0.55881438708E+02 -0.21822660757E+04  0.21860619161E+04  0.85846173109E+02 0.  0.
         23    2    4    4    0    0  0.99206886416E+02 -0.27474866668E+03 -0.66166627295E+03  0.72876467770E+03  0.89257282928E+02 0.  0.
          3    1    3    3  502    0  0.19492464522E+02  0.11027941925E+03 -0.13150286834E+03  0.17272669413E+03  0.00000000000E+00 0. -1.
         -3    1    3    3    0  502 -0.40666184460E+02  0.10858780872E+03 -0.45766522488E+02  0.12465803360E+03  0.00000000000E+00 0.  1.
         15    1    5    5    0    0 -0.49847580442E+02 -0.10960702967E+02 -0.12176050421E+04  0.12186755575E+04  0.17770000000E+01 0.  1.
        -15    1    5    5    0    0 -0.28185586035E+02  0.66842141675E+02 -0.96466103361E+03  0.96738635853E+03  0.17770000000E+01 0. -1.
          2    1    6    6  503    0  0.24275399134E+02 -0.11991833784E+02 -0.29304637026E+02  0.39898130681E+02  0.00000000000E+00 0. -1.
         -2    1    6    6    0  503  0.74931487282E+02 -0.26275683289E+03 -0.63236163592E+03  0.68886654702E+03  0.00000000000E+00 0.  1.
<mgrwt>
<rscale>  0 0.32594127E+03</rscale>
<asrwt>0</asrwt>
<pdfrwt beam="1">  1        2 0.47949336E+00 0.32594127E+03</pdfrwt>
<pdfrwt beam="2">  1       -2 0.14693043E-01 0.32594127E+03</pdfrwt>
<totfact> 0.61855174E+01</totfact>
</mgrwt>
</event>
<event>
12    1  0.8033771E-008  0.1058462E+04  0.7818608E-02  0.9246651E-01
          1   -1    0    0  501    0  0.00000000000E+00  0.00000000000E+00  0.22660400040E+04  0.22660400040E+04  0.00000000000E+00 0. -1.
         -1   -1    0    0    0  501 -0.00000000000E+00 -0.00000000000E+00 -0.66997313459E+03  0.66997313459E+03  0.00000000000E+00 0.  1.
         23    2    1    2    0    0 -0.88711421236E+03 -0.44509990614E+03  0.42763871258E+02  0.99755256360E+03  0.90536270352E+02 0.  0.
    5000000    2    1    2    0    0  0.88711421236E+03  0.44509990614E+03  0.15533029981E+04  0.19384605750E+04  0.59982801244E+03 0.  0.
         23    2    4    4    0    0  0.74320217845E+03  0.12334547780E+03  0.80264729985E+03  0.11043784143E+04  0.88574313905E+02 0.  0.
         23    2    4    4    0    0  0.14391203391E+03  0.32175442834E+03  0.75065569829E+03  0.83408216067E+03  0.89288788336E+02 0.  0.
          2    1    3    3  502    0 -0.36067797096E+03 -0.13196688554E+03  0.21234725486E+02  0.38464889338E+03  0.00000000000E+00 0. -1.
         -2    1    3    3    0  502 -0.52643624140E+03 -0.31313302061E+03  0.21529145772E+02  0.61290367022E+03  0.00000000000E+00 0.  1.
         15    1    5    5    0    0  0.54461065158E+03  0.12959778033E+03  0.58748742326E+03  0.81150537687E+03  0.17770000000E+01 0. -1.
        -15    1    5    5    0    0  0.19859152687E+03 -0.62523025216E+01  0.21515987659E+03  0.29287303744E+03  0.17770000000E+01 0.  1.
          1    1    6    6  503    0  0.74608029382E+02  0.76090041344E+02  0.18490529881E+03  0.21341513997E+03  0.00000000000E+00 0. -1.
         -1    1    6    6    0  503  0.69304004527E+02  0.24566438699E+03  0.56575039947E+03  0.62066702070E+03  0.00000000000E+00 0.  1.
<mgrwt>
<rscale>  0 0.10584621E+04</rscale>
<asrwt>0</asrwt>
<pdfrwt beam="1">  1        1 0.34862154E+00 0.10584621E+04</pdfrwt>
<pdfrwt beam="2">  1       -1 0.10307279E+00 0.10584621E+04</pdfrwt>
<totfact> 0.17562285E+00</totfact>
</mgrwt>
</event>
<event>
12    1  0.8033771E-008  0.7483121E+03  0.7818608E-02  0.9638002E-01
          1   -1    0    0  501    0  0.00000000000E+00  0.00000000000E+00  0.16911245955E+04  0.16911245955E+04  0.00000000000E+00 0. -1.
         -1   -1    0    0    0  501 -0.00000000000E+00 -0.00000000000E+00 -0.48000609513E+03  0.48000609513E+03  0.00000000000E+00 0.  1.
         23    2    1    2    0    0 -0.67453724931E+03 -0.25021378901E+03  0.12396912874E+03  0.73605651216E+03  0.93826453062E+02 0.  0.
    5000000    2    1    2    0    0  0.67453724931E+03  0.25021378901E+03  0.10871493717E+04  0.14350741785E+04  0.59994724816E+03 0.  0.
         23    2    4    4    0    0  0.40118790919E+03  0.17683523047E+02  0.95711403894E+03  0.10418773820E+04  0.90425383862E+02 0.  0.
         23    2    4    4    0    0  0.27334934012E+03  0.23253026596E+03  0.13003533272E+03  0.39319679654E+03  0.94362846073E+02 0.  0.
          3    1    3    3  502    0 -0.51599788793E+03 -0.15614503760E+03  0.67859089381E+02  0.54335987074E+03  0.00000000000E+00 0. -1.
         -3    1    3    3    0  502 -0.15853936138E+03 -0.94068751409E+02  0.56110039362E+02  0.19269664142E+03  0.00000000000E+00 0.  1.
         15    1    5    5    0    0  0.58962628419E+02  0.35556003731E+02  0.15364882804E+03  0.16838034635E+03  0.17770000000E+01 0. -1.
        -15    1    5    5    0    0  0.34222528077E+03 -0.17872480684E+02  0.80346521090E+03  0.87349703561E+03  0.17770000000E+01 0.  1.
          3    1    6    6  503    0  0.16057728734E+03  0.16457548078E+03  0.12435975690E+03  0.26141060273E+03  0.00000000000E+00 0. -1.
         -3    1    6    6    0  503  0.11277205278E+03  0.67954785177E+02  0.56755758233E+01  0.13178619380E+03  0.00000000000E+00 0.  1.
<mgrwt>
<rscale>  0 0.74831212E+03</rscale>
<asrwt>0</asrwt>
<pdfrwt beam="1">  1        1 0.26017301E+00 0.74831212E+03</pdfrwt>
<pdfrwt beam="2">  1       -1 0.73847093E-01 0.74831212E+03</pdfrwt>
<totfact> 0.92989783E+00</totfact>
</mgrwt>
</event>
<event>
12    1  0.8033771E-008  0.7908528E+03  0.7818608E-02  0.9573353E-01
          1   -1    0    0  501    0  0.00000000000E+00  0.00000000000E+00  0.87781135290E+03  0.87781135290E+03  0.00000000000E+00 0. -1.
         -1   -1    0    0    0  501 -0.00000000000E+00 -0.00000000000E+00 -0.91225829216E+03  0.91225829216E+03  0.00000000000E+00 0.  1.
         23    2    1    2    0    0  0.77234956490E+03 -0.87197380663E+02  0.13292252901E+03  0.79400678237E+03  0.93011494558E+02 0.  0.
    5000000    2    1    2    0    0 -0.77234956490E+03  0.87197380663E+02 -0.16736946828E+03  0.99606286269E+03  0.60000121159E+03 0.  0.
         23    2    4    4    0    0 -0.18374250059E+03 -0.42996496411E+02 -0.30481635450E+03  0.37085896985E+03  0.94938718749E+02 0.  0.
         23    2    4    4    0    0 -0.58860706431E+03  0.13019387707E+03  0.13744688622E+03  0.62520389284E+03  0.92625802602E+02 0.  0.
          1    1    3    3  502    0  0.58637482731E+02  0.18017541567E+02  0.12371463615E+02  0.62578265374E+02  0.00000000000E+00 0. -1.
         -1    1    3    3    0  502  0.71371208217E+03 -0.10521492223E+03  0.12055106540E+03  0.73142851699E+03  0.00000000000E+00 0.  1.
         15    1    5    5    0    0 -0.27979086311E+02 -0.15709734787E+02 -0.13514836981E+03  0.13891675431E+03  0.17770000000E+01 0.  1.
        -15    1    5    5    0    0 -0.15576341428E+03 -0.27286761624E+02 -0.16966798469E+03  0.23194221554E+03  0.17770000000E+01 0. -1.
          1    1    6    6  503    0 -0.34615313949E+03  0.34014809382E+02  0.98336641319E+02  0.36145414406E+03  0.00000000000E+00 0. -1.
         -1    1    6    6    0  503 -0.24245392482E+03  0.96179067692E+02  0.39110244904E+02  0.26374974878E+03  0.00000000000E+00 0.  1.
<mgrwt>
<rscale>  0 0.79085276E+03</rscale>
<asrwt>0</asrwt>
<pdfrwt beam="1">  1        1 0.13504790E+00 0.79085276E+03</pdfrwt>
<pdfrwt beam="2">  1       -1 0.14034743E+00 0.79085276E+03</pdfrwt>
<totfact> 0.81186549E+00</totfact>
</mgrwt>
</event>
<event>
12    1  0.8033771E-008  0.1109007E+04  0.7818608E-02  0.9196458E-01
         -2   -1    0    0    0  501 -0.00000000000E+00  0.00000000000E+00  0.10588518776E+04  0.10588518776E+04  0.00000000000E+00 0. -1.
          2   -1    0    0  501    0  0.00000000000E+00 -0.00000000000E+00 -0.13425118549E+04  0.13425118549E+04  0.00000000000E+00 0.  1.
         23    2    1    2    0    0  0.88263667819E+03 -0.65627184334E+03 -0.31654245984E+03  0.11480698758E+04  0.90139185431E+02 0.  0.
    5000000    2    1    2    0    0 -0.88263667819E+03  0.65627184334E+03  0.32882482561E+02  0.12532938568E+04  0.59993665978E+03 0.  0.
         23    2    4    4    0    0 -0.58626817899E+03  0.32947541566E+03  0.28644150616E+03  0.73649726460E+03  0.90083611738E+02 0.  0.
         23    2    4    4    0    0 -0.29636849921E+03  0.32679642768E+03 -0.25355902359E+03  0.51679659218E+03  0.90312495148E+02 0.  0.
          3    1    3    3  502    0  0.71340918947E+03 -0.50976750457E+03 -0.28528364678E+03  0.92206417318E+03  0.00000000000E+00 0. -1.
         -3    1    3    3    0  502  0.16922748872E+03 -0.14650433876E+03 -0.31258813063E+02  0.22600570260E+03  0.00000000000E+00 0.  1.
         15    1    5    5    0    0 -0.21940286571E+02  0.29470727583E+02  0.31426364766E+02  0.48380513541E+02  0.17770000000E+01 0. -1.
        -15    1    5    5    0    0 -0.56432789241E+03  0.30000468808E+03  0.25501514139E+03  0.68811675106E+03  0.17770000000E+01 0.  1.
          2    1    6    6  503    0 -0.30376690651E+02  0.41069475493E+02 -0.66677766968E+02  0.83996248488E+02  0.00000000000E+00 0. -1.
         -2    1    6    6    0  503 -0.26599180856E+03  0.28572695219E+03 -0.18688125663E+03  0.43280034370E+03  0.00000000000E+00 0.  1.
<mgrwt>
<rscale>  0 0.11090066E+04</rscale>
<asrwt>0</asrwt>
<pdfrwt beam="1">  1        2 0.20654028E+00 0.11090066E+04</pdfrwt>
<pdfrwt beam="2">  1       -2 0.16290029E+00 0.11090066E+04</pdfrwt>
<totfact> 0.36709366E+00</totfact>
</mgrwt>
</event>
<event>
12    1  0.8033771E-008  0.4564958E+03  0.7818608E-02  0.1025802E+00
         -2   -1    0    0    0  501 -0.00000000000E+00  0.00000000000E+00  0.21549570679E+03  0.21549570679E+03  0.00000000000E+00 0.  1.
          2   -1    0    0  501    0  0.00000000000E+00 -0.00000000000E+00 -0.23784023606E+04  0.23784023606E+04  0.00000000000E+00 0. -1.
         23    2    1    2    0    0 -0.42901004224E+03 -0.44054882798E+02 -0.16174492365E+04  0.16754820399E+04  0.71467364714E+02 0.  0.
    5000000    2    1    2    0    0  0.42901004224E+03  0.44054882798E+02 -0.54545741733E+03  0.91841602755E+03  0.59997813002E+03 0.  0.
         23    2    4    4    0    0  0.11315662683E+03 -0.23889313271E+02  0.10892851586E+03  0.18339020967E+03  0.91604726672E+02 0.  0.
         23    2    4    4    0    0  0.31585341541E+03  0.67944196069E+02 -0.65438593319E+03  0.73502581788E+03  0.87534048169E+02 0.  0.
          3    1    3    3  502    0 -0.13728031228E+03  0.91380123083E+01 -0.42505826945E+03  0.44677054495E+03  0.00000000000E+00 0. -1.
         -3    1    3    3    0  502 -0.29172972995E+03 -0.53192895106E+02 -0.11923909670E+04  0.12287114949E+04  0.00000000000E+00 0.  1.
         15    1    5    5    0    0  0.44720277930E+02 -0.55114599317E+02  0.40802961105E+02  0.81887494039E+02  0.17770000000E+01 0. -1.
        -15    1    5    5    0    0  0.68436348901E+02  0.31225286046E+02  0.68125554758E+02  0.10150271563E+03  0.17770000000E+01 0.  1.
          2    1    6    6  503    0  0.16254305758E+02 -0.14616108269E+02 -0.25799388624E+02  0.33814812287E+02  0.00000000000E+00 0. -1.
         -2    1    6    6    0  503  0.29959910965E+03  0.82560304338E+02 -0.62858654457E+03  0.70121100560E+03  0.00000000000E+00 0.  1.
<mgrwt>
<rscale>  0 0.45649584E+03</rscale>
<asrwt>0</asrwt>
<pdfrwt beam="1">  1        2 0.36590805E+00 0.45649584E+03</pdfrwt>
<pdfrwt beam="2">  1       -2 0.33153186E-01 0.45649584E+03</pdfrwt>
<totfact> 0.38029354E+01</totfact>
</mgrwt>
</event>
<event>
12    1  0.8033771E-008  0.7300414E+03  0.7818608E-02  0.9667193E-01
          2   -1    0    0  501    0  0.00000000000E+00  0.00000000000E+00  0.25456405811E+04  0.25456405811E+04  0.00000000000E+00 0. -1.
         -2   -1    0    0    0  501 -0.00000000000E+00 -0.00000000000E+00 -0.38629200821E+03  0.38629200821E+03  0.00000000000E+00 0.  1.
         23    2    1    2    0    0  0.10212806700E+03  0.60806800214E+03  0.16887218742E+02  0.62325399370E+03  0.89350574763E+02 0.  0.
    5000000    2    1    2    0    0 -0.10212806700E+03 -0.60806800214E+03  0.21424613542E+04  0.23086785956E+04  0.59973274594E+03 0.  0.
         23    2    4    4    0    0 -0.28310352871E+03 -0.57410127675E+03  0.17470053559E+04  0.18628094375E+04  0.91057141651E+02 0.  0.
         23    2    4    4    0    0  0.18097546171E+03 -0.33966725386E+02  0.39545599826E+03  0.44586915810E+03  0.92238838969E+02 0.  0.
          3    1    3    3  502    0  0.89233013831E+02  0.30531224880E+03  0.33021745544E+02  0.31979452107E+03  0.00000000000E+00 0. -1.
         -3    1    3    3    0  502  0.12895053169E+02  0.30275575333E+03 -0.16134526802E+02  0.30345947263E+03  0.00000000000E+00 0.  1.
         15    1    5    5    0    0 -0.11794586438E+03 -0.17160065097E+03  0.48125644323E+03  0.52437480129E+03  0.17770000000E+01 0.  1.
        -15    1    5    5    0    0 -0.16515766433E+03 -0.40250062578E+03  0.12657489127E+04  0.13384346362E+04  0.17770000000E+01 0. -1.
          2    1    6    6  503    0  0.53601847389E+02  0.20157470592E+02  0.18766595462E+03  0.19620905226E+03  0.00000000000E+00 0. -1.
         -2    1    6    6    0  503  0.12737361432E+03 -0.54124195978E+02  0.20779004363E+03  0.24966010584E+03  0.00000000000E+00 0.  1.
<mgrwt>
<rscale>  0 0.73004138E+03</rscale>
<asrwt>0</asrwt>
<pdfrwt beam="1">  1        2 0.39163700E+00 0.73004138E+03</pdfrwt>
<pdfrwt beam="2">  1       -2 0.59429541E-01 0.73004138E+03</pdfrwt>
<totfact> 0.91188099E+00</totfact>
</mgrwt>
</event>
<event>
12    1  0.8033771E-008  0.1580203E+04  0.7818608E-02  0.8832803E-01
         -1   -1    0    0    0  501 -0.00000000000E+00  0.00000000000E+00  0.17071877189E+04  0.17071877189E+04  0.00000000000E+00 0.  1.
          1   -1    0    0  501    0  0.00000000000E+00 -0.00000000000E+00 -0.17861535841E+04  0.17861535841E+04  0.00000000000E+00 0. -1.
         23    2    1    2    0    0 -0.16057434940E+03 -0.15389994087E+04  0.64991151247E+03  0.16807738773E+04  0.91173190275E+02 0.  0.
    5000000    2    1    2    0    0  0.16057434940E+03  0.15389994087E+04 -0.72887737764E+03  0.18125674257E+04  0.59986260039E+03 0.  0.
         23    2    4    4    0    0  0.21403535216E+03  0.31277255473E+03 -0.35183636990E+03  0.52530099167E+03  0.92274035840E+02 0.  0.
         23    2    4    4    0    0 -0.53461002765E+02  0.12262268540E+04 -0.37704100773E+03  0.12872664340E+04  0.91676465903E+02 0.  0.
          4    1    3    3  502    0 -0.11818912373E+02 -0.52111719851E+03  0.22721543757E+03  0.56862085465E+03  0.00000000000E+00 0. -1.
         -4    1    3    3    0  502 -0.14875543703E+03 -0.10178822102E+04  0.42269607490E+03  0.11121530226E+04  0.00000000000E+00 0.  1.
         15    1    5    5    0    0  0.65648946186E+02  0.57723291854E+02 -0.12762635570E+03  0.15470425643E+03  0.17770000000E+01 0.  1.
        -15    1    5    5    0    0  0.14838640598E+03  0.25504926288E+03 -0.22421001420E+03  0.37059673524E+03  0.17770000000E+01 0. -1.
          1    1    6    6  503    0 -0.32052379208E+02  0.35196021031E+03 -0.69124547889E+02  0.36011324298E+03  0.00000000000E+00 0. -1.
         -1    1    6    6    0  503 -0.21408623557E+02  0.87426664370E+03 -0.30791645984E+03  0.92715319106E+03  0.00000000000E+00 0.  1.
<mgrwt>
<rscale>  0 0.15802028E+04</rscale>
<asrwt>0</asrwt>
<pdfrwt beam="1">  1        1 0.27479286E+00 0.15802028E+04</pdfrwt>
<pdfrwt beam="2">  1       -1 0.26264427E+00 0.15802028E+04</pdfrwt>
<totfact> 0.22457727E-01</totfact>
</mgrwt>
</event>
<event>
12    1  0.8033771E-008  0.1021174E+04  0.7818608E-02  0.9285621E-01
         -2   -1    0    0    0  501 -0.00000000000E+00  0.00000000000E+00  0.84938333190E+03  0.84938333190E+03  0.00000000000E+00 0.  1.
          2   -1    0    0  501    0  0.00000000000E+00 -0.00000000000E+00 -0.13715008849E+04  0.13715008849E+04  0.00000000000E+00 0. -1.
         23    2    1    2    0    0 -0.30799293681E+03  0.91949651292E+03 -0.46546062360E+03  0.10791962631E+04  0.87621319792E+02 0.  0.
    5000000    2    1    2    0    0  0.30799293681E+03 -0.91949651292E+03 -0.56656929377E+02  0.11416879537E+04  0.59992323646E+03 0.  0.
         23    2    4    4    0    0 -0.49494024425E+02 -0.53435040037E+03 -0.21581249588E+03  0.58551009249E+03  0.90923188498E+02 0.  0.
         23    2    4    4    0    0  0.35748696123E+03 -0.38514611255E+03  0.15915556650E+03  0.55617786123E+03  0.88706614826E+02 0.  0.
          1    1    3    3  502    0 -0.11063569125E+03  0.22639638332E+03 -0.99133673115E+02  0.27078231793E+03  0.00000000000E+00 0. -1.
         -1    1    3    3    0  502 -0.19735724556E+03  0.69310012960E+03 -0.36632695049E+03  0.80841394513E+03  0.00000000000E+00 0.  1.
         15    1    5    5    0    0 -0.64873049621E+02 -0.39586209898E+03 -0.18967701572E+03  0.44372946939E+03  0.17770000000E+01 0. -1.
        -15    1    5    5    0    0  0.15379025197E+02 -0.13848830139E+03 -0.26135480150E+02  0.14178062311E+03  0.17770000000E+01 0.  1.
          1    1    6    6  503    0  0.24786068096E+03 -0.22252137316E+03  0.68263041180E+02  0.34001547240E+03  0.00000000000E+00 0. -1.
         -1    1    6    6    0  503  0.10962628027E+03 -0.16262473939E+03  0.90892525317E+02  0.21616238884E+03  0.00000000000E+00 0.  1.
<mgrwt>
<rscale>  0 0.10211742E+04</rscale>
<asrwt>0</asrwt>
<pdfrwt beam="1">  1        2 0.21100013E+00 0.10211742E+04</pdfrwt>
<pdfrwt beam="2">  1       -2 0.13067436E+00 0.10211742E+04</pdfrwt>
<totfact> 0.63798013E+00</totfact>
</mgrwt>
</event>
<event>
12    1  0.8033771E-008  0.1046444E+04  0.7818608E-02  0.9259023E-01
         -2   -1    0    0    0  501 -0.00000000000E+00  0.00000000000E+00  0.65663301050E+03  0.65663301050E+03  0.00000000000E+00 0.  1.
          2   -1    0    0  501    0  0.00000000000E+00 -0.00000000000E+00 -0.39910081069E+04  0.39910081069E+04  0.00000000000E+00 0. -1.
         23    2    1    2    0    0 -0.59871552564E+02 -0.96518681707E+03 -0.33723996627E+04  0.35094132315E+04  0.87929229954E+02 0.  0.
    5000000    2    1    2    0    0  0.59871552564E+02  0.96518681707E+03  0.38024566352E+02  0.11382278859E+04  0.59912157192E+03 0.  0.
         23    2    4    4    0    0  0.31498542169E+03  0.47365393652E+03  0.31847482159E+02  0.57706968631E+03  0.91822074061E+02 0.  0.
         23    2    4    4    0    0 -0.25511386913E+03  0.49153288055E+03  0.61770841927E+01  0.56115819959E+03  0.90403040395E+02 0.  0.
          3    1    3    3  502    0 -0.20695458540E+02 -0.43026139805E+03 -0.13471020297E+04  0.14142973701E+04  0.00000000000E+00 0. -1.
         -3    1    3    3    0  502 -0.39176094024E+02 -0.53492541902E+03 -0.20252976330E+04  0.20951158614E+04  0.00000000000E+00 0.  1.
         15    1    5    5    0    0  0.25303704896E+03  0.33304347421E+03  0.54289216644E+02  0.42177740650E+03  0.17770000000E+01 0.  1.
        -15    1    5    5    0    0  0.61948372733E+02  0.14061046230E+03 -0.22441734485E+02  0.15529227981E+03  0.17770000000E+01 0. -1.
          2    1    6    6  503    0 -0.32417826750E+02  0.67815518135E+02  0.32208777527E+02  0.81775701409E+02  0.00000000000E+00 0.  1.
         -2    1    6    6    0  503 -0.22269604238E+03  0.42371736242E+03 -0.26031693335E+02  0.47938249818E+03  0.00000000000E+00 0. -1.
<mgrwt>
<rscale>  0 0.10464443E+04</rscale>
<asrwt>0</asrwt>
<pdfrwt beam="1">  1        2 0.61400123E+00 0.10464443E+04</pdfrwt>
<pdfrwt beam="2">  1       -2 0.10102047E+00 0.10464443E+04</pdfrwt>
<totfact> 0.29202030E-01</totfact>
</mgrwt>
</event>
<event>
12    1  0.8033771E-008  0.2130001E+04  0.7818608E-02  0.8548141E-01
          1   -1    0    0  501    0  0.00000000000E+00  0.00000000000E+00  0.25131878553E+04  0.25131878553E+04  0.00000000000E+00 0. -1.
         -1   -1    0    0    0  501 -0.00000000000E+00 -0.00000000000E+00 -0.22848082796E+04  0.22848082796E+04  0.00000000000E+00 0.  1.
         23    2    1    2    0    0 -0.20732961207E+04 -0.33890438106E+03  0.11837672393E+04  0.24134316120E+04  0.99670884899E+02 0.  0.
    5000000    2    1    2    0    0  0.20732961207E+04  0.33890438106E+03 -0.95538766366E+03  0.23845645229E+04  0.59997449313E+03 0.  0.
         23    2    4    4    0    0  0.14244179801E+04  0.45683948322E+03 -0.80641264937E+03  0.17019031123E+04  0.92216847922E+02 0.  0.
         23    2    4    4    0    0  0.64887814060E+03 -0.11793510216E+03 -0.14897501429E+03  0.68266141063E+03  0.94241800754E+02 0.  0.
          1    1    3    3  502    0 -0.91261222609E+03 -0.10492696045E+03  0.54379757867E+03  0.10675141914E+04  0.00000000000E+00 0. -1.
         -1    1    3    3    0  502 -0.11606838946E+04 -0.23397742061E+03  0.63996966065E+03  0.13459174206E+04  0.00000000000E+00 0.  1.
         15    1    5    5    0    0  0.31732158740E+03  0.11329587856E+03 -0.14047008911E+03  0.36505335171E+03  0.17770000000E+01 0. -1.
        -15    1    5    5    0    0  0.11070963927E+04  0.34354360466E+03 -0.66594256026E+03  0.13368497606E+04  0.17770000000E+01 0.  1.
          3    1    6    6  503    0  0.41276731576E+03 -0.98223462592E+02 -0.13526519114E+03  0.44533288392E+03  0.00000000000E+00 0. -1.
         -3    1    6    6    0  503  0.23611082484E+03 -0.19711639572E+02 -0.13709823151E+02  0.23732852671E+03  0.00000000000E+00 0.  1.
<mgrwt>
<rscale>  0 0.21300014E+04</rscale>
<asrwt>0</asrwt>
<pdfrwt beam="1">  1        1 0.38664429E+00 0.21300014E+04</pdfrwt>
<pdfrwt beam="2">  1       -1 0.35150897E+00 0.21300014E+04</pdfrwt>
<totfact> 0.17582181E-02</totfact>
</mgrwt>
</event>
<event>
12    1  0.8033771E-008  0.7040081E+03  0.7818608E-02  0.9710402E-01
         -1   -1    0    0    0  501 -0.00000000000E+00  0.00000000000E+00  0.18487639741E+04  0.18487639741E+04  0.00000000000E+00 0.  1.
          1   -1    0    0  501    0  0.00000000000E+00 -0.00000000000E+00 -0.46498127559E+03  0.46498127559E+03  0.00000000000E+00 0. -1.
         23    2    1    2    0    0 -0.34928236994E+03  0.58959273743E+03  0.43089461412E+02  0.69292717528E+03  0.93132156508E+02 0.  0.
    5000000    2    1    2    0    0  0.34928236994E+03 -0.58959273743E+03  0.13406932371E+04  0.16208180744E+04  0.59997925326E+03 0.  0.
         23    2    4    4    0    0  0.28738409605E+02 -0.23114463886E+03  0.98367083819E+03  0.10150538252E+04  0.92044608539E+02 0.  0.
         23    2    4    4    0    0  0.32054396034E+03 -0.35844809857E+03  0.35702239888E+03  0.60576424915E+03  0.90839762039E+02 0.  0.
          3    1    3    3  502    0 -0.42541016447E+02  0.69839638817E+02  0.36047285568E+02  0.89368450962E+02  0.00000000000E+00 0. -1.
         -3    1    3    3    0  502 -0.30674135349E+03  0.51975309861E+03  0.70421758442E+01  0.60355872432E+03  0.00000000000E+00 0.  1.
         15    1    5    5    0    0 -0.11045148628E+02 -0.15936383225E+03  0.51370592434E+03  0.53797375472E+03  0.17770000000E+01 0. -1.
        -15    1    5    5    0    0  0.39783558233E+02 -0.71780806608E+02  0.46996491385E+03  0.47708007052E+03  0.17770000000E+01 0.  1.
          2    1    6    6  503    0  0.25407264690E+03 -0.28613343334E+03  0.32618451225E+03  0.50281367086E+03  0.00000000000E+00 0. -1.
         -2    1    6    6    0  503  0.66471313438E+02 -0.72314665227E+02  0.30837886635E+02  0.10295057828E+03  0.00000000000E+00 0.  1.
<mgrwt>
<rscale>  0 0.70400811E+03</rscale>
<asrwt>0</asrwt>
<pdfrwt beam="1">  1        1 0.71535582E-01 0.70400811E+03</pdfrwt>
<pdfrwt beam="2">  1       -1 0.28442522E+00 0.70400811E+03</pdfrwt>
<totfact> 0.21577277E+00</totfact>
</mgrwt>
</event>
<event>
12    1  0.8033771E-008  0.1001580E+04  0.7818608E-02  0.9306813E-01
         -2   -1    0    0    0  501 -0.00000000000E+00  0.00000000000E+00  0.11463120781E+04  0.11463120781E+04  0.00000000000E+00 0.  1.
          2   -1    0    0  501    0  0.00000000000E+00 -0.00000000000E+00 -0.24582031856E+04  0.24582031856E+04  0.00000000000E+00 0. -1.
         23    2    1    2    0    0 -0.27690597679E+03 -0.90228166846E+03  0.78300159066E+03  0.12298424763E+04  0.92907999458E+02 0.  0.
    5000000    2    1    2    0    0  0.27690597679E+03  0.90228166846E+03 -0.20948926981E+04  0.23746727874E+04  0.59975520130E+03 0.  0.
         23    2    4    4    0    0  0.37501702153E+03  0.42473217486E+03 -0.77137003025E+03  0.96144158605E+03  0.91230548739E+02 0.  0.
         23    2    4    4    0    0 -0.98111044734E+02  0.47754949360E+03 -0.13235226679E+04  0.14132312014E+04  0.88492260927E+02 0.  0.
          3    1    3    3  502    0 -0.72625398785E+02 -0.18128198351E+03  0.11956610060E+03  0.22898396998E+03  0.00000000000E+00 0. -1.
         -3    1    3    3    0  502 -0.20428057801E+03 -0.72099968495E+03  0.66343549005E+03  0.10008585063E+04  0.00000000000E+00 0.  1.
         15    1    5    5    0    0 -0.53736822479E+00  0.31676058136E+01  0.17878775670E+01  0.40837147787E+01  0.17770000000E+01 0. -1.
        -15    1    5    5    0    0  0.37555438975E+03  0.42156456905E+03 -0.77315790782E+03  0.95735787128E+03  0.17770000000E+01 0.  1.
          4    1    6    6  503    0  0.63237687900E+01  0.29782486698E+02 -0.14569037562E+03  0.14883773753E+03  0.00000000000E+00 0. -1.
         -4    1    6    6    0  503 -0.10443481352E+03  0.44776700690E+03 -0.11778322923E+04  0.12643934639E+04  0.00000000000E+00 0.  1.
<mgrwt>
<rscale>  0 0.10015804E+04</rscale>
<asrwt>0</asrwt>
<pdfrwt beam="1">  1        2 0.37818510E+00 0.10015804E+04</pdfrwt>
<pdfrwt beam="2">  1       -2 0.17635570E+00 0.10015804E+04</pdfrwt>
<totfact> 0.71083055E-01</totfact>
</mgrwt>
</event>
<event>
12    1  0.8033771E-008  0.2428897E+04  0.7818608E-02  0.8428763E-01
         -2   -1    0    0    0  501 -0.00000000000E+00  0.00000000000E+00  0.19985211082E+04  0.19985211082E+04  0.00000000000E+00 0.  1.
          2   -1    0    0  501    0  0.00000000000E+00 -0.00000000000E+00 -0.31336899484E+04  0.31336899484E+04  0.00000000000E+00 0. -1.
         23    2    1    2    0    0 -0.12902549305E+04 -0.20244018480E+04  0.17955605349E+02  0.24023765539E+04  0.90166929558E+02 0.  0.
    5000000    2    1    2    0    0  0.12902549305E+04  0.20244018480E+04 -0.11531244455E+04  0.27298345027E+04  0.59944957884E+03 0.  0.
         23    2    4    4    0    0  0.10500615229E+04  0.19192450350E+04 -0.94930995930E+03  0.23865842833E+04  0.92002371052E+02 0.  0.
         23    2    4    4    0    0  0.24019340765E+03  0.10515681295E+03 -0.20381448622E+03  0.34325021940E+03  0.86772921675E+02 0.  0.
          1    1    3    3  502    0 -0.57886544671E+03 -0.86526682473E+03  0.46040580586E+02  0.10420612355E+04  0.00000000000E+00 0. -1.
         -1    1    3    3    0  502 -0.71138948382E+03 -0.11591350232E+04 -0.28084975237E+02  0.13603153185E+04  0.00000000000E+00 0.  1.
         15    1    5    5    0    0  0.87887338454E+03  0.16705149946E+04 -0.82630453364E+03  0.20605390346E+04  0.17770000000E+01 0.  1.
        -15    1    5    5    0    0  0.17118813835E+03  0.24873004046E+03 -0.12300542566E+03  0.32604524871E+03  0.17770000000E+01 0. -1.
          1    1    6    6  503    0  0.17896029691E+03  0.52747951009E+02 -0.99563024791E+02  0.21147560170E+03  0.00000000000E+00 0. -1.
         -1    1    6    6    0  503  0.61233110731E+02  0.52408861936E+02 -0.10425146143E+03  0.13177461770E+03  0.00000000000E+00 0.  1.
<mgrwt>
<rscale>  0 0.24288972E+04</rscale>
<asrwt>0</asrwt>
<pdfrwt beam="1">  1        2 0.48210615E+00 0.24288972E+04</pdfrwt>
<pdfrwt beam="2">  1       -2 0.30746479E+00 0.24288972E+04</pdfrwt>
<totfact> 0.34698806E-02</totfact>
</mgrwt>
</event>
<event>
12    1  0.8033771E-008  0.8110028E+03  0.7818608E-02  0.9544226E-01
         -2   -1    0    0    0  501 -0.00000000000E+00  0.00000000000E+00  0.93633246375E+03  0.93633246375E+03  0.00000000000E+00 0. -1.
          2   -1    0    0  501    0  0.00000000000E+00 -0.00000000000E+00 -0.16498975391E+04  0.16498975391E+04  0.00000000000E+00 0.  1.
         23    2    1    2    0    0  0.73494511282E+03  0.10906884653E+03 -0.12749388053E+04  0.14782440078E+04  0.87727174215E+02 0.  0.
    5000000    2    1    2    0    0 -0.73494511282E+03 -0.10906884653E+03  0.56137372997E+03  0.11079859951E+04  0.60037668877E+03 0.  0.
         23    2    4    4    0    0 -0.60432353103E+03  0.10490367355E+03  0.56867630635E+03  0.84136047493E+03  0.91010969062E+02 0.  0.
         23    2    4    4    0    0 -0.13062158179E+03 -0.21397252008E+03 -0.73025763789E+01  0.26662552014E+03  0.90496427491E+02 0.  0.
          4    1    3    3  502    0  0.29163330168E+03  0.17958683580E+02 -0.43275783271E+03  0.52216074033E+03  0.00000000000E+00 0. -1.
         -4    1    3    3    0  502  0.44331181114E+03  0.91110162952E+02 -0.84218097260E+03  0.95608326745E+03  0.00000000000E+00 0.  1.
         15    1    5    5    0    0 -0.40867115452E+03  0.77901235552E+02  0.32650968646E+03  0.52885957315E+03  0.17770000000E+01 0.  1.
        -15    1    5    5    0    0 -0.19565237651E+03  0.27002437993E+02  0.24216661989E+03  0.31250090177E+03  0.17770000000E+01 0. -1.
          1    1    6    6  503    0 -0.59280348078E+02 -0.16964174136E+03 -0.23036894652E+02  0.18117168265E+03  0.00000000000E+00 0. -1.
         -1    1    6    6    0  503 -0.71341233717E+02 -0.44330778721E+02  0.15734318273E+02  0.85453837490E+02  0.00000000000E+00 0.  1.
<mgrwt>
<rscale>  0 0.81100278E+03</rscale>
<asrwt>0</asrwt>
<pdfrwt beam="1">  1        2 0.25383039E+00 0.81100278E+03</pdfrwt>
<pdfrwt beam="2">  1       -2 0.14405115E+00 0.81100278E+03</pdfrwt>
<totfact> 0.35546374E+00</totfact>
</mgrwt>
</event>
<event>
12    1  0.8033771E-008  0.1600539E+04  0.7818608E-02  0.8820217E-01
          2   -1    0    0  501    0  0.00000000000E+00  0.00000000000E+00  0.34285625701E+04  0.34285625701E+04  0.00000000000E+00 0. -1.
         -2   -1    0    0    0  501 -0.00000000000E+00 -0.00000000000E+00 -0.83714383565E+03  0.83714383565E+03  0.00000000000E+00 0.  1.
         23    2    1    2    0    0  0.11948661656E+03  0.15454134381E+04  0.19292833953E+04  0.24765743379E+04  0.93307479067E+02 0.  0.
    5000000    2    1    2    0    0 -0.11948661656E+03 -0.15454134381E+04  0.66213533914E+03  0.17891320678E+04  0.59999216860E+03 0.  0.
         23    2    4    4    0    0 -0.33179524750E+03 -0.11179108868E+04  0.39116288840E+03  0.12331873805E+04  0.89049835339E+02 0.  0.
         23    2    4    4    0    0  0.21230863094E+03 -0.42750255138E+03  0.27097245074E+03  0.55594468730E+03  0.88402715282E+02 0.  0.
          2    1    3    3  502    0  0.34385488332E+02  0.10171439081E+04  0.12576013984E+04  0.16178149983E+04  0.00000000000E+00 0. -1.
         -2    1    3    3    0  502  0.85101128227E+02  0.52826953001E+03  0.67168199694E+03  0.85875933961E+03  0.00000000000E+00 0.  1.
         15    1    5    5    0    0 -0.48382867619E+02 -0.29279081004E+03  0.87176154033E+02  0.30930599717E+03  0.17770000000E+01 0. -1.
        -15    1    5    5    0    0 -0.28341237988E+03 -0.82512007672E+03  0.30398673437E+03  0.92388138333E+03  0.17770000000E+01 0.  1.
          3    1    6    6  503    0  0.65508578007E+02 -0.17682667401E+03  0.15128818527E+03  0.24175847749E+03  0.00000000000E+00 0. -1.
         -3    1    6    6    0  503  0.14680005293E+03 -0.25067587737E+03  0.11968426547E+03  0.31418620981E+03  0.00000000000E+00 0.  1.
<mgrwt>
<rscale>  0 0.16005394E+04</rscale>
<asrwt>0</asrwt>
<pdfrwt beam="1">  1        2 0.52747115E+00 0.16005394E+04</pdfrwt>
<pdfrwt beam="2">  1       -2 0.12879136E+00 0.16005394E+04</pdfrwt>
<totfact> 0.38277039E-01</totfact>
</mgrwt>
</event>
<event>
12    1  0.8033771E-008  0.1114965E+04  0.7818608E-02  0.9190727E-01
          2   -1    0    0  501    0  0.00000000000E+00  0.00000000000E+00  0.14670233272E+04  0.14670233272E+04  0.00000000000E+00 0. -1.
         -2   -1    0    0    0  501 -0.00000000000E+00 -0.00000000000E+00 -0.10158094415E+04  0.10158094415E+04  0.00000000000E+00 0.  1.
         23    2    1    2    0    0 -0.68279746646E+03  0.88050958699E+03 -0.55438408942E+02  0.11196554158E+04  0.95106887182E+02 0.  0.
    5000000    2    1    2    0    0  0.68279746646E+03 -0.88050958699E+03  0.50665229459E+03  0.13631773529E+04  0.60003869439E+03 0.  0.
         23    2    4    4    0    0  0.31051549394E+03 -0.40494398923E+03 -0.70769140407E+02  0.52270745941E+03  0.88404244768E+02 0.  0.
         23    2    4    4    0    0  0.37228197252E+03 -0.47556559775E+03  0.57742143500E+03  0.84046989346E+03  0.90651107998E+02 0.  0.
          2    1    3    3  502    0 -0.48229673959E+03  0.60805965800E+03  0.44385044570E+01  0.77612266622E+03  0.00000000000E+00 0. -1.
         -2    1    3    3    0  502 -0.20050072688E+03  0.27244992898E+03 -0.59876913399E+02  0.34353274959E+03  0.00000000000E+00 0.  1.
         15    1    5    5    0    0  0.13483914074E+03 -0.20510694598E+03 -0.74747700205E+02  0.25659467957E+03  0.17770000000E+01 0. -1.
        -15    1    5    5    0    0  0.17567635320E+03 -0.19983704325E+03  0.39785597976E+01  0.26611277984E+03  0.17770000000E+01 0.  1.
          1    1    6    6  503    0  0.15897676312E+03 -0.20912806179E+03  0.31360286351E+03  0.40909034875E+03  0.00000000000E+00 0. -1.
         -1    1    6    6    0  503  0.21330520940E+03 -0.26643753597E+03  0.26381857149E+03  0.43137954471E+03  0.00000000000E+00 0.  1.
<mgrwt>
<rscale>  0 0.11149655E+04</rscale>
<asrwt>0</asrwt>
<pdfrwt beam="1">  1        2 0.22569590E+00 0.11149655E+04</pdfrwt>
<pdfrwt beam="2">  1       -2 0.15627838E+00 0.11149655E+04</pdfrwt>
<totfact> 0.34867414E+00</totfact>
</mgrwt>
</event>
<event>
12    1  0.8033771E-008  0.7840116E+03  0.7818608E-02  0.9583452E-01
          2   -1    0    0  501    0  0.00000000000E+00  0.00000000000E+00  0.93332831233E+03  0.93332831233E+03  0.00000000000E+00 0. -1.
         -2   -1    0    0    0  501 -0.00000000000E+00 -0.00000000000E+00 -0.69518619441E+03  0.69518619441E+03  0.00000000000E+00 0.  1.
         23    2    1    2    0    0  0.45385647783E+03  0.51238222696E+03  0.10404796415E+02  0.69029775140E+03  0.88777682064E+02 0.  0.
    5000000    2    1    2    0    0 -0.45385647783E+03 -0.51238222696E+03  0.22773732150E+03  0.93821675534E+03  0.59988760899E+03 0.  0.
         23    2    4    4    0    0 -0.26370517173E+03  0.61502662231E+02  0.14696320597E+03  0.32131188645E+03  0.91214852999E+02 0.  0.
         23    2    4    4    0    0 -0.19015130610E+03 -0.57388488919E+03  0.80774115528E+02  0.61690486888E+03  0.92443357053E+02 0.  0.
          3    1    3    3  502    0  0.27205500988E+03  0.26900901410E+03 -0.30341175378E+02  0.38379729675E+03  0.00000000000E+00 0. -1.
         -3    1    3    3    0  502  0.18180146795E+03  0.24337321286E+03  0.40745971794E+02  0.30650045465E+03  0.00000000000E+00 0.  1.
         15    1    5    5    0    0 -0.19115524685E+03  0.43235124238E+02  0.56634329174E+02  0.20401031674E+03  0.17770000000E+01 0. -1.
        -15    1    5    5    0    0 -0.72549924879E+02  0.18267537993E+02  0.90328876800E+02  0.11730156971E+03  0.17770000000E+01 0.  1.
          1    1    6    6  503    0 -0.58855466183E+01 -0.13099125865E+03  0.30146086357E+02  0.13454417871E+03  0.00000000000E+00 0. -1.
         -1    1    6    6    0  503 -0.18426575948E+03 -0.44289363054E+03  0.50628029171E+02  0.48236069017E+03  0.00000000000E+00 0.  1.
<mgrwt>
<rscale>  0 0.78401158E+03</rscale>
<asrwt>0</asrwt>
<pdfrwt beam="1">  1        2 0.14358897E+00 0.78401158E+03</pdfrwt>
<pdfrwt beam="2">  1       -2 0.10695172E+00 0.78401158E+03</pdfrwt>
<totfact> 0.19825924E+01</totfact>
</mgrwt>
</event>
<event>
12    1  0.8033771E-008  0.5114019E+03  0.7818608E-02  0.1010845E+00
          1   -1    0    0  501    0  0.00000000000E+00  0.00000000000E+00  0.49861347222E+03  0.49861347222E+03  0.00000000000E+00 0. -1.
         -1   -1    0    0    0  501 -0.00000000000E+00 -0.00000000000E+00 -0.57892947261E+03  0.57892947261E+03  0.00000000000E+00 0.  1.
         23    2    1    2    0    0  0.35055298523E+03  0.32546995097E+02 -0.11488685131E+03  0.38115573535E+03  0.90188711290E+02 0.  0.
    5000000    2    1    2    0    0 -0.35055298523E+03 -0.32546995097E+02  0.34570850926E+02  0.69638720949E+03  0.59984439604E+03 0.  0.
         23    2    4    4    0    0 -0.39426268759E+03 -0.23276932497E+03  0.49297005036E+02  0.46990340046E+03  0.93564873687E+02 0.  0.
         23    2    4    4    0    0  0.43709702358E+02  0.20022232987E+03 -0.14726154110E+02  0.22648380903E+03  0.95281355339E+02 0.  0.
          3    1    3    3  502    0  0.24901181716E+03 -0.11148401450E+02 -0.54335858510E+02  0.25511479271E+03  0.00000000000E+00 0. -1.
         -3    1    3    3    0  502  0.10154116807E+03  0.43695396547E+02 -0.60550992805E+02  0.12604094264E+03  0.00000000000E+00 0.  1.
         15    1    5    5    0    0 -0.25830295528E+03 -0.15750091308E+03  0.76655522841E+02  0.31209963352E+03  0.17770000000E+01 0. -1.
        -15    1    5    5    0    0 -0.13595973230E+03 -0.75268411893E+02 -0.27358517806E+02  0.15780376694E+03  0.17770000000E+01 0.  1.
          2    1    6    6  503    0  0.23250426029E+02  0.90995007188E+02 -0.54341839710E+02  0.10850672415E+03  0.00000000000E+00 0. -1.
         -2    1    6    6    0  503  0.20459276329E+02  0.10922732269E+03  0.39615685600E+02  0.11797708487E+03  0.00000000000E+00 0.  1.
<mgrwt>
<rscale>  0 0.51140189E+03</rscale>
<asrwt>0</asrwt>
<pdfrwt beam="1">  1        1 0.76709765E-01 0.51140189E+03</pdfrwt>
<pdfrwt beam="2">  1       -1 0.89066072E-01 0.51140189E+03</pdfrwt>
<totfact> 0.57459568E+01</totfact>
</mgrwt>
</event>
<event>
12    1  0.8033771E-008  0.2189740E+04  0.7818608E-02  0.8522711E-01
          2   -1    0    0  501    0  0.00000000000E+00  0.00000000000E+00  0.20648758152E+04  0.20648758152E+04  0.00000000000E+00 0. -1.
         -2   -1    0    0    0  501 -0.00000000000E+00 -0.00000000000E+00 -0.24400247127E+04  0.24400247127E+04  0.00000000000E+00 0.  1.
         23    2    1    2    0    0  0.30381974755E+03 -0.21334943236E+04  0.27719022876E+03  0.21747135125E+04  0.91869311076E+02 0.  0.
    5000000    2    1    2    0    0 -0.30381974755E+03  0.21334943236E+04 -0.65233912627E+03  0.23301870155E+04  0.60010059448E+03 0.  0.
         23    2    4    4    0    0 -0.44829880532E+03  0.15038659430E+04 -0.34543190721E+03  0.16093884422E+04  0.90682755183E+02 0.  0.
         23    2    4    4    0    0  0.14447905776E+03  0.62962838064E+03 -0.30690721906E+03  0.72079857326E+03  0.89735423727E+02 0.  0.
          1    1    3    3  502    0  0.82140714047E+02 -0.85831415269E+03  0.89446959060E+02  0.86686275736E+03  0.00000000000E+00 0.  1.
         -1    1    3    3    0  502  0.22167903351E+03 -0.12751801710E+04  0.18774326970E+03  0.13078507551E+04  0.00000000000E+00 0. -1.
         15    1    5    5    0    0 -0.26173063234E+03  0.10156041769E+04 -0.21348173985E+03  0.10702954634E+04  0.17770000000E+01 0. -1.
        -15    1    5    5    0    0 -0.18656817298E+03  0.48826176615E+03 -0.13195016736E+03  0.53909297886E+03  0.17770000000E+01 0.  1.
          3    1    6    6  503    0  0.15025525382E+03  0.62759488729E+03 -0.30027100199E+03  0.71176868327E+03  0.00000000000E+00 0. -1.
         -3    1    6    6    0  503 -0.57761960634E+01  0.20334933440E+01 -0.66362170712E+01  0.90298899860E+01  0.00000000000E+00 0.  1.
<mgrwt>
<rscale>  0 0.21897398E+04</rscale>
<asrwt>0</asrwt>
<pdfrwt beam="1">  1        2 0.31767320E+00 0.21897398E+04</pdfrwt>
<pdfrwt beam="2">  1       -2 0.37538842E+00 0.21897398E+04</pdfrwt>
<totfact> 0.57394278E-02</totfact>
</mgrwt>
</event>
<event>
12    1  0.8033771E-008  0.5834426E+03  0.7818608E-02  0.9940365E-01
          1   -1    0    0  501    0  0.00000000000E+00  0.00000000000E+00  0.19554470003E+03  0.19554470003E+03  0.00000000000E+00 0. -1.
         -1   -1    0    0    0  501 -0.00000000000E+00 -0.00000000000E+00 -0.23182598293E+04  0.23182598293E+04  0.00000000000E+00 0.  1.
         23    2    1    2    0    0 -0.52061232407E+03  0.36586715753E+02 -0.10727284521E+04  0.11966826249E+04  0.94483824056E+02 0.  0.
    5000000    2    1    2    0    0  0.52061232407E+03 -0.36586715753E+02 -0.10499866772E+04  0.13171219045E+04  0.59996859018E+03 0.  0.
         23    2    4    4    0    0  0.52783724112E+03  0.66617359605E+02 -0.45568980550E+03  0.70712293996E+03  0.96538218692E+02 0.  0.
         23    2    4    4    0    0 -0.72249170462E+01 -0.10320407536E+03 -0.59429687172E+03  0.60999896453E+03  0.90590752253E+02 0.  0.
          1    1    3    3  502    0 -0.47435539860E+03  0.30319315100E+02 -0.90061559886E+03  0.10183519833E+04  0.00000000000E+00 0. -1.
         -1    1    3    3    0  502 -0.46256925469E+02  0.62674006532E+01 -0.17211285324E+03  0.17833064155E+03  0.00000000000E+00 0.  1.
         15    1    5    5    0    0  0.26012045964E+03  0.32173726731E+02 -0.28767172732E+03  0.38917346087E+03  0.17770000000E+01 0.  1.
        -15    1    5    5    0    0  0.26771678148E+03  0.34443632873E+02 -0.16801807818E+03  0.31794947909E+03  0.17770000000E+01 0. -1.
          2    1    6    6  503    0 -0.12086834464E+02 -0.29095376793E+01 -0.71781328545E+01  0.14355576203E+02  0.00000000000E+00 0. -1.
         -2    1    6    6    0  503  0.48619174173E+01 -0.10029453768E+03 -0.58711873887E+03  0.59564338833E+03  0.00000000000E+00 0.  1.
<mgrwt>
<rscale>  0 0.58344264E+03</rscale>
<asrwt>0</asrwt>
<pdfrwt beam="1">  1        1 0.30083799E-01 0.58344264E+03</pdfrwt>
<pdfrwt beam="2">  1       -1 0.35665537E+00 0.58344264E+03</pdfrwt>
<totfact> 0.23419760E+00</totfact>
</mgrwt>
</event>
<event>
12    1  0.8033771E-008  0.1101839E+04  0.7818608E-02  0.9203401E-01
          2   -1    0    0  501    0  0.00000000000E+00  0.00000000000E+00  0.25768591257E+04  0.25768591257E+04  0.00000000000E+00 0. -1.
         -2   -1    0    0    0  501 -0.00000000000E+00 -0.00000000000E+00 -0.10405008784E+04  0.10405008784E+04  0.00000000000E+00 0.  1.
         23    2    1    2    0    0  0.10622961850E+04  0.98034770943E+02 -0.54576807114E+03  0.12017776800E+04  0.91229401487E+02 0.  0.
    5000000    2    1    2    0    0 -0.10622961850E+04 -0.98034770943E+02  0.20821263185E+04  0.24155823241E+04  0.60141828851E+03 0.  0.
         23    2    4    4    0    0 -0.27688179438E+03  0.13686532105E+03  0.25441184796E+03  0.41036549298E+03  0.90987940286E+02 0.  0.
         23    2    4    4    0    0 -0.78541439057E+03 -0.23490009199E+03  0.18277144705E+04  0.20052168312E+04  0.91107278182E+02 0.  0.
          3    1    3    3  502    0  0.55977801096E+03  0.77792912995E+02 -0.24676186925E+03  0.61668028912E+03  0.00000000000E+00 0. -1.
         -3    1    3    3    0  502  0.50251817399E+03  0.20241857948E+02 -0.29900620188E+03  0.58509739084E+03  0.00000000000E+00 0.  1.
         15    1    5    5    0    0 -0.20135143232E+03  0.11895690724E+03  0.23229548579E+03  0.32963236419E+03  0.17770000000E+01 0.  1.
        -15    1    5    5    0    0 -0.75530362062E+02  0.17908413815E+02  0.22116362171E+02  0.80733128784E+02  0.17770000000E+01 0. -1.
          3    1    6    6  503    0 -0.12368016829E+03 -0.58312656745E+01  0.24505217937E+03  0.27455665772E+03  0.00000000000E+00 0. -1.
         -3    1    6    6    0  503 -0.66173422229E+03 -0.22906882632E+03  0.15826622911E+04  0.17306601734E+04  0.00000000000E+00 0.  1.
<mgrwt>
<rscale>  0 0.11018392E+04</rscale>
<asrwt>0</asrwt>
<pdfrwt beam="1">  1        2 0.39643986E+00 0.11018392E+04</pdfrwt>
<pdfrwt beam="2">  1       -2 0.16007706E+00 0.11018392E+04</pdfrwt>
<totfact> 0.78315341E-01</totfact>
</mgrwt>
</event>
<event>
12    1  0.8033771E-008  0.9239823E+03  0.7818608E-02  0.9396089E-01
          2   -1    0    0  501    0  0.00000000000E+00  0.00000000000E+00  0.79989962257E+03  0.79989962257E+03  0.00000000000E+00 0. -1.
         -2   -1    0    0    0  501 -0.00000000000E+00 -0.00000000000E+00 -0.17166729415E+04  0.17166729415E+04  0.00000000000E+00 0.  1.
         23    2    1    2    0    0  0.51633058595E+03 -0.66876938516E+03 -0.11732448326E+04  0.14490616644E+04  0.97090192609E+02 0.  0.
    5000000    2    1    2    0    0 -0.51633058595E+03  0.66876938516E+03  0.25647151360E+03  0.10675108997E+04  0.59996009803E+03 0.  0.
         23    2    4    4    0    0  0.79006079674E+02  0.29906036514E+01  0.99604806699E+02  0.15648322687E+03  0.91186503598E+02 0.  0.
         23    2    4    4    0    0 -0.59533666562E+03  0.66577878151E+03  0.15686670690E+03  0.91102767286E+03  0.87619208126E+02 0.  0.
          3    1    3    3  502    0  0.40608221341E+03 -0.47864126375E+03 -0.81381396626E+03  0.10277613512E+04  0.00000000000E+00 0. -1.
         -3    1    3    3    0  502  0.11024837255E+03 -0.19012812142E+03 -0.35943086630E+03  0.42130031314E+03  0.00000000000E+00 0.  1.
         15    1    5    5    0    0  0.84644136220E+02 -0.14457562454E+02  0.41232616225E+02  0.95272961948E+02  0.17770000000E+01 0. -1.
        -15    1    5    5    0    0 -0.56380565462E+01  0.17448166105E+02  0.58372190474E+02  0.61210264922E+02  0.17770000000E+01 0.  1.
          2    1    6    6  503    0 -0.31120118906E+03  0.40288087588E+03  0.11281050555E+03  0.52142630388E+03  0.00000000000E+00 0. -1.
         -2    1    6    6    0  503 -0.28413547657E+03  0.26289790564E+03  0.44056201353E+02  0.38960136898E+03  0.00000000000E+00 0.  1.
<mgrwt>
<rscale>  0 0.92398233E+03</rscale>
<asrwt>0</asrwt>
<pdfrwt beam="1">  1        2 0.12306148E+00 0.92398233E+03</pdfrwt>
<pdfrwt beam="2">  1       -2 0.26410353E+00 0.92398233E+03</pdfrwt>
<totfact> 0.18305377E+00</totfact>
</mgrwt>
</event>
<event>
12    1  0.8033771E-008  0.6697938E+03  0.7818608E-02  0.9770330E-01
         -2   -1    0    0    0  501 -0.00000000000E+00  0.00000000000E+00  0.94101391169E+03  0.94101391169E+03  0.00000000000E+00 0.  1.
          2   -1    0    0  501    0  0.00000000000E+00 -0.00000000000E+00 -0.64966570779E+03  0.64966570779E+03  0.00000000000E+00 0. -1.
         23    2    1    2    0    0 -0.63469804670E+03 -0.31519400844E+02  0.32132079684E+03  0.71624040801E+03  0.76929737176E+02 0.  0.
    5000000    2    1    2    0    0  0.63469804670E+03  0.31519400844E+02 -0.29972592941E+02  0.87443921148E+03  0.59992540797E+03 0.  0.
         23    2    4    4    0    0  0.79838407978E+02  0.91572238940E+02  0.21277863144E+03  0.25915909335E+03  0.84433662330E+02 0.  0.
         23    2    4    4    0    0  0.55485963872E+03 -0.60052838096E+02 -0.24275122438E+03  0.61528011813E+03  0.90365395926E+02 0.  0.
          2    1    3    3  502    0 -0.11800890484E+03 -0.36106319617E+02  0.62513457747E+02  0.13833907740E+03  0.00000000000E+00 0. -1.
         -2    1    3    3    0  502 -0.51668914186E+03  0.45869187725E+01  0.25880733910E+03  0.57790133060E+03  0.00000000000E+00 0.  1.
         15    1    5    5    0    0  0.58112627283E+02  0.99017343061E+02  0.13100861600E+03  0.17420656380E+03  0.17770000000E+01 0. -1.
        -15    1    5    5    0    0  0.21725780696E+02 -0.74451041208E+01  0.81770015437E+02  0.84952529544E+02  0.17770000000E+01 0.  1.
          2    1    6    6  503    0  0.44465509307E+03 -0.22651774972E+02 -0.22031305068E+03  0.49675858825E+03  0.00000000000E+00 0. -1.
         -2    1    6    6    0  503  0.11020454565E+03 -0.37401063124E+02 -0.22438173697E+02  0.11852152988E+03  0.00000000000E+00 0.  1.
<mgrwt>
<rscale>  0 0.66979376E+03</rscale>
<asrwt>0</asrwt>
<pdfrwt beam="1">  1        2 0.99948570E-01 0.66979376E+03</pdfrwt>
<pdfrwt beam="2">  1       -2 0.14477137E+00 0.66979376E+03</pdfrwt>
<totfact> 0.15144345E+01</totfact>
</mgrwt>
</event>
<event>
12    1  0.8033771E-008  0.5806340E+03  0.7818608E-02  0.9946419E-01
          2   -1    0    0  501    0  0.00000000000E+00  0.00000000000E+00  0.12214678439E+04  0.12214678439E+04  0.00000000000E+00 0. -1.
         -2   -1    0    0    0  501 -0.00000000000E+00 -0.00000000000E+00 -0.30348352628E+03  0.30348352628E+03  0.00000000000E+00 0.  1.
         23    2    1    2    0    0  0.62607370638E+02  0.43796482783E+03  0.21539676976E+03  0.50053438589E+03  0.91684403072E+02 0.  0.
    5000000    2    1    2    0    0 -0.62607370638E+02 -0.43796482783E+03  0.70258754790E+03  0.10244169843E+04  0.60005668235E+03 0.  0.
         23    2    4    4    0    0  0.11717357350E+03 -0.50623578572E+03  0.44501059448E+03  0.69026987551E+03  0.91835476661E+02 0.  0.
         23    2    4    4    0    0 -0.17978094414E+03  0.68270957889E+02  0.25757695342E+03  0.33414710881E+03  0.91248516844E+02 0.  0.
          2    1    3    3  502    0  0.60798801701E+02  0.39914497040E+03  0.22254564755E+03  0.46102035413E+03  0.00000000000E+00 0. -1.
         -2    1    3    3    0  502  0.18085689373E+01  0.38819857431E+02 -0.71488777861E+01  0.39514031763E+02  0.00000000000E+00 0.  1.
         15    1    5    5    0    0  0.60593887247E+02 -0.31321957228E+03  0.21501082038E+03  0.38472188688E+03  0.17770000000E+01 0. -1.
        -15    1    5    5    0    0  0.56579686258E+02 -0.19301621344E+03  0.22999977410E+03  0.30554798864E+03  0.17770000000E+01 0.  1.
          2    1    6    6  503    0 -0.15438175100E+02  0.23552365817E+02  0.93515018960E+02  0.97663247730E+02  0.00000000000E+00 0.  1.
         -2    1    6    6    0  503 -0.16434276904E+03  0.44718592072E+02  0.16406193446E+03  0.23648386108E+03  0.00000000000E+00 0. -1.
<mgrwt>
<rscale>  0 0.58063399E+03</rscale>
<asrwt>0</asrwt>
<pdfrwt beam="1">  1        2 0.18791813E+00 0.58063399E+03</pdfrwt>
<pdfrwt beam="2">  1       -2 0.46689774E-01 0.58063399E+03</pdfrwt>
<totfact> 0.82619545E+01</totfact>
</mgrwt>
</event>
<event>
12    1  0.8033771E-008  0.1092426E+04  0.7818608E-02  0.9212605E-01
          2   -1    0    0  501    0  0.00000000000E+00  0.00000000000E+00  0.62998190069E+03  0.62998190069E+03  0.00000000000E+00 0. -1.
         -2   -1    0    0    0  501 -0.00000000000E+00 -0.00000000000E+00 -0.19856691522E+04  0.19856691522E+04  0.00000000000E+00 0.  1.
         23    2    1    2    0    0  0.96213631715E+03 -0.33860131644E+03 -0.41929876090E+03  0.11065948908E+04  0.91562313418E+02 0.  0.
    5000000    2    1    2    0    0 -0.96213631715E+03  0.33860131644E+03 -0.93638849063E+03  0.15090561621E+04  0.60005828941E+03 0.  0.
         23    2    4    4    0    0 -0.29972327813E+02  0.21722668935E+03 -0.19814182024E+03  0.31022038233E+03  0.94290665968E+02 0.  0.
         23    2    4    4    0    0 -0.93216398934E+03  0.12137462710E+03 -0.73824667039E+03  0.11988357798E+04  0.92399011724E+02 0.  0.
          2    1    3    3  502    0  0.38504792716E+03 -0.17151754328E+03 -0.20502514874E+03  0.46873818436E+03  0.00000000000E+00 0. -1.
         -2    1    3    3    0  502  0.57708838999E+03 -0.16708377317E+03 -0.21427361216E+03  0.63785670647E+03  0.00000000000E+00 0.  1.
         15    1    5    5    0    0  0.46233326742E+01  0.92969848118E+02 -0.14139707208E+03  0.16929576955E+03  0.17770000000E+01 0. -1.
        -15    1    5    5    0    0 -0.34595660487E+02  0.12425684123E+03 -0.56744748156E+02  0.14092461279E+03  0.17770000000E+01 0.  1.
          4    1    6    6  503    0 -0.70731222349E+03  0.80058062819E+02 -0.60517532328E+03  0.93431100113E+03  0.00000000000E+00 0. -1.
         -4    1    6    6    0  503 -0.22485176584E+03  0.41316564279E+02 -0.13307134711E+03  0.26452477863E+03  0.00000000000E+00 0.  1.
<mgrwt>
<rscale>  0 0.10924262E+04</rscale>
<asrwt>0</asrwt>
<pdfrwt beam="1">  1        2 0.96920294E-01 0.10924262E+04</pdfrwt>
<pdfrwt beam="2">  1       -2 0.30548756E+00 0.10924262E+04</pdfrwt>
<totfact> 0.13684422E+00</totfact>
</mgrwt>
</event>
<event>
12    1  0.8033771E-008  0.4366139E+03  0.7818608E-02  0.1031791E+00
         -2   -1    0    0    0  501 -0.00000000000E+00  0.00000000000E+00  0.10442842617E+03  0.10442842617E+03  0.00000000000E+00 0. -1.
          2   -1    0    0  501    0  0.00000000000E+00 -0.00000000000E+00 -0.23950502927E+04  0.23950502927E+04  0.00000000000E+00 0.  1.
         23    2    1    2    0    0  0.25158069143E+02  0.23516350651E+03 -0.12477814100E+04  0.12733277938E+04  0.92034884640E+02 0.  0.
    5000000    2    1    2    0    0 -0.25158069143E+02 -0.23516350651E+03 -0.10428404565E+04  0.12261509251E+04  0.59999589176E+03 0.  0.
         23    2    4    4    0    0  0.15337068801E+03 -0.35293508549E+03 -0.51150076101E+03  0.64671610768E+03  0.92319840319E+02 0.  0.
         23    2    4    4    0    0 -0.17852875715E+03  0.11777157898E+03 -0.53133969554E+03  0.57943481744E+03  0.87636599998E+02 0.  0.
          2    1    3    3  502    0 -0.24567756151E+02  0.13951823413E+03 -0.58983195909E+03  0.60660584589E+03  0.00000000000E+00 0. -1.
         -2    1    3    3    0  502  0.49725825293E+02  0.95645272374E+02 -0.65794945093E+03  0.66672194790E+03  0.00000000000E+00 0.  1.
         15    1    5    5    0    0  0.81872423520E+02 -0.27462644688E+03 -0.33550477901E+03  0.44123621057E+03  0.17770000000E+01 0.  1.
        -15    1    5    5    0    0  0.71498264492E+02 -0.78308638612E+02 -0.17599598200E+03  0.20547989711E+03  0.17770000000E+01 0. -1.
          1    1    6    6  503    0 -0.15034204390E+03  0.51167192182E+02 -0.36488900207E+03  0.39795074514E+03  0.00000000000E+00 0. -1.
         -1    1    6    6    0  503 -0.28186713253E+02  0.66604386797E+02 -0.16645069346E+03  0.18148407230E+03  0.00000000000E+00 0.  1.
<mgrwt>
<rscale>  0 0.43661389E+03</rscale>
<asrwt>0</asrwt>
<pdfrwt beam="1">  1        2 0.36846924E+00 0.43661389E+03</pdfrwt>
<pdfrwt beam="2">  1       -2 0.16065913E-01 0.43661389E+03</pdfrwt>
<totfact> 0.13495859E+02</totfact>
</mgrwt>
</event>
<event>
12    1  0.8033771E-008  0.7368716E+03  0.7818608E-02  0.9656175E-01
          2   -1    0    0  501    0  0.00000000000E+00  0.00000000000E+00  0.30477317739E+04  0.30477317739E+04  0.00000000000E+00 0. -1.
         -2   -1    0    0    0  501 -0.00000000000E+00 -0.00000000000E+00 -0.18951898213E+03  0.18951898213E+03  0.00000000000E+00 0.  1.
         23    2    1    2    0    0  0.57822640307E+01  0.62581776203E+03  0.14741365716E+04  0.16040593273E+04  0.90809623692E+02 0.  0.
    5000000    2    1    2    0    0 -0.57822640307E+01 -0.62581776203E+03  0.13840762202E+04  0.16331914288E+04  0.59997162761E+03 0.  0.
         23    2    4    4    0    0 -0.19995155066E+03 -0.25475509225E+02  0.29281606622E+03  0.36936889999E+03  0.10031207036E+03 0.  0.
         23    2    4    4    0    0  0.19416928663E+03 -0.60034225281E+03  0.10912601540E+04  0.12638225288E+04  0.91028173062E+02 0.  0.
          2    1    3    3  502    0 -0.36639733756E+02  0.40074931127E+03  0.89667966235E+03  0.98284123715E+03  0.00000000000E+00 0. -1.
         -2    1    3    3    0  502  0.42421997787E+02  0.22506845076E+03  0.57745690925E+03  0.62121809010E+03  0.00000000000E+00 0.  1.
         15    1    5    5    0    0 -0.17959536498E+03 -0.95248999233E+01  0.18320438061E+03  0.25673375634E+03  0.17770000000E+01 0.  1.
        -15    1    5    5    0    0 -0.20356185681E+02 -0.15950609302E+02  0.10961168562E+03  0.11263514365E+03  0.17770000000E+01 0. -1.
          3    1    6    6  503    0  0.30048132412E+02 -0.27885838124E+02  0.89037690422E+02  0.98021531027E+02  0.00000000000E+00 0. -1.
         -3    1    6    6    0  503  0.16412115422E+03 -0.57245641468E+03  0.10022224636E+04  0.11658009978E+04  0.00000000000E+00 0.  1.
<mgrwt>
<rscale>  0 0.73687164E+03</rscale>
<asrwt>0</asrwt>
<pdfrwt beam="1">  1        2 0.46888178E+00 0.73687164E+03</pdfrwt>
<pdfrwt beam="2">  1       -2 0.29156769E-01 0.73687164E+03</pdfrwt>
<totfact> 0.18677171E+01</totfact>
</mgrwt>
</event>
<event>
12    1  0.8033771E-008  0.6091898E+03  0.7818608E-02  0.9886522E-01
         -2   -1    0    0    0  501 -0.00000000000E+00  0.00000000000E+00  0.72461019389E+03  0.72461019389E+03  0.00000000000E+00 0.  1.
          2   -1    0    0  501    0  0.00000000000E+00 -0.00000000000E+00 -0.66752561532E+03  0.66752561532E+03  0.00000000000E+00 0. -1.
         23    2    1    2    0    0 -0.33231172052E+03  0.40399506027E+03 -0.18209427968E+03  0.56098323761E+03  0.88886319926E+02 0.  0.
    5000000    2    1    2    0    0  0.33231172052E+03 -0.40399506027E+03  0.23917885825E+03  0.83115257160E+03  0.59997081823E+03 0.  0.
         23    2    4    4    0    0  0.12291128883E+03 -0.44458760983E+03 -0.33734548506E+02  0.47082314096E+03  0.88153743889E+02 0.  0.
         23    2    4    4    0    0  0.20940043169E+03  0.40592549561E+02  0.27291340676E+03  0.36032943064E+03  0.99293882621E+02 0.  0.
          1    1    3    3  502    0 -0.13834789517E+03  0.22733792263E+03 -0.66598907334E+02  0.27433207180E+03  0.00000000000E+00 0. -1.
         -1    1    3    3    0  502 -0.19396382535E+03  0.17665713764E+03 -0.11549537235E+03  0.28665116581E+03  0.00000000000E+00 0.  1.
         15    1    5    5    0    0  0.38066734440E+02 -0.11754339688E+03 -0.48209461572E+02  0.13263798979E+03  0.17770000000E+01 0. -1.
        -15    1    5    5    0    0  0.84844554391E+02 -0.32704421295E+03  0.14474913067E+02  0.33818515117E+03  0.17770000000E+01 0.  1.
          1    1    6    6  503    0  0.11863210292E+03 -0.18619174144E+02  0.10004290438E+03  0.15629725591E+03  0.00000000000E+00 0. -1.
         -1    1    6    6    0  503  0.90768328770E+02  0.59211723705E+02  0.17287050238E+03  0.20403217473E+03  0.00000000000E+00 0.  1.
<mgrwt>
<rscale>  0 0.60918976E+03</rscale>
<asrwt>0</asrwt>
<pdfrwt beam="1">  1        2 0.10269625E+00 0.60918976E+03</pdfrwt>
<pdfrwt beam="2">  1       -2 0.11147849E+00 0.60918976E+03</pdfrwt>
<totfact> 0.28410436E+01</totfact>
</mgrwt>
</event>
<event>
12    1  0.8033771E-008  0.4691606E+03  0.7818608E-02  0.1022157E+00
          1   -1    0    0  501    0  0.00000000000E+00  0.00000000000E+00  0.20007152025E+04  0.20007152025E+04  0.00000000000E+00 0. -1.
         -1   -1    0    0    0  501 -0.00000000000E+00 -0.00000000000E+00 -0.34191467480E+03  0.34191467480E+03  0.00000000000E+00 0.  1.
         23    2    1    2    0    0 -0.17191571178E+03 -0.39346953912E+03 -0.83801411410E+02  0.45052346490E+03  0.10758915232E+03 0.  0.
    5000000    2    1    2    0    0  0.17191571178E+03  0.39346953912E+03  0.17426019391E+04  0.18921064124E+04  0.59919267979E+03 0.  0.
         23    2    4    4    0    0  0.14760651157E+03  0.40159795892E+03  0.58232254350E+03  0.72815401112E+03  0.89666695983E+02 0.  0.
         23    2    4    4    0    0  0.24309200211E+02 -0.81284198050E+01  0.11602793956E+04  0.11639524012E+04  0.88768846904E+02 0.  0.
          1    1    3    3  502    0 -0.99119904268E+02 -0.27528601250E+03 -0.87262621652E+01  0.29271708483E+03  0.00000000000E+00 0. -1.
         -1    1    3    3    0  502 -0.72795807512E+02 -0.11818352662E+03 -0.75075149244E+02  0.15780638006E+03  0.00000000000E+00 0.  1.
         15    1    5    5    0    0  0.11701171514E+03  0.19303601480E+03  0.28172412386E+03  0.36100731874E+03  0.17770000000E+01 0. -1.
        -15    1    5    5    0    0  0.30594796430E+02  0.20856194412E+03  0.30059841964E+03  0.36714669237E+03  0.17770000000E+01 0.  1.
          4    1    6    6  503    0  0.10617525560E+02  0.28965457367E+02  0.16325599949E+03  0.16614527059E+03  0.00000000000E+00 0. -1.
         -4    1    6    6    0  503  0.13691674651E+02 -0.37093877172E+02  0.99702339607E+03  0.99780713066E+03  0.00000000000E+00 0.  1.
<mgrwt>
<rscale>  0 0.46916057E+03</rscale>
<asrwt>0</asrwt>
<pdfrwt beam="1">  1        1 0.30780233E+00 0.46916057E+03</pdfrwt>
<pdfrwt beam="2">  1       -1 0.52602259E-01 0.46916057E+03</pdfrwt>
<totfact> 0.11971059E+01</totfact>
</mgrwt>
</event>
<event>
12    1  0.8033771E-008  0.5448096E+03  0.7818608E-02  0.1002702E+00
          1   -1    0    0  501    0  0.00000000000E+00  0.00000000000E+00  0.16380462162E+04  0.16380462162E+04  0.00000000000E+00 0. -1.
         -1   -1    0    0    0  501 -0.00000000000E+00 -0.00000000000E+00 -0.21094103149E+03  0.21094103149E+03  0.00000000000E+00 0.  1.
         23    2    1    2    0    0  0.42110099716E+03 -0.34237771940E+02  0.64407678175E+03  0.77590387500E+03  0.93239732019E+02 0.  0.
    5000000    2    1    2    0    0 -0.42110099716E+03  0.34237771940E+02  0.78302840294E+03  0.10730833727E+04  0.59989679949E+03 0.  0.
         23    2    4    4    0    0 -0.35571672479E+03 -0.19550315666E+03  0.67909743558E+03  0.79707260183E+03  0.96930557736E+02 0.  0.
         23    2    4    4    0    0 -0.65384272365E+02  0.22974092860E+03  0.10393096736E+03  0.27601077083E+03  0.91237614460E+02 0.  0.
          1    1    3    3  502    0  0.34328460030E+03  0.93401885217E+01  0.50611863360E+03  0.61162703276E+03  0.00000000000E+00 0. -1.
         -1    1    3    3    0  502  0.77816396856E+02 -0.43577960462E+02  0.13795814814E+03  0.16427684224E+03  0.00000000000E+00 0.  1.
         15    1    5    5    0    0 -0.30265272663E+03 -0.17248385019E+03  0.50410315631E+03  0.61275811006E+03  0.17770000000E+01 0.  1.
        -15    1    5    5    0    0 -0.53063998160E+02 -0.23019306462E+02  0.17499427928E+03  0.18431449178E+03  0.17770000000E+01 0. -1.
          4    1    6    6  503    0 -0.62591153373E+02  0.23588329410E+03  0.89251223526E+02  0.25985450125E+03  0.00000000000E+00 0.  1.
         -4    1    6    6    0  503 -0.27931189927E+01 -0.61423655076E+01  0.14679743835E+02  0.16156269582E+02  0.00000000000E+00 0. -1.
<mgrwt>
<rscale>  0 0.54480955E+03</rscale>
<asrwt>0</asrwt>
<pdfrwt beam="1">  1        1 0.25200710E+00 0.54480955E+03</pdfrwt>
<pdfrwt beam="2">  1       -1 0.32452467E-01 0.54480955E+03</pdfrwt>
<totfact> 0.49365112E+01</totfact>
</mgrwt>
</event>
<event>
12    1  0.8033771E-008  0.8624936E+03  0.7818608E-02  0.9473720E-01
         -1   -1    0    0    0  501 -0.00000000000E+00  0.00000000000E+00  0.32016542303E+03  0.32016542303E+03  0.00000000000E+00 0.  1.
          1   -1    0    0  501    0  0.00000000000E+00 -0.00000000000E+00 -0.24810357243E+04  0.24810357243E+04  0.00000000000E+00 0. -1.
         23    2    1    2    0    0  0.55682999140E+03  0.55057501133E+03 -0.10901205477E+04  0.13451941801E+04  0.89398496996E+02 0.  0.
    5000000    2    1    2    0    0 -0.55682999140E+03 -0.55057501133E+03 -0.10707497535E+04  0.14560069672E+04  0.60021560407E+03 0.  0.
         23    2    4    4    0    0 -0.58412328137E+03 -0.26898232950E+03 -0.52798451383E+03  0.83699792378E+03  0.90809559748E+02 0.  0.
         23    2    4    4    0    0  0.27293289973E+02 -0.28159268183E+03 -0.54276523971E+03  0.61900904341E+03  0.92405239282E+02 0.  0.
          2    1    3    3  502    0  0.17130779917E+03  0.21001593232E+03 -0.32413202870E+03  0.42250991221E+03  0.00000000000E+00 0.  1.
         -2    1    3    3    0  502  0.38552219223E+03  0.34055907902E+03 -0.76598851901E+03  0.92268426792E+03  0.00000000000E+00 0. -1.
         15    1    5    5    0    0 -0.38841176064E+03 -0.13764653538E+03 -0.36440170636E+03  0.55009274294E+03  0.17770000000E+01 0. -1.
        -15    1    5    5    0    0 -0.19571152073E+03 -0.13133579412E+03 -0.16358280747E+03  0.28690518084E+03  0.17770000000E+01 0.  1.
          1    1    6    6  503    0  0.16814522632E+02 -0.91659152299E+01 -0.76767700675E+02  0.79120301062E+02  0.00000000000E+00 0. -1.
         -1    1    6    6    0  503  0.10478767341E+02 -0.27242676660E+03 -0.46599753903E+03  0.53988874235E+03  0.00000000000E+00 0.  1.
<mgrwt>
<rscale>  0 0.86249365E+03</rscale>
<asrwt>0</asrwt>
<pdfrwt beam="1">  1        1 0.38169780E+00 0.86249365E+03</pdfrwt>
<pdfrwt beam="2">  1       -1 0.49256219E-01 0.86249365E+03</pdfrwt>
<totfact> 0.59851590E+00</totfact>
</mgrwt>
</event>
<event>
12    1  0.8033771E-008  0.4772111E+03  0.7818608E-02  0.1019904E+00
          2   -1    0    0  501    0  0.00000000000E+00  0.00000000000E+00  0.74135288501E+03  0.74135288501E+03  0.00000000000E+00 0. -1.
         -2   -1    0    0    0  501 -0.00000000000E+00 -0.00000000000E+00 -0.36803687238E+03  0.36803687238E+03  0.00000000000E+00 0.  1.
         23    2    1    2    0    0  0.22687491095E+03 -0.22768105939E+03  0.25079054194E+03  0.41758021455E+03  0.90368410609E+02 0.  0.
    5000000    2    1    2    0    0 -0.22687491095E+03  0.22768105939E+03  0.12252547069E+03  0.69180954284E+03  0.60023084107E+03 0.  0.
         23    2    4    4    0    0 -0.20808849630E+03 -0.13709494622E+03  0.16577233514E+03  0.31263955066E+03  0.90372423705E+02 0.  0.
         23    2    4    4    0    0 -0.18786414646E+02  0.36477600561E+03 -0.43246864454E+02  0.37916999218E+03  0.92114754714E+02 0.  0.
          4    1    3    3  502    0  0.12029779608E+03 -0.71420433052E+02  0.14218540048E+03  0.19947211863E+03  0.00000000000E+00 0. -1.
         -4    1    3    3    0  502  0.10657711487E+03 -0.15626062634E+03  0.10860514146E+03  0.21810809593E+03  0.00000000000E+00 0.  1.
         15    1    5    5    0    0 -0.21149148643E+03 -0.13134027612E+03  0.17258395955E+03  0.30293117665E+03  0.17770000000E+01 0. -1.
        -15    1    5    5    0    0  0.34029901302E+01 -0.57546701012E+01 -0.68116244091E+01  0.97083740086E+01  0.17770000000E+01 0.  1.
          4    1    6    6  503    0  0.10183343506E+02  0.12928960251E+02 -0.19237598448E+02  0.25316865765E+02  0.00000000000E+00 0.  1.
         -4    1    6    6    0  503 -0.28969758152E+02  0.35184704536E+03 -0.24009266006E+02  0.35385312641E+03  0.00000000000E+00 0. -1.
<mgrwt>
<rscale>  0 0.47721113E+03</rscale>
<asrwt>0</asrwt>
<pdfrwt beam="1">  1        2 0.11405429E+00 0.47721113E+03</pdfrwt>
<pdfrwt beam="2">  1       -2 0.56621057E-01 0.47721113E+03</pdfrwt>
<totfact> 0.11502525E+02</totfact>
</mgrwt>
</event>
<event>
12    1  0.8033771E-008  0.5326996E+03  0.7818608E-02  0.1005580E+00
          2   -1    0    0  501    0  0.00000000000E+00  0.00000000000E+00  0.92707033545E+03  0.92707033545E+03  0.00000000000E+00 0.  1.
         -2   -1    0    0    0  501 -0.00000000000E+00 -0.00000000000E+00 -0.61992651474E+03  0.61992651474E+03  0.00000000000E+00 0. -1.
         23    2    1    2    0    0 -0.89416307092E+02  0.36237257687E+03 -0.39447833948E+03  0.55130930570E+03  0.94971731532E+02 0.  0.
    5000000    2    1    2    0    0  0.89416307092E+02 -0.36237257687E+03  0.70162216019E+03  0.99568754450E+03  0.59984237109E+03 0.  0.
         23    2    4    4    0    0 -0.21011162422E+03 -0.44866751089E+01  0.26635356658E+03  0.35126356950E+03  0.90966191237E+02 0.  0.
         23    2    4    4    0    0  0.29952793131E+03 -0.35788590176E+03  0.43526859361E+03  0.64442397499E+03  0.89577958496E+02 0.  0.
          2    1    3    3  502    0  0.10956109069E+02  0.13388942850E+03 -0.15950975754E+03  0.20854202967E+03  0.00000000000E+00 0. -1.
         -2    1    3    3    0  502 -0.10037241616E+03  0.22848314837E+03 -0.23496858194E+03  0.34276727602E+03  0.00000000000E+00 0.  1.
         15    1    5    5    0    0 -0.52503567097E+02  0.16211994281E+02  0.13246919514E+03  0.14342488872E+03  0.17770000000E+01 0. -1.
        -15    1    5    5    0    0 -0.15760805712E+03 -0.20698669390E+02  0.13388437144E+03  0.20783868078E+03  0.17770000000E+01 0.  1.
          1    1    6    6  503    0  0.21471335169E+03 -0.23593240639E+03  0.34820931713E+03  0.47224533064E+03  0.00000000000E+00 0. -1.
         -1    1    6    6    0  503  0.84814579622E+02 -0.12195349537E+03  0.87059276489E+02  0.17217864435E+03  0.00000000000E+00 0.  1.
<mgrwt>
<rscale>  0 0.53269955E+03</rscale>
<asrwt>0</asrwt>
<pdfrwt beam="1">  1        2 0.14262620E+00 0.53269955E+03</pdfrwt>
<pdfrwt beam="2">  1       -2 0.95373311E-01 0.53269955E+03</pdfrwt>
<totfact> 0.27029923E+01</totfact>
</mgrwt>
</event>
<event>
12    1  0.8033771E-008  0.7105905E+03  0.7818608E-02  0.9699290E-01
          2   -1    0    0  501    0  0.00000000000E+00  0.00000000000E+00  0.16885534172E+04  0.16885534172E+04  0.00000000000E+00 0.  1.
         -2   -1    0    0    0  501 -0.00000000000E+00 -0.00000000000E+00 -0.33873814722E+03  0.33873814722E+03  0.00000000000E+00 0. -1.
         23    2    1    2    0    0 -0.57525659050E+03  0.11981363148E+03  0.26658521303E+03  0.65665904874E+03  0.12189331109E+03 0.  0.
    5000000    2    1    2    0    0  0.57525659050E+03 -0.11981363148E+03  0.10832300570E+04  0.13706325157E+04  0.59997557077E+03 0.  0.
         23    2    4    4    0    0  0.18055666990E+03  0.22465667834E+03  0.46562936976E+03  0.55555992233E+03  0.93620420588E+02 0.  0.
         23    2    4    4    0    0  0.39469992060E+03 -0.34447030981E+03  0.61760068721E+03  0.81507259335E+03  0.92004901630E+02 0.  0.
          2    1    3    3  502    0 -0.99884660195E+02 -0.22287223503E+02  0.27899168745E+02  0.10607558291E+03  0.00000000000E+00 0. -1.
         -2    1    3    3    0  502 -0.47537193031E+03  0.14210085498E+03  0.23868604428E+03  0.55058346583E+03  0.00000000000E+00 0.  1.
         15    1    5    5    0    0  0.71853104672E+02  0.34807180000E+02  0.16961051858E+03  0.18747078218E+03  0.17770000000E+01 0. -1.
        -15    1    5    5    0    0  0.10870356523E+03  0.18984949834E+03  0.29601885118E+03  0.36808914015E+03  0.17770000000E+01 0.  1.
          2    1    6    6  503    0  0.27737826647E+03 -0.25012995220E+03  0.49964961035E+03  0.62382163221E+03  0.00000000000E+00 0. -1.
         -2    1    6    6    0  503  0.11732165413E+03 -0.94340357618E+02  0.11795107686E+03  0.19125096114E+03  0.00000000000E+00 0.  1.
<mgrwt>
<rscale>  0 0.71059051E+03</rscale>
<asrwt>0</asrwt>
<pdfrwt beam="1">  1        2 0.25977744E+00 0.71059051E+03</pdfrwt>
<pdfrwt beam="2">  1       -2 0.52113562E-01 0.71059051E+03</pdfrwt>
<totfact> 0.35662367E+01</totfact>
</mgrwt>
</event>
<event>
12    1  0.8033771E-008  0.7314834E+03  0.7818608E-02  0.9664856E-01
          1   -1    0    0  501    0  0.00000000000E+00  0.00000000000E+00  0.10433885896E+04  0.10433885896E+04  0.00000000000E+00 0. -1.
         -1   -1    0    0    0  501 -0.00000000000E+00 -0.00000000000E+00 -0.84873635550E+03  0.84873635550E+03  0.00000000000E+00 0.  1.
         23    2    1    2    0    0 -0.41239200868E+03 -0.58515126952E+03  0.53456957225E+03  0.89819252641E+03  0.92282229526E+02 0.  0.
    5000000    2    1    2    0    0  0.41239200868E+03  0.58515126952E+03 -0.33991733817E+03  0.99393241867E+03  0.59990722536E+03 0.  0.
         23    2    4    4    0    0  0.23425814598E+03  0.39982430355E+03 -0.49237477566E+03  0.68171982659E+03  0.87020972109E+02 0.  0.
         23    2    4    4    0    0  0.17813386269E+03  0.18532696597E+03  0.15245743749E+03  0.31221259208E+03  0.90308776173E+02 0.  0.
          4    1    3    3  502    0 -0.59880914973E+02 -0.40301910391E+02  0.65549951690E+02  0.97502636506E+02  0.00000000000E+00 0. -1.
         -4    1    3    3    0  502 -0.35251109370E+03 -0.54484935913E+03  0.46901962056E+03  0.80068988991E+03  0.00000000000E+00 0.  1.
         15    1    5    5    0    0  0.20383483367E+03  0.27108039752E+03 -0.35105684099E+03  0.48813654306E+03  0.17770000000E+01 0.  1.
        -15    1    5    5    0    0  0.30423312313E+02  0.12874390603E+03 -0.14131793467E+03  0.19358328353E+03  0.17770000000E+01 0. -1.
          1    1    6    6  503    0  0.10517240899E+03  0.16315903098E+03  0.91575816029E+02  0.21463512081E+03  0.00000000000E+00 0. -1.
         -1    1    6    6    0  503  0.72961453698E+02  0.22167934988E+02  0.60881621459E+02  0.97577471267E+02  0.00000000000E+00 0.  1.
<mgrwt>
<rscale>  0 0.73148342E+03</rscale>
<asrwt>0</asrwt>
<pdfrwt beam="1">  1        1 0.16052132E+00 0.73148342E+03</pdfrwt>
<pdfrwt beam="2">  1       -1 0.13057482E+00 0.73148342E+03</pdfrwt>
<totfact> 0.72856970E+00</totfact>
</mgrwt>
</event>
<event>
12    1  0.8033771E-008  0.2547206E+04  0.7818608E-02  0.8386359E-01
          2   -1    0    0  501    0  0.00000000000E+00  0.00000000000E+00  0.26507511209E+04  0.26507511209E+04  0.00000000000E+00 0. -1.
         -2   -1    0    0    0  501 -0.00000000000E+00 -0.00000000000E+00 -0.25173651745E+04  0.25173651745E+04  0.00000000000E+00 0.  1.
         23    2    1    2    0    0 -0.25167155585E+04 -0.15091567563E+03  0.42813572235E+03  0.25597241233E+04  0.11070070980E+03 0.  0.
    5000000    2    1    2    0    0  0.25167155585E+04  0.15091567563E+03 -0.29474977590E+03  0.26083921722E+04  0.60016626869E+03 0.  0.
         23    2    4    4    0    0  0.59770289050E+03  0.24847581432E+03 -0.19879296666E+03  0.68232178206E+03  0.83996399067E+02 0.  0.
         23    2    4    4    0    0  0.19190126680E+04 -0.97560138689E+02 -0.95956809239E+02  0.19260703901E+04  0.91716072588E+02 0.  0.
          4    1    3    3  502    0 -0.10706857481E+04 -0.92521122186E+02  0.23004184364E+03  0.10990211004E+04  0.00000000000E+00 0.  1.
         -4    1    3    3    0  502 -0.14460298104E+04 -0.58394553448E+02  0.19809387870E+03  0.14607030229E+04  0.00000000000E+00 0. -1.
         15    1    5    5    0    0  0.37789370090E+03  0.18873293786E+03 -0.10030650085E+03  0.43415241893E+03  0.17770000000E+01 0. -1.
        -15    1    5    5    0    0  0.21980918960E+03  0.59742876459E+02 -0.98486465810E+02  0.24816936313E+03  0.17770000000E+01 0.  1.
          3    1    6    6  503    0  0.10689659943E+04 -0.26080435408E+02 -0.17552579378E+02  0.10694281552E+04  0.00000000000E+00 0. -1.
         -3    1    6    6    0  503  0.85004667364E+03 -0.71479703281E+02 -0.78404229861E+02  0.85664223489E+03  0.00000000000E+00 0.  1.
<mgrwt>
<rscale>  0 0.25472058E+04</rscale>
<asrwt>0</asrwt>
<pdfrwt beam="1">  1        2 0.40780787E+00 0.25472058E+04</pdfrwt>
<pdfrwt beam="2">  1       -2 0.38728695E+00 0.25472058E+04</pdfrwt>
<totfact> 0.21321741E-02</totfact>
</mgrwt>
</event>
<event>
12    1  0.8033771E-008  0.5221866E+03  0.7818608E-02  0.1008145E+00
         -2   -1    0    0    0  501 -0.00000000000E+00  0.00000000000E+00  0.22594462039E+04  0.22594462039E+04  0.00000000000E+00 0. -1.
          2   -1    0    0  501    0  0.00000000000E+00 -0.00000000000E+00 -0.33131543433E+03  0.33131543433E+03  0.00000000000E+00 0.  1.
         23    2    1    2    0    0 -0.65418982452E+02  0.37338634471E+03  0.18340706369E+04  0.18748507667E+04  0.86909667630E+02 0.  0.
    5000000    2    1    2    0    0  0.65418982452E+02 -0.37338634471E+03  0.94060132628E+02  0.71591087155E+03  0.59998671799E+03 0.  0.
         23    2    4    4    0    0  0.57588495361E+02  0.12670028292E+03 -0.69012424734E+02  0.18243420790E+03  0.95656306407E+02 0.  0.
         23    2    4    4    0    0  0.78304870915E+01 -0.50008662763E+03  0.16307255736E+03  0.53347666365E+03  0.88638253754E+02 0.  0.
          4    1    3    3  502    0 -0.85919415695E+01  0.27607792950E+03  0.12962006372E+04  0.13253033375E+04  0.00000000000E+00 0.  1.
         -4    1    3    3    0  502 -0.56827040883E+02  0.97308415207E+02  0.53786999978E+03  0.54954742917E+03  0.00000000000E+00 0. -1.
         15    1    5    5    0    0  0.62803244186E+02  0.80622416412E+02 -0.36554515155E+01  0.10227776671E+03  0.17770000000E+01 0. -1.
        -15    1    5    5    0    0 -0.52147488255E+01  0.46077866504E+02 -0.65356973219E+02  0.80156441190E+02  0.17770000000E+01 0.  1.
          4    1    6    6  503    0 -0.35364737237E+02 -0.30510118693E+03  0.81713554400E+02  0.31782778966E+03  0.00000000000E+00 0.  1.
         -4    1    6    6    0  503  0.43195224329E+02 -0.19498544070E+03  0.81359002962E+02  0.21564887399E+03  0.00000000000E+00 0. -1.
<mgrwt>
<rscale>  0 0.52218657E+03</rscale>
<asrwt>0</asrwt>
<pdfrwt beam="1">  1        2 0.50971607E-01 0.52218657E+03</pdfrwt>
<pdfrwt beam="2">  1       -2 0.34760710E+00 0.52218657E+03</pdfrwt>
<totfact> 0.17400183E+00</totfact>
</mgrwt>
</event>
<event>
12    1  0.8033771E-008  0.6564846E+03  0.7818608E-02  0.9794687E-01
          2   -1    0    0  501    0  0.00000000000E+00  0.00000000000E+00  0.17043652522E+04  0.17043652522E+04  0.00000000000E+00 0. -1.
         -2   -1    0    0    0  501 -0.00000000000E+00 -0.00000000000E+00 -0.59751341846E+03  0.59751341846E+03  0.00000000000E+00 0.  1.
         23    2    1    2    0    0  0.23670881137E+03  0.56859788836E+03 -0.26762829032E+03  0.68064747187E+03  0.11100206821E+03 0.  0.
    5000000    2    1    2    0    0 -0.23670881137E+03 -0.56859788836E+03  0.13744801240E+04  0.16212311988E+04  0.59988362909E+03 0.  0.
         23    2    4    4    0    0 -0.26956905596E+03 -0.31656208705E+03  0.12570763447E+04  0.13269249368E+04  0.87234285191E+02 0.  0.
         23    2    4    4    0    0  0.32860244591E+02 -0.25203580131E+03  0.11740377929E+03  0.29430626196E+03  0.90723137192E+02 0.  0.
          3    1    3    3  502    0  0.17908566144E+02  0.15152730379E+03 -0.41085887972E+02  0.15801674191E+03  0.00000000000E+00 0.  1.
         -3    1    3    3    0  502  0.21880024523E+03  0.41707058458E+03 -0.22654240235E+03  0.52263072995E+03  0.00000000000E+00 0. -1.
         15    1    5    5    0    0 -0.39033275788E+02 -0.94858370245E+02  0.36946640864E+03  0.38344529188E+03  0.17770000000E+01 0.  1.
        -15    1    5    5    0    0 -0.23053578017E+03 -0.22170371681E+03  0.88760993609E+03  0.94347964491E+03  0.17770000000E+01 0. -1.
          4    1    6    6  503    0  0.53060830371E+02 -0.96485055161E+02  0.27435023583E+02  0.11347906462E+03  0.00000000000E+00 0. -1.
         -4    1    6    6    0  503 -0.20200585780E+02 -0.15555074615E+03  0.89968755710E+02  0.18082719734E+03  0.00000000000E+00 0.  1.
<mgrwt>
<rscale>  0 0.65648455E+03</rscale>
<asrwt>0</asrwt>
<pdfrwt beam="1">  1        2 0.26221004E+00 0.65648455E+03</pdfrwt>
<pdfrwt beam="2">  1       -2 0.91925142E-01 0.65648455E+03</pdfrwt>
<totfact> 0.10239939E+01</totfact>
</mgrwt>
</event>
<event>
12    1  0.8033771E-008  0.8802036E+03  0.7818608E-02  0.9450672E-01
          2   -1    0    0  501    0  0.00000000000E+00  0.00000000000E+00  0.15741222532E+04  0.15741222532E+04  0.00000000000E+00 0. -1.
         -2   -1    0    0    0  501 -0.00000000000E+00 -0.00000000000E+00 -0.77229088854E+03  0.77229088854E+03  0.00000000000E+00 0.  1.
         23    2    1    2    0    0 -0.73717794753E+03  0.40071977821E+03  0.98698630811E+03  0.12982765398E+04  0.85862298438E+02 0.  0.
    5000000    2    1    2    0    0  0.73717794753E+03 -0.40071977821E+03 -0.18515494345E+03  0.10481366020E+04  0.60025021149E+03 0.  0.
         23    2    4    4    0    0  0.16135326582E+02 -0.67082154556E+01  0.13250659548E+03  0.16253900390E+03  0.92496383842E+02 0.  0.
         23    2    4    4    0    0  0.72104262095E+03 -0.39401156275E+03 -0.31766153893E+03  0.88559759810E+03  0.90701045419E+02 0.  0.
          4    1    3    3  502    0 -0.16779429662E+03  0.12634118667E+03  0.21521402680E+03  0.30072262761E+03  0.00000000000E+00 0. -1.
         -4    1    3    3    0  502 -0.56938365092E+03  0.27437859154E+03  0.77177228131E+03  0.99755391214E+03  0.00000000000E+00 0.  1.
         15    1    5    5    0    0  0.38725394404E+02  0.31278558949E+02  0.73709651699E+02  0.88962210541E+02  0.17770000000E+01 0. -1.
        -15    1    5    5    0    0 -0.22590067821E+02 -0.37986774404E+02  0.58796943782E+02  0.73576793358E+02  0.17770000000E+01 0.  1.
          2    1    6    6  503    0  0.58085767212E+03 -0.28685105377E+03 -0.22151707220E+03  0.68465244876E+03  0.00000000000E+00 0. -1.
         -2    1    6    6    0  503  0.14018494883E+03 -0.10716050898E+03 -0.96144466730E+02  0.20094514935E+03  0.00000000000E+00 0.  1.
<mgrwt>
<rscale>  0 0.88020363E+03</rscale>
<asrwt>0</asrwt>
<pdfrwt beam="1">  1        2 0.24217265E+00 0.88020363E+03</pdfrwt>
<pdfrwt beam="2">  1       -2 0.11881398E+00 0.88020363E+03</pdfrwt>
<totfact> 0.63296433E+00</totfact>
</mgrwt>
</event>
<event>
12    1  0.8033771E-008  0.1832536E+04  0.7818608E-02  0.8689186E-01
          2   -1    0    0  501    0  0.00000000000E+00  0.00000000000E+00  0.26047814598E+04  0.26047814598E+04  0.00000000000E+00 0. -1.
         -2   -1    0    0    0  501 -0.00000000000E+00 -0.00000000000E+00 -0.17862689547E+04  0.17862689547E+04  0.00000000000E+00 0.  1.
         23    2    1    2    0    0 -0.32022415257E+03 -0.18006921789E+04 -0.67824661174E+03  0.19527414748E+04  0.90249487507E+02 0.  0.
    5000000    2    1    2    0    0  0.32022415257E+03  0.18006921789E+04  0.14967591169E+04  0.24383089397E+04  0.60002233315E+03 0.  0.
         23    2    4    4    0    0  0.20101759617E+03  0.11461130192E+04  0.58568669148E+03  0.13059685019E+04  0.92421321401E+02 0.  0.
         23    2    4    4    0    0  0.11920655639E+03  0.65457915972E+03  0.91107242538E+03  0.11323404378E+04  0.97251340761E+02 0.  0.
          1    1    3    3  502    0 -0.22592063136E+02 -0.31213958444E+03 -0.12675337212E+03  0.33765061652E+03  0.00000000000E+00 0. -1.
         -1    1    3    3    0  502 -0.29763208943E+03 -0.14885525945E+04 -0.55149323962E+03  0.16150908583E+04  0.00000000000E+00 0.  1.
         15    1    5    5    0    0  0.14016431661E+02  0.27511601100E+03  0.16093041812E+03  0.31904080784E+03  0.17770000000E+01 0.  1.
        -15    1    5    5    0    0  0.18700116451E+03  0.87099700821E+03  0.42475627336E+03  0.98692769408E+03  0.17770000000E+01 0. -1.
          1    1    6    6  503    0  0.38013072598E+02  0.36668570044E+03  0.56835784287E+03  0.67744670208E+03  0.00000000000E+00 0.  1.
         -1    1    6    6    0  503  0.81193483796E+02  0.28789345928E+03  0.34271458251E+03  0.45489373569E+03  0.00000000000E+00 0. -1.
<mgrwt>
<rscale>  0 0.18325363E+04</rscale>
<asrwt>0</asrwt>
<pdfrwt beam="1">  1        2 0.40073561E+00 0.18325363E+04</pdfrwt>
<pdfrwt beam="2">  1       -2 0.27481061E+00 0.18325363E+04</pdfrwt>
<totfact> 0.12360244E-01</totfact>
</mgrwt>
</event>
<event>
12    1  0.8033771E-008  0.7303195E+03  0.7818608E-02  0.9666742E-01
          1   -1    0    0  501    0  0.00000000000E+00  0.00000000000E+00  0.65056411959E+03  0.65056411959E+03  0.00000000000E+00 0. -1.
         -1   -1    0    0    0  501 -0.00000000000E+00 -0.00000000000E+00 -0.93721429296E+03  0.93721429296E+03  0.00000000000E+00 0.  1.
         23    2    1    2    0    0 -0.33796957444E+03 -0.56303466444E+03 -0.19880246102E+03  0.69377682472E+03  0.10282216397E+03 0.  0.
    5000000    2    1    2    0    0  0.33796957444E+03  0.56303466444E+03 -0.87847712356E+02  0.89400158783E+03  0.60024174452E+03 0.  0.
         23    2    4    4    0    0 -0.85416385005E+02  0.24324010311E+03 -0.20532958179E+03  0.34215903292E+03  0.91928559543E+02 0.  0.
         23    2    4    4    0    0  0.42338595945E+03  0.31979456133E+03  0.11748186943E+03  0.55184255491E+03  0.95937394432E+02 0.  0.
          3    1    3    3  502    0 -0.14055043216E+03 -0.21721155857E+03 -0.13045558433E+03  0.28974807098E+03  0.00000000000E+00 0. -1.
         -3    1    3    3    0  502 -0.19741914228E+03 -0.34582310587E+03 -0.68346876693E+02  0.40402875374E+03  0.00000000000E+00 0.  1.
         15    1    5    5    0    0 -0.35578501459E+01  0.14019552964E+03 -0.86110632741E+02  0.16457716618E+03  0.17770000000E+01 0.  1.
        -15    1    5    5    0    0 -0.81858534859E+02  0.10304457347E+03 -0.11921894905E+03  0.17758186673E+03  0.17770000000E+01 0. -1.
          1    1    6    6  503    0  0.65800698336E+02  0.33869984882E+02  0.49366686637E+02  0.88960539156E+02  0.00000000000E+00 0. -1.
         -1    1    6    6    0  503  0.35758526111E+03  0.28592457645E+03  0.68115182798E+02  0.46288201575E+03  0.00000000000E+00 0.  1.
<mgrwt>
<rscale>  0 0.73031952E+03</rscale>
<asrwt>0</asrwt>
<pdfrwt beam="1">  1        1 0.10008679E+00 0.73031952E+03</pdfrwt>
<pdfrwt beam="2">  1       -1 0.14418681E+00 0.73031952E+03</pdfrwt>
<totfact> 0.12173533E+01</totfact>
</mgrwt>
</event>
<event>
12    1  0.8033771E-008  0.8588748E+03  0.7818608E-02  0.9478502E-01
          1   -1    0    0  501    0  0.00000000000E+00  0.00000000000E+00  0.12595465635E+04  0.12595465635E+04  0.00000000000E+00 0. -1.
         -1   -1    0    0    0  501 -0.00000000000E+00 -0.00000000000E+00 -0.21796992802E+04  0.21796992802E+04  0.00000000000E+00 0.  1.
         23    2    1    2    0    0 -0.16232595709E+02  0.80800013757E+03  0.98939120454E+03  0.12806963141E+04  0.90334787336E+02 0.  0.
    5000000    2    1    2    0    0  0.16232595709E+02 -0.80800013757E+03 -0.19095439213E+04  0.21585495296E+04  0.59987529119E+03 0.  0.
         23    2    4    4    0    0 -0.66021312279E+02 -0.11194491589E+01 -0.63778962290E+03  0.64744203831E+03  0.89696839693E+02 0.  0.
         23    2    4    4    0    0  0.82253907988E+02 -0.80688068841E+03 -0.12717542984E+04  0.15111074913E+04  0.90910417931E+02 0.  0.
          1    1    3    3  502    0  0.17560473269E+02  0.14372911738E+03  0.22350700911E+03  0.26631149529E+03  0.00000000000E+00 0. -1.
         -1    1    3    3    0  502 -0.33793068978E+02  0.66427102019E+03  0.76588419542E+03  0.10143848188E+04  0.00000000000E+00 0.  1.
         15    1    5    5    0    0 -0.81178836195E+02 -0.29647132839E+01 -0.61236012072E+03  0.61772717938E+03  0.17770000000E+01 0.  1.
        -15    1    5    5    0    0  0.15157523916E+02  0.18452641250E+01 -0.25429502179E+02  0.29714858926E+02  0.17770000000E+01 0. -1.
          4    1    6    6  503    0  0.39588496766E+02 -0.31720089890E+03 -0.42159599870E+03  0.52908113315E+03  0.00000000000E+00 0. -1.
         -4    1    6    6    0  503  0.42665411222E+02 -0.48967978952E+03 -0.85015829966E+03  0.98202635813E+03  0.00000000000E+00 0.  1.
<mgrwt>
<rscale>  0 0.85887478E+03</rscale>
<asrwt>0</asrwt>
<pdfrwt beam="1">  1        1 0.19377639E+00 0.85887478E+03</pdfrwt>
<pdfrwt beam="2">  1       -1 0.33533835E+00 0.85887478E+03</pdfrwt>
<totfact> 0.19694777E-01</totfact>
</mgrwt>
</event>
<event>
12    1  0.1487946E-007  0.4871669E+03  0.7818608E-02  0.1017184E+00
          1   -1    0    0  501    0  0.00000000000E+00  0.00000000000E+00  0.85909801454E+03  0.85909801454E+03  0.00000000000E+00 0. -1.
         -1   -1    0    0    0  501 -0.00000000000E+00 -0.00000000000E+00 -0.59276413856E+03  0.59276413856E+03  0.00000000000E+00 0.  1.
         23    2    1    2    0    0 -0.33242305270E+03  0.18058711179E+03  0.56166407114E+03  0.68353556033E+03  0.92938380207E+02 0.  0.
    5000000    2    1    2    0    0  0.33242305270E+03 -0.18058711179E+03 -0.29533019515E+03  0.76832659277E+03  0.59999086500E+03 0.  0.
         23    2    4    4    0    0  0.29875490665E+03  0.81086173636E+02  0.47850683178E+02  0.32582564877E+03  0.89683910006E+02 0.  0.
         23    2    4    4    0    0  0.33668146047E+02 -0.26167328542E+03 -0.34318087833E+03  0.44250094400E+03  0.91801513208E+02 0.  0.
          3    1    3    3  502    0 -0.66608490203E+02  0.82459023215E+02  0.16296822791E+03  0.19440891128E+03  0.00000000000E+00 0. -1.
         -3    1    3    3    0  502 -0.26581456250E+03  0.98128088572E+02  0.39869584323E+03  0.48912664905E+03  0.00000000000E+00 0.  1.
         15    1    5    5    0    0  0.14947867392E+03  0.24234867700E+02  0.65715178882E+02  0.16508435793E+03  0.17770000000E+01 0.  1.
        -15    1    5    5    0    0  0.14927623274E+03  0.56851305936E+02 -0.17864495705E+02  0.16074129084E+03  0.17770000000E+01 0. -1.
          4    1    6    6  503    0  0.56708926245E+02 -0.16719469973E+03 -0.26140601919E+03  0.31544108293E+03  0.00000000000E+00 0. -1.
         -4    1    6    6    0  503 -0.23040780198E+02 -0.94478585698E+02 -0.81774859142E+02  0.12705986107E+03  0.00000000000E+00 0.  1.
<mgrwt>
<rscale>  0 0.48716687E+03</rscale>
<asrwt>0</asrwt>
<pdfrwt beam="1">  1        1 0.13216892E+00 0.48716687E+03</pdfrwt>
<pdfrwt beam="2">  1       -1 0.91194483E-01 0.48716687E+03</pdfrwt>
<totfact> 0.24599207E+01</totfact>
</mgrwt>
</event>
<event>
12    1  0.8033771E-008  0.4688770E+03  0.7818608E-02  0.1022238E+00
         -2   -1    0    0    0  501 -0.00000000000E+00  0.00000000000E+00  0.57994358499E+03  0.57994358499E+03  0.00000000000E+00 0.  1.
          2   -1    0    0  501    0  0.00000000000E+00 -0.00000000000E+00 -0.68465669429E+03  0.68465669429E+03  0.00000000000E+00 0. -1.
         23    2    1    2    0    0  0.29605543174E+03  0.24554275923E+03 -0.33299839908E+03  0.51624020868E+03  0.87612521917E+02 0.  0.
    5000000    2    1    2    0    0 -0.29605543174E+03 -0.24554275923E+03  0.22828528978E+03  0.74836007060E+03  0.59999046364E+03 0.  0.
         23    2    4    4    0    0 -0.38200485361E+03 -0.21136387598E+03  0.34798435051E+03  0.56595551595E+03  0.92790848579E+02 0.  0.
         23    2    4    4    0    0  0.85949421868E+02 -0.34178883256E+02 -0.11969906074E+03  0.18240455465E+03  0.10192181923E+03 0.  0.
          3    1    3    3  502    0  0.22187200061E+03  0.14451651738E+03 -0.18891785423E+03  0.32527244595E+03  0.00000000000E+00 0. -1.
         -3    1    3    3    0  502  0.74183431133E+02  0.10102624186E+03 -0.14408054485E+03  0.19096776273E+03  0.00000000000E+00 0.  1.
         15    1    5    5    0    0 -0.94350694609E+02 -0.13778936467E+02  0.97492163120E+02  0.13638105536E+03  0.17770000000E+01 0. -1.
        -15    1    5    5    0    0 -0.28765415900E+03 -0.19758493951E+03  0.25049218739E+03  0.42957446058E+03  0.17770000000E+01 0.  1.
          2    1    6    6  503    0  0.64547782055E+02 -0.19308289764E+01 -0.90822443200E+01  0.65212203081E+02  0.00000000000E+00 0. -1.
         -2    1    6    6    0  503  0.21401639813E+02 -0.32248054280E+02 -0.11061681642E+03  0.11719235157E+03  0.00000000000E+00 0.  1.
<mgrwt>
<rscale>  0 0.46887705E+03</rscale>
<asrwt>0</asrwt>
<pdfrwt beam="1">  1        2 0.10533180E+00 0.46887705E+03</pdfrwt>
<pdfrwt beam="2">  1       -2 0.89222090E-01 0.46887705E+03</pdfrwt>
<totfact> 0.47261341E+01</totfact>
</mgrwt>
</event>
<event>
12    1  0.8033771E-008  0.1180577E+04  0.7818608E-02  0.9130029E-01
         -2   -1    0    0    0  501 -0.00000000000E+00  0.00000000000E+00  0.13147107341E+04  0.13147107341E+04  0.00000000000E+00 0.  1.
          2   -1    0    0  501    0  0.00000000000E+00 -0.00000000000E+00 -0.15519269378E+04  0.15519269378E+04  0.00000000000E+00 0. -1.
         23    2    1    2    0    0  0.10865854224E+02 -0.11721632692E+04  0.58603130741E+03  0.13136793675E+04  0.90752360423E+02 0.  0.
    5000000    2    1    2    0    0 -0.10865854224E+02  0.11721632692E+04 -0.82324751115E+03  0.15529583044E+04  0.59988185020E+03 0.  0.
         23    2    4    4    0    0  0.93657884087E+01  0.42301731291E+03 -0.64635283674E+03  0.77769685349E+03  0.89493247520E+02 0.  0.
         23    2    4    4    0    0 -0.20231642633E+02  0.74914595628E+03 -0.17689467441E+03  0.77526145092E+03  0.90053363453E+02 0.  0.
          4    1    3    3  502    0 -0.29311414312E+02 -0.91017621402E+03  0.45737767847E+03  0.10190555629E+04  0.00000000000E+00 0.  1.
         -4    1    3    3    0  502  0.40177268537E+02 -0.26198705517E+03  0.12865362894E+03  0.29462380458E+03  0.00000000000E+00 0. -1.
         15    1    5    5    0    0 -0.32445337708E+02  0.86791197012E+02 -0.11807644595E+03  0.15010202076E+03  0.17770000000E+01 0.  1.
        -15    1    5    5    0    0  0.41811126117E+02  0.33622611590E+03 -0.52827639079E+03  0.62759483274E+03  0.17770000000E+01 0. -1.
          1    1    6    6  503    0 -0.50778133668E+02  0.35222248354E+03 -0.65149731477E+02  0.36177836348E+03  0.00000000000E+00 0. -1.
         -1    1    6    6    0  503  0.30546491035E+02  0.39692347274E+03 -0.11174494293E+03  0.41348308744E+03  0.00000000000E+00 0.  1.
<mgrwt>
<rscale>  0 0.11805770E+04</rscale>
<asrwt>0</asrwt>
<pdfrwt beam="1">  1        2 0.23875799E+00 0.11805770E+04</pdfrwt>
<pdfrwt beam="2">  1       -2 0.20226319E+00 0.11805770E+04</pdfrwt>
<totfact> 0.14828143E+00</totfact>
</mgrwt>
</event>
<event>
12    1  0.8033771E-008  0.8947223E+03  0.7818608E-02  0.9432203E-01
          2   -1    0    0  501    0  0.00000000000E+00  0.00000000000E+00  0.17698114550E+04  0.17698114550E+04  0.00000000000E+00 0. -1.
         -2   -1    0    0    0  501 -0.00000000000E+00 -0.00000000000E+00 -0.56364936623E+03  0.56364936623E+03  0.00000000000E+00 0.  1.
         23    2    1    2    0    0  0.52388368469E+02 -0.80624095057E+03  0.70669975415E+02  0.81618158335E+03  0.91592139640E+02 0.  0.
    5000000    2    1    2    0    0 -0.52388368469E+02  0.80624095057E+03  0.11354921134E+04  0.15172792379E+04  0.60002077853E+03 0.  0.
         23    2    4    4    0    0  0.22692488193E+03  0.18062537893E+03  0.45597319184E+03  0.54798889012E+03  0.90883675445E+02 0.  0.
         23    2    4    4    0    0 -0.27931325040E+03  0.62561557164E+03  0.67951892151E+03  0.96929034776E+03  0.91471734620E+02 0.  0.
          3    1    3    3  502    0  0.31495155729E+02 -0.76629030533E+03  0.76406727884E+02  0.77073391319E+03  0.00000000000E+00 0. -1.
         -3    1    3    3    0  502  0.20893212741E+02 -0.39950645238E+02 -0.57367524690E+01  0.45447670154E+02  0.00000000000E+00 0.  1.
         15    1    5    5    0    0  0.73584787857E+02  0.75940682858E+02  0.95453151156E+02  0.14246462758E+03  0.17770000000E+01 0. -1.
        -15    1    5    5    0    0  0.15334009407E+03  0.10468469607E+03  0.36052004069E+03  0.40552426254E+03  0.17770000000E+01 0.  1.
          4    1    6    6  503    0 -0.20058461693E+03  0.40965985400E+03  0.50634113592E+03  0.68149595043E+03  0.00000000000E+00 0.  1.
         -4    1    6    6    0  503 -0.78728633467E+02  0.21595571765E+03  0.17317778559E+03  0.28779439733E+03  0.00000000000E+00 0. -1.
<mgrwt>
<rscale>  0 0.89472235E+03</rscale>
<asrwt>0</asrwt>
<pdfrwt beam="1">  1        2 0.27227868E+00 0.89472235E+03</pdfrwt>
<pdfrwt beam="2">  1       -2 0.86715288E-01 0.89472235E+03</pdfrwt>
<totfact> 0.10434983E+01</totfact>
</mgrwt>
</event>
<event>
12    1  0.1064264E-007  0.6730426E+03  0.7818608E-02  0.9764477E-01
          2   -1    0    0  501    0  0.00000000000E+00  0.00000000000E+00  0.10433222046E+04  0.10433222046E+04  0.00000000000E+00 0. -1.
         -2   -1    0    0    0  501 -0.00000000000E+00 -0.00000000000E+00 -0.88078530051E+03  0.88078530051E+03  0.00000000000E+00 0.  1.
         23    2    1    2    0    0 -0.21796791510E+03 -0.51903728237E+03  0.72879173907E+03  0.92537447472E+03  0.90943977477E+02 0.  0.
    5000000    2    1    2    0    0  0.21796791510E+03  0.51903728237E+03 -0.56625483501E+03  0.99873303036E+03  0.59992784172E+03 0.  0.
         23    2    4    4    0    0  0.25822066241E+03  0.67719912568E+01 -0.31985102030E+03  0.42127110270E+03  0.91874351278E+02 0.  0.
         23    2    4    4    0    0 -0.40252747309E+02  0.51226529111E+03 -0.24640381470E+03  0.57746192766E+03  0.93335019437E+02 0.  0.
          1    1    3    3  502    0 -0.75382104269E+02 -0.22708101546E+03  0.37679098400E+03  0.44634033523E+03  0.00000000000E+00 0. -1.
         -1    1    3    3    0  502 -0.14258581083E+03 -0.29195626691E+03  0.35200075507E+03  0.47903413950E+03  0.00000000000E+00 0.  1.
         15    1    5    5    0    0  0.15829050359E+03  0.29559135802E+02 -0.13603869754E+03  0.21080633528E+03  0.17770000000E+01 0. -1.
        -15    1    5    5    0    0  0.99930158818E+02 -0.22787144545E+02 -0.18381232277E+03  0.21046476743E+03  0.17770000000E+01 0.  1.
          3    1    6    6  503    0 -0.59727869748E+02  0.37939385770E+03 -0.21259517920E+03  0.43898044137E+03  0.00000000000E+00 0. -1.
         -3    1    6    6    0  503  0.19475122439E+02  0.13287143341E+03 -0.33808635502E+02  0.13848148629E+03  0.00000000000E+00 0.  1.
<mgrwt>
<rscale>  0 0.67304257E+03</rscale>
<asrwt>0</asrwt>
<pdfrwt beam="1">  1        2 0.16051111E+00 0.67304257E+03</pdfrwt>
<pdfrwt beam="2">  1       -2 0.13550543E+00 0.67304257E+03</pdfrwt>
<totfact> 0.94976655E+00</totfact>
</mgrwt>
</event>
<event>
12    1  0.8033771E-008  0.8602604E+03  0.7818608E-02  0.9476668E-01
         -2   -1    0    0    0  501 -0.00000000000E+00  0.00000000000E+00  0.59463418573E+03  0.59463418573E+03  0.00000000000E+00 0.  1.
          2   -1    0    0  501    0  0.00000000000E+00 -0.00000000000E+00 -0.17980039558E+04  0.17980039558E+04  0.00000000000E+00 0. -1.
         23    2    1    2    0    0 -0.62588308058E+03  0.54994214400E+03 -0.36408433257E+02  0.83902451608E+03  0.92035711876E+02 0.  0.
    5000000    2    1    2    0    0  0.62588308058E+03 -0.54994214400E+03 -0.11669613368E+04  0.15536136254E+04  0.59812251527E+03 0.  0.
         23    2    4    4    0    0  0.46045180783E+03 -0.23046726979E+03 -0.28402204005E+03  0.59575472364E+03  0.95520373342E+02 0.  0.
         23    2    4    4    0    0  0.16543127275E+03 -0.31947487421E+03 -0.88293929675E+03  0.95785890181E+03  0.92087853525E+02 0.  0.
          3    1    3    3  502    0 -0.10712527080E+03  0.99505675438E+02  0.28427653413E+02  0.14894742216E+03  0.00000000000E+00 0. -1.
         -3    1    3    3    0  502 -0.51875780978E+03  0.45043646857E+03 -0.64836086670E+02  0.69007709392E+03  0.00000000000E+00 0.  1.
         15    1    5    5    0    0  0.21060944758E+03 -0.87529597463E+02 -0.75268313746E+02  0.24017961326E+03  0.17770000000E+01 0. -1.
        -15    1    5    5    0    0  0.24984236025E+03 -0.14293767233E+03 -0.20875372631E+03  0.35557511038E+03  0.17770000000E+01 0.  1.
          1    1    6    6  503    0  0.10296825462E+03 -0.10139633265E+03 -0.34109247106E+03  0.37044264272E+03  0.00000000000E+00 0. -1.
         -1    1    6    6    0  503  0.62463018130E+02 -0.21807854156E+03 -0.54184682570E+03  0.58741625909E+03  0.00000000000E+00 0.  1.
<mgrwt>
<rscale>  0 0.86026044E+03</rscale>
<asrwt>0</asrwt>
<pdfrwt beam="1">  1        2 0.27661599E+00 0.86026044E+03</pdfrwt>
<pdfrwt beam="2">  1       -2 0.91482183E-01 0.86026044E+03</pdfrwt>
<totfact> 0.89381549E+00</totfact>
</mgrwt>
</event>
<event>
12    1  0.8033771E-008  0.9486632E+03  0.7818608E-02  0.9366714E-01
         -1   -1    0    0    0  501 -0.00000000000E+00  0.00000000000E+00  0.61406614159E+03  0.61406614159E+03  0.00000000000E+00 0.  1.
          1   -1    0    0  501    0  0.00000000000E+00 -0.00000000000E+00 -0.27985947580E+04  0.27985947580E+04  0.00000000000E+00 0. -1.
         23    2    1    2    0    0  0.68123972911E+03 -0.51755040741E+03 -0.22056440397E+04  0.23675008069E+04  0.90820967680E+02 0.  0.
    5000000    2    1    2    0    0 -0.68123972911E+03  0.51755040741E+03  0.21115423307E+02  0.10451600927E+04  0.59997313727E+03 0.  0.
         23    2    4    4    0    0 -0.22268524168E+03  0.52450576844E+03  0.32062800905E+01  0.57696950413E+03  0.90490388869E+02 0.  0.
         23    2    4    4    0    0 -0.45855448743E+03 -0.69553610252E+01  0.17909143216E+02  0.46819058852E+03  0.92526184295E+02 0.  0.
          3    1    3    3  502    0  0.27971947798E+03 -0.26914626198E+03 -0.10031185698E+04  0.10756066018E+04  0.00000000000E+00 0. -1.
         -3    1    3    3    0  502  0.40152025113E+03 -0.24840414544E+03 -0.12025254699E+04  0.12918942052E+04  0.00000000000E+00 0.  1.
         15    1    5    5    0    0 -0.45551252435E+02  0.21992218459E+03  0.31499000435E+01  0.22461915207E+03  0.17770000000E+01 0. -1.
        -15    1    5    5    0    0 -0.17713398924E+03  0.30458358384E+03  0.56380046987E-01  0.35235035207E+03  0.17770000000E+01 0.  1.
          2    1    6    6  503    0 -0.23846618290E+03  0.14592895856E+02 -0.33234890625E+02  0.24121283331E+03  0.00000000000E+00 0.  1.
         -2    1    6    6    0  503 -0.22008830453E+03 -0.21548256881E+02  0.51144033841E+02  0.22697775522E+03  0.00000000000E+00 0. -1.
<mgrwt>
<rscale>  0 0.94866320E+03</rscale>
<asrwt>0</asrwt>
<pdfrwt beam="1">  1        1 0.43055305E+00 0.94866320E+03</pdfrwt>
<pdfrwt beam="2">  1       -1 0.94471712E-01 0.94866320E+03</pdfrwt>
<totfact> 0.93559139E-01</totfact>
</mgrwt>
</event>
<event>
12    1  0.8033771E-008  0.7586537E+03  0.7818608E-02  0.9621871E-01
          2   -1    0    0  501    0  0.00000000000E+00  0.00000000000E+00  0.11934315481E+04  0.11934315481E+04  0.00000000000E+00 0. -1.
         -2   -1    0    0    0  501 -0.00000000000E+00 -0.00000000000E+00 -0.69157809659E+03  0.69157809659E+03  0.00000000000E+00 0.  1.
         23    2    1    2    0    0 -0.66740705546E+03 -0.11154454838E+03 -0.23113412207E+03  0.72088055094E+03  0.91495477444E+02 0.  0.
    5000000    2    1    2    0    0  0.66740705546E+03  0.11154454838E+03  0.73298757361E+03  0.11641290938E+04  0.60004283179E+03 0.  0.
         23    2    4    4    0    0  0.35605401610E+03 -0.17567407552E+03  0.57344406139E+03  0.70347938691E+03  0.91702306764E+02 0.  0.
         23    2    4    4    0    0  0.31135303936E+03  0.28721862390E+03  0.15954351222E+03  0.46064970688E+03  0.85491327776E+02 0.  0.
          1    1    3    3  502    0 -0.14930884821E+03 -0.48339442520E+02 -0.86840113490E+02  0.17936287010E+03  0.00000000000E+00 0. -1.
         -1    1    3    3    0  502 -0.51809820724E+03 -0.63205105855E+02 -0.14429400858E+03  0.54151768084E+03  0.00000000000E+00 0.  1.
         15    1    5    5    0    0  0.75560143739E+02 -0.82565408402E+02  0.15654408629E+03  0.19244633191E+03  0.17770000000E+01 0.  1.
        -15    1    5    5    0    0  0.28049387236E+03 -0.93108667122E+02  0.41689997510E+03  0.51103305499E+03  0.17770000000E+01 0. -1.
          1    1    6    6  503    0  0.23099435601E+03  0.25580020574E+03  0.14105224919E+03  0.37240820985E+03  0.00000000000E+00 0. -1.
         -1    1    6    6    0  503  0.80358683351E+02  0.31418418165E+02  0.18491263029E+02  0.88241497031E+02  0.00000000000E+00 0.  1.
<mgrwt>
<rscale>  0 0.75865365E+03</rscale>
<asrwt>0</asrwt>
<pdfrwt beam="1">  1        2 0.18360485E+00 0.75865365E+03</pdfrwt>
<pdfrwt beam="2">  1       -2 0.10639663E+00 0.75865365E+03</pdfrwt>
<totfact> 0.13859743E+01</totfact>
</mgrwt>
</event>
<event>
12    1  0.8033771E-008  0.7300015E+03  0.7818608E-02  0.9667258E-01
          1   -1    0    0  501    0  0.00000000000E+00  0.00000000000E+00  0.77205072011E+03  0.77205072011E+03  0.00000000000E+00 0. -1.
         -1   -1    0    0    0  501 -0.00000000000E+00 -0.00000000000E+00 -0.12351937659E+04  0.12351937659E+04  0.00000000000E+00 0.  1.
         23    2    1    2    0    0  0.53708857664E+03  0.39455235791E+03  0.38319602934E+03  0.77411130883E+03  0.90958338122E+02 0.  0.
    5000000    2    1    2    0    0 -0.53708857664E+03 -0.39455235791E+03 -0.84633907516E+03  0.12331331772E+04  0.60015989561E+03 0.  0.
         23    2    4    4    0    0 -0.13345354291E+03  0.85627650338E+02 -0.44989089965E+03  0.48541687358E+03  0.89920948311E+02 0.  0.
         23    2    4    4    0    0 -0.40363503373E+03 -0.48018000825E+03 -0.39644817551E+03  0.74771630363E+03  0.91730224450E+02 0.  0.
          1    1    3    3  502    0  0.94508219052E+02  0.33503961214E+02  0.74016656413E+02  0.12463059140E+03  0.00000000000E+00 0. -1.
         -1    1    3    3    0  502  0.44258035759E+03  0.36104839670E+03  0.30917937292E+03  0.64948071744E+03  0.00000000000E+00 0.  1.
         15    1    5    5    0    0 -0.10050429984E+02  0.91554133361E+01 -0.16589389257E+03  0.16645952679E+03  0.17770000000E+01 0.  1.
        -15    1    5    5    0    0 -0.12340311293E+03  0.76472237002E+02 -0.28399700708E+03  0.31895734679E+03  0.17770000000E+01 0. -1.
          3    1    6    6  503    0 -0.27366551249E+03 -0.28452066782E+03 -0.20582123310E+03  0.44520467556E+03  0.00000000000E+00 0. -1.
         -3    1    6    6    0  503 -0.12996952124E+03 -0.19565934042E+03 -0.19062694241E+03  0.30251162807E+03  0.00000000000E+00 0.  1.
<mgrwt>
<rscale>  0 0.73000153E+03</rscale>
<asrwt>0</asrwt>
<pdfrwt beam="1">  1        1 0.11877703E+00 0.73000153E+03</pdfrwt>
<pdfrwt beam="2">  1       -1 0.19002981E+00 0.73000153E+03</pdfrwt>
<totfact> 0.42997777E+00</totfact>
</mgrwt>
</event>
<event>
12    1  0.8033771E-008  0.4748155E+03  0.7818608E-02  0.1020570E+00
         -2   -1    0    0    0  501 -0.00000000000E+00  0.00000000000E+00  0.19765228442E+03  0.19765228442E+03  0.00000000000E+00 0.  1.
          2   -1    0    0  501    0  0.00000000000E+00 -0.00000000000E+00 -0.17204280809E+04  0.17204280809E+04  0.00000000000E+00 0. -1.
         23    2    1    2    0    0 -0.38622107657E+03  0.13201443011E+03 -0.74798261958E+03  0.85656169391E+03  0.87323573865E+02 0.  0.
    5000000    2    1    2    0    0  0.38622107657E+03 -0.13201443011E+03 -0.77479317692E+03  0.10615186714E+04  0.59993574076E+03 0.  0.
         23    2    4    4    0    0  0.20272247456E+03 -0.23909899226E+03 -0.76368284474E+03  0.83026723598E+03  0.88698737291E+02 0.  0.
         23    2    4    4    0    0  0.18349860200E+03  0.10708456214E+03 -0.11110332177E+02  0.23125143545E+03  0.90636342199E+02 0.  0.
          1    1    3    3  502    0 -0.28984333342E+03  0.12569764254E+03 -0.51263027535E+03  0.60216181752E+03  0.00000000000E+00 0. -1.
         -1    1    3    3    0  502 -0.96377743145E+02  0.63167875705E+01 -0.23535234422E+03  0.25439987640E+03  0.00000000000E+00 0.  1.
         15    1    5    5    0    0  0.17877360988E+03 -0.15513117203E+03 -0.51789184946E+03  0.56942146920E+03  0.17770000000E+01 0.  1.
        -15    1    5    5    0    0  0.23948864679E+02 -0.83967820229E+02 -0.24579099528E+03  0.26084576677E+03  0.17770000000E+01 0. -1.
          2    1    6    6  503    0  0.72145153280E+02  0.51394104903E+02  0.39330901857E+02  0.96918507012E+02  0.00000000000E+00 0. -1.
         -2    1    6    6    0  503  0.11135344872E+03  0.55690457242E+02 -0.50441234034E+02  0.13433292843E+03  0.00000000000E+00 0.  1.
<mgrwt>
<rscale>  0 0.47481554E+03</rscale>
<asrwt>0</asrwt>
<pdfrwt beam="1">  1        2 0.26468124E+00 0.47481554E+03</pdfrwt>
<pdfrwt beam="2">  1       -2 0.30408044E-01 0.47481554E+03</pdfrwt>
<totfact> 0.10086798E+02</totfact>
</mgrwt>
</event>
<event>
12    1  0.8033771E-008  0.1489919E+04  0.7818608E-02  0.8891184E-01
          2   -1    0    0  501    0  0.00000000000E+00  0.00000000000E+00  0.29402719470E+04  0.29402719470E+04  0.00000000000E+00 0.  1.
         -2   -1    0    0    0  501 -0.00000000000E+00 -0.00000000000E+00 -0.82997922239E+03  0.82997922239E+03  0.00000000000E+00 0. -1.
         23    2    1    2    0    0  0.14492872327E+04  0.20568115995E+03  0.60368970060E+03  0.15856431618E+04  0.84171013007E+02 0.  0.
    5000000    2    1    2    0    0 -0.14492872327E+04 -0.20568115995E+03  0.15066030240E+04  0.21846080076E+04  0.59993437355E+03 0.  0.
         23    2    4    4    0    0 -0.20445572322E+03  0.96731672383E+02  0.62034447234E+02  0.25166468155E+03  0.91256123630E+02 0.  0.
         23    2    4    4    0    0 -0.12448315095E+04 -0.30241283233E+03  0.14445685767E+04  0.19329433260E+04  0.91828756984E+02 0.  0.
          3    1    3    3  502    0  0.84665281503E+03  0.78227957936E+02  0.35180917630E+03  0.92016862538E+03  0.00000000000E+00 0. -1.
         -3    1    3    3    0  502  0.60263441767E+03  0.12745320201E+03  0.25188052431E+03  0.66547453639E+03  0.00000000000E+00 0.  1.
         15    1    5    5    0    0 -0.12923999446E+03  0.39526835709E+02 -0.58662928159E+01  0.13528827751E+03  0.17770000000E+01 0.  1.
        -15    1    5    5    0    0 -0.75215728752E+02  0.57204836674E+02  0.67900740050E+02  0.11637640405E+03  0.17770000000E+01 0. -1.
          3    1    6    6  503    0 -0.79849691543E+00  0.28840229044E+01  0.61567127993E+01  0.68454581972E+01  0.00000000000E+00 0. -1.
         -3    1    6    6    0  503 -0.12440330126E+04 -0.30529685524E+03  0.14384118639E+04  0.19260978678E+04  0.00000000000E+00 0.  1.
<mgrwt>
<rscale>  0 0.14899192E+04</rscale>
<asrwt>0</asrwt>
<pdfrwt beam="1">  1        2 0.45234953E+00 0.14899192E+04</pdfrwt>
<pdfrwt beam="2">  1       -2 0.12768911E+00 0.14899192E+04</pdfrwt>
<totfact> 0.82065309E-01</totfact>
</mgrwt>
</event>
<event>
12    1  0.8033771E-008  0.5599504E+03  0.7818608E-02  0.9992167E-01
          1   -1    0    0  501    0  0.00000000000E+00  0.00000000000E+00  0.13315253186E+04  0.13315253186E+04  0.00000000000E+00 0. -1.
         -1   -1    0    0    0  501 -0.00000000000E+00 -0.00000000000E+00 -0.24091343190E+03  0.24091343190E+03  0.00000000000E+00 0.  1.
         23    2    1    2    0    0 -0.35005926779E+03  0.19533463120E+03  0.38653276492E+03  0.56425323805E+03  0.90978179669E+02 0.  0.
    5000000    2    1    2    0    0  0.35005926779E+03 -0.19533463120E+03  0.70407912175E+03  0.10081855124E+04  0.60001125709E+03 0.  0.
         23    2    4    4    0    0 -0.67904417316E+02 -0.25921994870E+03  0.20764294510E+03  0.35012903698E+03  0.87571446224E+02 0.  0.
         23    2    4    4    0    0  0.41796368511E+03  0.63885317495E+02  0.49643617665E+03  0.65805647543E+03  0.88399499481E+02 0.  0.
          3    1    3    3  502    0 -0.17137882329E+03  0.13632909585E+03  0.16893578133E+03  0.27657841865E+03  0.00000000000E+00 0. -1.
         -3    1    3    3    0  502 -0.17868044450E+03  0.59005535352E+02  0.21759698359E+03  0.28767481939E+03  0.00000000000E+00 0.  1.
         15    1    5    5    0    0 -0.88538134104E+02 -0.21652121663E+03  0.18038197794E+03  0.29540015934E+03  0.17770000000E+01 0. -1.
        -15    1    5    5    0    0  0.20633716788E+02 -0.42698732068E+02  0.27260967155E+02  0.54728877642E+02  0.17770000000E+01 0.  1.
          4    1    6    6  503    0  0.38438990777E+03  0.82241483335E+02  0.44188594379E+03  0.59142408650E+03  0.00000000000E+00 0. -1.
         -4    1    6    6    0  503  0.33573777338E+02 -0.18356165840E+02  0.54550232863E+02  0.66632388929E+02  0.00000000000E+00 0.  1.
<mgrwt>
<rscale>  0 0.55995045E+03</rscale>
<asrwt>0</asrwt>
<pdfrwt beam="1">  1        1 0.20485004E+00 0.55995045E+03</pdfrwt>
<pdfrwt beam="2">  1       -1 0.37063606E-01 0.55995045E+03</pdfrwt>
<totfact> 0.62979207E+01</totfact>
</mgrwt>
</event>
<event>
12    1  0.8033771E-008  0.9052257E+03  0.7818608E-02  0.9419072E-01
          1   -1    0    0  501    0  0.00000000000E+00  0.00000000000E+00  0.48677087845E+03  0.48677087845E+03  0.00000000000E+00 0.  1.
         -1   -1    0    0    0  501 -0.00000000000E+00 -0.00000000000E+00 -0.18318131885E+04  0.18318131885E+04  0.00000000000E+00 0. -1.
         23    2    1    2    0    0  0.76474067660E+03 -0.36116166906E+03 -0.56412984145E+03  0.10204442505E+04  0.88305926770E+02 0.  0.
    5000000    2    1    2    0    0 -0.76474067660E+03  0.36116166906E+03 -0.78091246863E+03  0.12981398165E+04  0.60006386816E+03 0.  0.
         23    2    4    4    0    0 -0.76057466042E+03  0.42153743204E+03 -0.52601975575E+03  0.10203181136E+04  0.90469049026E+02 0.  0.
         23    2    4    4    0    0 -0.41660161746E+01 -0.60375762979E+02 -0.25489271287E+03  0.27782170288E+03  0.92477105656E+02 0.  0.
          3    1    3    3  502    0  0.48269021262E+03 -0.19238207442E+03 -0.31097086914E+03  0.60556055466E+03  0.00000000000E+00 0. -1.
         -3    1    3    3    0  502  0.28205046398E+03 -0.16877959464E+03 -0.25315897231E+03  0.41488369583E+03  0.00000000000E+00 0.  1.
         15    1    5    5    0    0 -0.43520486908E+03  0.26517658573E+03 -0.26167843975E+03  0.57288800236E+03  0.17770000000E+01 0.  1.
        -15    1    5    5    0    0 -0.32536979134E+03  0.15636084631E+03 -0.26434131601E+03  0.44743011125E+03  0.17770000000E+01 0. -1.
          1    1    6    6  503    0 -0.75498496840E+01  0.14614178378E+02 -0.13750011314E+03  0.13848052409E+03  0.00000000000E+00 0. -1.
         -1    1    6    6    0  503  0.33838335095E+01 -0.74989941358E+02 -0.11739259974E+03  0.13934117879E+03  0.00000000000E+00 0.  1.
<mgrwt>
<rscale>  0 0.90522573E+03</rscale>
<asrwt>0</asrwt>
<pdfrwt beam="1">  1        1 0.74887829E-01 0.90522573E+03</pdfrwt>
<pdfrwt beam="2">  1       -1 0.28181741E+00 0.90522573E+03</pdfrwt>
<totfact> 0.20414637E+00</totfact>
</mgrwt>
</event>
<event>
12    1  0.8033771E-008  0.7521246E+03  0.7818608E-02  0.9632023E-01
          1   -1    0    0  501    0  0.00000000000E+00  0.00000000000E+00  0.14000319699E+04  0.14000319699E+04  0.00000000000E+00 0. -1.
         -1   -1    0    0    0  501 -0.00000000000E+00 -0.00000000000E+00 -0.43929543526E+03  0.43929543526E+03  0.00000000000E+00 0.  1.
         23    2    1    2    0    0 -0.65474838353E+03  0.80756626785E+02  0.50878666396E+03  0.83957107355E+03  0.10391650312E+03 0.  0.
    5000000    2    1    2    0    0  0.65474838353E+03 -0.80756626785E+02  0.45194987066E+03  0.99975633159E+03  0.60003079794E+03 0.  0.
         23    2    4    4    0    0  0.72420650521E+03  0.47929200346E+01  0.44289176383E+03  0.85366772374E+03  0.89985742297E+02 0.  0.
         23    2    4    4    0    0 -0.69458121685E+02 -0.85549546820E+02  0.90581068276E+01  0.14608860785E+03  0.95481288301E+02 0.  0.
          3    1    3    3  502    0 -0.55294690497E+03  0.71342312370E+02  0.47334737490E+03  0.73136703684E+03  0.00000000000E+00 0. -1.
         -3    1    3    3    0  502 -0.10180147856E+03  0.94143144150E+01  0.35439289067E+02  0.10820403672E+03  0.00000000000E+00 0.  1.
         15    1    5    5    0    0  0.41070964199E+03  0.22738482704E+02  0.29735855694E+03  0.50756745142E+03  0.17770000000E+01 0. -1.
        -15    1    5    5    0    0  0.31349686322E+03 -0.17945562669E+02  0.14553320689E+03  0.34610027233E+03  0.17770000000E+01 0.  1.
          4    1    6    6  503    0 -0.63696080733E+02 -0.44565719200E+02  0.46241107197E+02  0.90451832615E+02  0.00000000000E+00 0. -1.
         -4    1    6    6    0  503 -0.57620409511E+01 -0.40983827619E+02 -0.37183000369E+02  0.55636775236E+02  0.00000000000E+00 0.  1.
<mgrwt>
<rscale>  0 0.75212460E+03</rscale>
<asrwt>0</asrwt>
<pdfrwt beam="1">  1        1 0.21538953E+00 0.75212460E+03</pdfrwt>
<pdfrwt beam="2">  1       -1 0.67583914E-01 0.75212460E+03</pdfrwt>
<totfact> 0.17609285E+01</totfact>
</mgrwt>
</event>
<event>
12    1  0.8033771E-008  0.7044778E+03  0.7818608E-02  0.9709605E-01
         -2   -1    0    0    0  501 -0.00000000000E+00  0.00000000000E+00  0.35165211763E+03  0.35165211763E+03  0.00000000000E+00 0.  1.
          2   -1    0    0  501    0  0.00000000000E+00 -0.00000000000E+00 -0.20617875534E+04  0.20617875534E+04  0.00000000000E+00 0. -1.
         23    2    1    2    0    0 -0.83338247780E+02  0.57516055397E+03 -0.14069731914E+04  0.15248906217E+04  0.89235196899E+02 0.  0.
    5000000    2    1    2    0    0  0.83338247780E+02 -0.57516055397E+03 -0.30316224436E+03  0.88854904933E+03  0.59988093842E+03 0.  0.
         23    2    4    4    0    0 -0.24270185807E+03 -0.19056065766E+03 -0.97810126900E+02  0.33658715200E+03  0.92230872333E+02 0.  0.
         23    2    4    4    0    0  0.32604010585E+03 -0.38459989631E+03 -0.20535211746E+03  0.55196189733E+03  0.90957204781E+02 0.  0.
          4    1    3    3  502    0 -0.81779517792E+02  0.33659288370E+03 -0.75594938422E+03  0.83152999368E+03  0.00000000000E+00 0. -1.
         -4    1    3    3    0  502 -0.15587299880E+01  0.23856767027E+03 -0.65102380717E+03  0.69336062798E+03  0.00000000000E+00 0.  1.
         15    1    5    5    0    0 -0.18622717726E+03 -0.10291513931E+03 -0.92944897987E+02  0.23219388287E+03  0.17770000000E+01 0. -1.
        -15    1    5    5    0    0 -0.56474680804E+02 -0.87645518353E+02 -0.48652289127E+01  0.10439326913E+03  0.17770000000E+01 0.  1.
          3    1    6    6  503    0  0.24816648061E+03 -0.25560014787E+03 -0.10682744480E+03  0.37192760136E+03  0.00000000000E+00 0. -1.
         -3    1    6    6    0  503  0.77873625231E+02 -0.12899974844E+03 -0.98524672652E+02  0.18003429597E+03  0.00000000000E+00 0.  1.
<mgrwt>
<rscale>  0 0.70447784E+03</rscale>
<asrwt>0</asrwt>
<pdfrwt beam="1">  1        2 0.31719809E+00 0.70447784E+03</pdfrwt>
<pdfrwt beam="2">  1       -2 0.54100325E-01 0.70447784E+03</pdfrwt>
<totfact> 0.20693544E+01</totfact>
</mgrwt>
</event>
<event>
12    1  0.8033771E-008  0.1038623E+04  0.7818608E-02  0.9267169E-01
         -1   -1    0    0    0  501 -0.00000000000E+00  0.00000000000E+00  0.63140485934E+03  0.63140485934E+03  0.00000000000E+00 0.  1.
          1   -1    0    0  501    0  0.00000000000E+00 -0.00000000000E+00 -0.19624482214E+04  0.19624482214E+04  0.00000000000E+00 0. -1.
         23    2    1    2    0    0  0.17724198534E+03 -0.94444432166E+03 -0.18560844310E+03  0.98290054464E+03  0.90847060650E+02 0.  0.
    5000000    2    1    2    0    0 -0.17724198534E+03  0.94444432166E+03 -0.11454349189E+04  0.16109525361E+04  0.59979756739E+03 0.  0.
         23    2    4    4    0    0  0.18531511778E+03  0.51503988313E+03 -0.46339291308E+03  0.72264092150E+03  0.88708147614E+02 0.  0.
         23    2    4    4    0    0 -0.36255710311E+03  0.42940443853E+03 -0.68204200585E+03  0.88831161455E+03  0.89891056037E+02 0.  0.
          3    1    3    3  502    0  0.11371763961E+03 -0.79107017356E+03 -0.15241304735E+03  0.81360522249E+03  0.00000000000E+00 0. -1.
         -3    1    3    3    0  502  0.63524345725E+02 -0.15337414810E+03 -0.33195395750E+02  0.16929532215E+03  0.00000000000E+00 0.  1.
         15    1    5    5    0    0  0.13938610966E+03  0.34800087548E+03 -0.26407967280E+03  0.45855678843E+03  0.17770000000E+01 0. -1.
        -15    1    5    5    0    0  0.45929008119E+02  0.16703900765E+03 -0.19931324028E+03  0.26408413308E+03  0.17770000000E+01 0.  1.
          3    1    6    6  503    0 -0.12645262125E+03  0.11666073824E+03 -0.26593651135E+03  0.31673683294E+03  0.00000000000E+00 0. -1.
         -3    1    6    6    0  503 -0.23610448186E+03  0.31274370030E+03 -0.41610549450E+03  0.57157478162E+03  0.00000000000E+00 0.  1.
<mgrwt>
<rscale>  0 0.10386230E+04</rscale>
<asrwt>0</asrwt>
<pdfrwt beam="1">  1        1 0.30191511E+00 0.10386230E+04</pdfrwt>
<pdfrwt beam="2">  1       -1 0.97139210E-01 0.10386230E+04</pdfrwt>
<totfact> 0.32354727E+00</totfact>
</mgrwt>
</event>
<event>
12    1  0.8033771E-008  0.5810968E+03  0.7818608E-02  0.9945419E-01
         -2   -1    0    0    0  501 -0.00000000000E+00  0.00000000000E+00  0.52818112305E+03  0.52818112305E+03  0.00000000000E+00 0.  1.
          2   -1    0    0  501    0  0.00000000000E+00 -0.00000000000E+00 -0.70818377381E+03  0.70818377381E+03  0.00000000000E+00 0. -1.
         23    2    1    2    0    0  0.42784047835E+03  0.42423233119E+02  0.93039389528E+02  0.44940632025E+03  0.91991885807E+02 0.  0.
    5000000    2    1    2    0    0 -0.42784047835E+03 -0.42423233119E+02 -0.27304204029E+03  0.78695857660E+03  0.59992052799E+03 0.  0.
         23    2    4    4    0    0 -0.22556234532E+03 -0.30446239524E+03 -0.10036459601E+03  0.40288173340E+03  0.93085537150E+02 0.  0.
         23    2    4    4    0    0 -0.20227813302E+03  0.26203916212E+03 -0.17267744428E+03  0.38407684321E+03  0.90091931590E+02 0.  0.
          3    1    3    3  502    0  0.25529650844E+03  0.35947493665E+02  0.10504625046E+02  0.25802882914E+03  0.00000000000E+00 0. -1.
         -3    1    3    3    0  502  0.17254396991E+03  0.64757394535E+01  0.82534764482E+02  0.19137749111E+03  0.00000000000E+00 0.  1.
         15    1    5    5    0    0 -0.91652838468E+02 -0.54822447187E+02 -0.31002867646E+02  0.11122085706E+03  0.17770000000E+01 0. -1.
        -15    1    5    5    0    0 -0.13390950686E+03 -0.24963994806E+03 -0.69361728360E+02  0.29166087633E+03  0.17770000000E+01 0.  1.
          4    1    6    6  503    0  0.32539018973E+01 -0.41693509347E+01 -0.80379120795E+01  0.96218187143E+01  0.00000000000E+00 0. -1.
         -4    1    6    6    0  503 -0.20553203492E+03  0.26620851306E+03 -0.16463953220E+03  0.37445502449E+03  0.00000000000E+00 0.  1.
<mgrwt>
<rscale>  0 0.58109683E+03</rscale>
<asrwt>0</asrwt>
<pdfrwt beam="1">  1        2 0.10895135E+00 0.58109683E+03</pdfrwt>
<pdfrwt beam="2">  1       -2 0.81258634E-01 0.58109683E+03</pdfrwt>
<totfact> 0.55343219E+01</totfact>
</mgrwt>
</event>
<event>
12    1  0.8033771E-008  0.2138332E+04  0.7818608E-02  0.8544543E-01
          1   -1    0    0  501    0  0.00000000000E+00  0.00000000000E+00  0.25222936892E+04  0.25222936892E+04  0.00000000000E+00 0. -1.
         -1   -1    0    0    0  501 -0.00000000000E+00 -0.00000000000E+00 -0.24408303291E+04  0.24408303291E+04  0.00000000000E+00 0.  1.
         23    2    1    2    0    0 -0.86059419577E+03  0.19199658942E+04 -0.12037035796E+04  0.24256928655E+04  0.90510584306E+02 0.  0.
    5000000    2    1    2    0    0  0.86059419577E+03 -0.19199658942E+04  0.12851669396E+04  0.25374311528E+04  0.60000948981E+03 0.  0.
         23    2    4    4    0    0  0.82574119648E+02 -0.80043293236E+03  0.35349352287E+03  0.88365384338E+03  0.91515461872E+02 0.  0.
         23    2    4    4    0    0  0.77802007612E+03 -0.11195329618E+04  0.93167341676E+03  0.16537773094E+04  0.91075475340E+02 0.  0.
          3    1    3    3  502    0 -0.21848202983E+03  0.53999577478E+03 -0.37305903532E+03  0.69173902447E+03  0.00000000000E+00 0. -1.
         -3    1    3    3    0  502 -0.64211216594E+03  0.13799701194E+04 -0.83064454424E+03  0.17339538411E+04  0.00000000000E+00 0.  1.
         15    1    5    5    0    0  0.42707168710E+02 -0.19917019562E+03  0.53977460327E+02  0.21073536257E+03  0.17770000000E+01 0. -1.
        -15    1    5    5    0    0  0.39866950938E+02 -0.60126273674E+03  0.29951606255E+03  0.67291848081E+03  0.17770000000E+01 0.  1.
          2    1    6    6  503    0  0.49088824429E+03 -0.63545945190E+03  0.52433302332E+03  0.95901256651E+03  0.00000000000E+00 0. -1.
         -2    1    6    6    0  503  0.28713183183E+03 -0.48407350990E+03  0.40734039344E+03  0.69476474289E+03  0.00000000000E+00 0.  1.
<mgrwt>
<rscale>  0 0.21383322E+04</rscale>
<asrwt>0</asrwt>
<pdfrwt beam="1">  1        1 0.38804518E+00 0.21383322E+04</pdfrwt>
<pdfrwt beam="2">  1       -1 0.37551236E+00 0.21383322E+04</pdfrwt>
<totfact> 0.11941718E-02</totfact>
</mgrwt>
</event>
<event>
12    1  0.8033771E-008  0.1034312E+04  0.7818608E-02  0.9271692E-01
          1   -1    0    0  501    0  0.00000000000E+00  0.00000000000E+00  0.25235412914E+04  0.25235412914E+04  0.00000000000E+00 0. -1.
         -1   -1    0    0    0  501 -0.00000000000E+00 -0.00000000000E+00 -0.43992407442E+03  0.43992407442E+03  0.00000000000E+00 0.  1.
         23    2    1    2    0    0 -0.94345823641E+03  0.12259081748E+03  0.11932975856E+04  0.15289319765E+04  0.92368331792E+02 0.  0.
    5000000    2    1    2    0    0  0.94345823641E+03 -0.12259081748E+03  0.89031963139E+03  0.14345333893E+04  0.60006253553E+03 0.  0.
         23    2    4    4    0    0  0.86557865144E+02 -0.22449837788E+03  0.23471906310E+03  0.34699932978E+03  0.86160957515E+02 0.  0.
         23    2    4    4    0    0  0.85690037127E+03  0.10190756040E+03  0.65560056829E+03  0.10875340595E+04  0.90856085564E+02 0.  0.
          4    1    3    3  502    0 -0.65776040322E+03  0.11284500798E+03  0.78218013156E+03  0.10281967234E+04  0.00000000000E+00 0.  1.
         -4    1    3    3    0  502 -0.28569783319E+03  0.97458094964E+01  0.41111745402E+03  0.50073525309E+03  0.00000000000E+00 0. -1.
         15    1    5    5    0    0  0.50132095862E+00 -0.77635881331E+02  0.11548435057E+03  0.13916671422E+03  0.17770000000E+01 0. -1.
        -15    1    5    5    0    0  0.86056544185E+02 -0.14686249655E+03  0.11923471253E+03  0.20783261556E+03  0.17770000000E+01 0.  1.
          2    1    6    6  503    0  0.34968985982E+03 -0.23116792901E+01  0.27587562013E+03  0.44541632178E+03  0.00000000000E+00 0. -1.
         -2    1    6    6    0  503  0.50721051144E+03  0.10421923969E+03  0.37972494816E+03  0.64211773772E+03  0.00000000000E+00 0.  1.
<mgrwt>
<rscale>  0 0.10343121E+04</rscale>
<asrwt>0</asrwt>
<pdfrwt beam="1">  1        1 0.38823711E+00 0.10343121E+04</pdfrwt>
<pdfrwt beam="2">  1       -1 0.67680628E-01 0.10343121E+04</pdfrwt>
<totfact> 0.29255715E+00</totfact>
</mgrwt>
</event>
<event>
12    1  0.8033771E-008  0.1151240E+04  0.7818608E-02  0.9156640E-01
         -2   -1    0    0    0  501 -0.00000000000E+00  0.00000000000E+00  0.12404271479E+04  0.12404271479E+04  0.00000000000E+00 0.  1.
          2   -1    0    0  501    0  0.00000000000E+00 -0.00000000000E+00 -0.17431175196E+04  0.17431175196E+04  0.00000000000E+00 0. -1.
         23    2    1    2    0    0 -0.47865323545E+03  0.10378491245E+04 -0.10748915597E+04  0.15715959222E+04  0.91006331869E+02 0.  0.
    5000000    2    1    2    0    0  0.47865323545E+03 -0.10378491245E+04  0.57220118795E+03  0.14119487453E+04  0.59995444400E+03 0.  0.
         23    2    4    4    0    0  0.32892393234E+03 -0.50078015609E+03  0.59102994883E+03  0.84607351623E+03  0.86903834449E+02 0.  0.
         23    2    4    4    0    0  0.14972930310E+03 -0.53706896846E+03 -0.18828760879E+02  0.56587522912E+03  0.94859430793E+02 0.  0.
          2    1    3    3  502    0 -0.35492021399E+03  0.72296825385E+03 -0.80613460157E+03  0.11395193944E+04  0.00000000000E+00 0. -1.
         -2    1    3    3    0  502 -0.12373302145E+03  0.31488087069E+03 -0.26875695811E+03  0.43207652778E+03  0.00000000000E+00 0.  1.
         15    1    5    5    0    0  0.13653023858E+03 -0.23791093602E+03  0.21473717532E+03  0.34836379220E+03  0.17770000000E+01 0. -1.
        -15    1    5    5    0    0  0.19239369376E+03 -0.26286922006E+03  0.37629277351E+03  0.49770972402E+03  0.17770000000E+01 0.  1.
          1    1    6    6  503    0  0.53082665169E+02 -0.13217344350E+03  0.33521840177E+02  0.14632601367E+03  0.00000000000E+00 0. -1.
         -1    1    6    6    0  503  0.96646637935E+02 -0.40489552496E+03 -0.52350601056E+02  0.41954921545E+03  0.00000000000E+00 0.  1.
<mgrwt>
<rscale>  0 0.11512402E+04</rscale>
<asrwt>0</asrwt>
<pdfrwt beam="1">  1        2 0.26817192E+00 0.11512402E+04</pdfrwt>
<pdfrwt beam="2">  1       -2 0.19083495E+00 0.11512402E+04</pdfrwt>
<totfact> 0.13858218E+00</totfact>
</mgrwt>
</event>
<event>
12    1  0.8033771E-008  0.7260843E+03  0.7818608E-02  0.9673636E-01
         -1   -1    0    0    0  501 -0.00000000000E+00  0.00000000000E+00  0.15190219690E+04  0.15190219690E+04  0.00000000000E+00 0.  1.
          1   -1    0    0  501    0  0.00000000000E+00 -0.00000000000E+00 -0.46371894757E+03  0.46371894757E+03  0.00000000000E+00 0. -1.
         23    2    1    2    0    0  0.71780113602E+03  0.68592085521E+02  0.58545391670E+03  0.93332472357E+03  0.91626447987E+02 0.  0.
    5000000    2    1    2    0    0 -0.71780113602E+03 -0.68592085521E+02  0.46984910475E+03  0.10494161930E+04  0.60047716018E+03 0.  0.
         23    2    4    4    0    0 -0.53612818705E+03 -0.57749922930E+02  0.98199887923E+01  0.54627112315E+03  0.86874744659E+02 0.  0.
         23    2    4    4    0    0 -0.18167294897E+03 -0.10842162592E+02  0.46002911596E+03  0.50314506988E+03  0.91681846285E+02 0.  0.
          3    1    3    3  502    0  0.24012289212E+03  0.59600885128E+02  0.16994634666E+03  0.30015500924E+03  0.00000000000E+00 0. -1.
         -3    1    3    3    0  502  0.47767824390E+03  0.89912003939E+01  0.41550757004E+03  0.63316971433E+03  0.00000000000E+00 0.  1.
         15    1    5    5    0    0 -0.39350487275E+03 -0.33675164439E+02  0.44713474903E+02  0.39747019278E+03  0.17770000000E+01 0. -1.
        -15    1    5    5    0    0 -0.14262331430E+03 -0.24074758491E+02 -0.34893486111E+02  0.14880093037E+03  0.17770000000E+01 0.  1.
          3    1    6    6  503    0 -0.71333830718E+02 -0.26203679316E+02  0.29059776932E+03  0.30037012459E+03  0.00000000000E+00 0. -1.
         -3    1    6    6    0  503 -0.11033911825E+03  0.15361516724E+02  0.16943134664E+03  0.20277494529E+03  0.00000000000E+00 0.  1.
<mgrwt>
<rscale>  0 0.72608435E+03</rscale>
<asrwt>0</asrwt>
<pdfrwt beam="1">  1        1 0.71341377E-01 0.72608435E+03</pdfrwt>
<pdfrwt beam="2">  1       -1 0.23369569E+00 0.72608435E+03</pdfrwt>
<totfact> 0.45718809E+00</totfact>
</mgrwt>
</event>
<event>
12    1  0.8033771E-008  0.6205986E+03  0.7818608E-02  0.9863569E-01
         -1   -1    0    0    0  501 -0.00000000000E+00  0.00000000000E+00  0.43821771786E+03  0.43821771786E+03  0.00000000000E+00 0.  1.
          1   -1    0    0  501    0  0.00000000000E+00 -0.00000000000E+00 -0.10826420399E+04  0.10826420399E+04  0.00000000000E+00 0. -1.
         23    2    1    2    0    0  0.47637521703E+03  0.27901849224E+03 -0.30663196439E+03  0.63799428576E+03  0.90713177970E+02 0.  0.
    5000000    2    1    2    0    0 -0.47637521703E+03 -0.27901849224E+03 -0.33779235768E+03  0.88286547204E+03  0.60046906531E+03 0.  0.
         23    2    4    4    0    0 -0.40224136613E+03 -0.35860332420E+03 -0.34097081724E+02  0.54788293913E+03  0.92836648243E+02 0.  0.
         23    2    4    4    0    0 -0.74133850900E+02  0.79584831961E+02 -0.30369527596E+03  0.33498253291E+03  0.90293429369E+02 0.  0.
          1    1    3    3  502    0  0.88944128709E+02  0.15403194613E+02 -0.60605743202E+02  0.10872613552E+03  0.00000000000E+00 0. -1.
         -1    1    3    3    0  502  0.38743108832E+03  0.26361529762E+03 -0.24602622119E+03  0.52926815024E+03  0.00000000000E+00 0.  1.
         15    1    5    5    0    0 -0.62590714011E+02 -0.94708792624E+02  0.16747458566E+02  0.11476492486E+03  0.17770000000E+01 0. -1.
        -15    1    5    5    0    0 -0.33965065212E+03 -0.26389453157E+03 -0.50844540290E+02  0.43311801427E+03  0.17770000000E+01 0.  1.
          1    1    6    6  503    0 -0.12243824043E+02  0.75660400007E+02 -0.13485659364E+03  0.15511514498E+03  0.00000000000E+00 0. -1.
         -1    1    6    6    0  503 -0.61890026857E+02  0.39244319538E+01 -0.16883868232E+03  0.17986738792E+03  0.00000000000E+00 0.  1.
<mgrwt>
<rscale>  0 0.62059864E+03</rscale>
<asrwt>0</asrwt>
<pdfrwt beam="1">  1        1 0.16656031E+00 0.62059864E+03</pdfrwt>
<pdfrwt beam="2">  1       -1 0.67418111E-01 0.62059864E+03</pdfrwt>
<totfact> 0.30412455E+01</totfact>
</mgrwt>
</event>
<event>
12    1  0.8033771E-008  0.5971849E+03  0.7818608E-02  0.9911264E-01
         -1   -1    0    0    0  501 -0.00000000000E+00  0.00000000000E+00  0.67237996294E+03  0.67237996294E+03  0.00000000000E+00 0.  1.
          1   -1    0    0  501    0  0.00000000000E+00 -0.00000000000E+00 -0.57661139908E+03  0.57661139908E+03  0.00000000000E+00 0. -1.
         23    2    1    2    0    0 -0.44760757407E+02 -0.46644750517E+03 -0.26916718074E+02  0.47801008864E+03  0.90511516687E+02 0.  0.
    5000000    2    1    2    0    0  0.44760757407E+02  0.46644750517E+03  0.12268528194E+03  0.77098127338E+03  0.59981967708E+03 0.  0.
         23    2    4    4    0    0  0.90787080203E+02 -0.10981834936E+03  0.66943938855E+02  0.18303614982E+03  0.93372251782E+02 0.  0.
         23    2    4    4    0    0 -0.46026322796E+02  0.57626585453E+03  0.55741343081E+02  0.58794512356E+03  0.91496521804E+02 0.  0.
          1    1    3    3  502    0 -0.51083602394E+02 -0.18427530498E+03 -0.40397343057E+02  0.19544530638E+03  0.00000000000E+00 0. -1.
         -1    1    3    3    0  502  0.63228449866E+01 -0.28217220018E+03  0.13480624984E+02  0.28256478226E+03  0.00000000000E+00 0.  1.
         15    1    5    5    0    0  0.36358394252E+02 -0.37830657820E+02  0.75942843864E+02  0.92323154012E+02  0.17770000000E+01 0.  1.
        -15    1    5    5    0    0  0.54428685951E+02 -0.71987691543E+02 -0.89989050083E+01  0.90712995808E+02  0.17770000000E+01 0. -1.
          2    1    6    6  503    0 -0.15687783539E+02  0.23595855584E+03 -0.22172738549E+02  0.23751668775E+03  0.00000000000E+00 0. -1.
         -2    1    6    6    0  503 -0.30338539257E+02  0.34030729869E+03  0.77914081630E+02  0.35042843581E+03  0.00000000000E+00 0.  1.
<mgrwt>
<rscale>  0 0.59718491E+03</rscale>
<asrwt>0</asrwt>
<pdfrwt beam="1">  1        1 0.88709446E-01 0.59718491E+03</pdfrwt>
<pdfrwt beam="2">  1       -1 0.10344307E+00 0.59718491E+03</pdfrwt>
<totfact> 0.33276490E+01</totfact>
</mgrwt>
</event>
<event>
12    1  0.8033771E-008  0.5475976E+03  0.7818608E-02  0.1002052E+00
          1   -1    0    0  501    0  0.00000000000E+00  0.00000000000E+00  0.21377253418E+03  0.21377253418E+03  0.00000000000E+00 0. -1.
         -1   -1    0    0    0  501 -0.00000000000E+00 -0.00000000000E+00 -0.18006849078E+04  0.18006849078E+04  0.00000000000E+00 0.  1.
         23    2    1    2    0    0  0.12511225689E+03 -0.43017726767E+03 -0.38598808946E+03  0.59923683867E+03  0.96914525056E+02 0.  0.
    5000000    2    1    2    0    0 -0.12511225689E+03  0.43017726767E+03 -0.12009242841E+04  0.14152206033E+04  0.59993721447E+03 0.  0.
         23    2    4    4    0    0  0.13846292284E+03  0.27401060416E+03 -0.23388543861E+03  0.39682012028E+03  0.92249754848E+02 0.  0.
         23    2    4    4    0    0 -0.26357517973E+03  0.15616666351E+03 -0.96703884549E+03  0.10184004830E+04  0.90086141528E+02 0.  0.
          2    1    3    3  502    0  0.15420716903E+01 -0.15855414041E+03 -0.11206532403E+03  0.19416598641E+03  0.00000000000E+00 0.  1.
         -2    1    3    3    0  502  0.12357018520E+03 -0.27162312726E+03 -0.27392276543E+03  0.40507085226E+03  0.00000000000E+00 0. -1.
         15    1    5    5    0    0  0.44806007277E+02  0.18365689883E+03 -0.15633675786E+03  0.24531973904E+03  0.17770000000E+01 0. -1.
        -15    1    5    5    0    0  0.93656915563E+02  0.90353705328E+02 -0.77548680752E+02  0.15150038124E+03  0.17770000000E+01 0.  1.
          1    1    6    6  503    0 -0.11042339874E+03  0.11713071917E+03 -0.51047164976E+03  0.53525156475E+03  0.00000000000E+00 0. -1.
         -1    1    6    6    0  503 -0.15315178099E+03  0.39035944340E+02 -0.45656719573E+03  0.48314891823E+03  0.00000000000E+00 0.  1.
<mgrwt>
<rscale>  0 0.54759765E+03</rscale>
<asrwt>0</asrwt>
<pdfrwt beam="1">  1        1 0.32888083E-01 0.54759765E+03</pdfrwt>
<pdfrwt beam="2">  1       -1 0.27702844E+00 0.54759765E+03</pdfrwt>
<totfact> 0.68084930E+00</totfact>
</mgrwt>
</event>
<event>
12    1  0.8033771E-008  0.2859373E+03  0.7818608E-02  0.1092490E+00
          1   -1    0    0  501    0  0.00000000000E+00  0.00000000000E+00  0.19728249144E+03  0.19728249144E+03  0.00000000000E+00 0. -1.
         -1   -1    0    0    0  501 -0.00000000000E+00 -0.00000000000E+00 -0.11790138988E+04  0.11790138988E+04  0.00000000000E+00 0.  1.
         23    2    1    2    0    0 -0.13584223253E+03  0.13289714369E+03 -0.75204185803E+00  0.21076564094E+03  0.91141795532E+02 0.  0.
    5000000    2    1    2    0    0  0.13584223253E+03 -0.13289714369E+03 -0.98097936549E+03  0.11655307493E+04  0.60002220717E+03 0.  0.
         23    2    4    4    0    0 -0.37126712541E+02 -0.16115342108E+03 -0.26656651594E+02  0.19094939495E+03  0.91663932095E+02 0.  0.
         23    2    4    4    0    0  0.17296894507E+03  0.28256277396E+02 -0.95432271389E+03  0.97458135435E+03  0.91434680565E+02 0.  0.
          2    1    3    3  502    0 -0.94434061990E+02  0.11653220020E+03  0.34578996981E+02  0.15392612767E+03  0.00000000000E+00 0. -1.
         -2    1    3    3    0  502 -0.41408170543E+02  0.16364943489E+02 -0.35331038839E+02  0.56839513268E+02  0.00000000000E+00 0.  1.
         15    1    5    5    0    0 -0.61893239829E+02 -0.13253111734E+03 -0.30657341128E+01  0.14631413689E+03  0.17770000000E+01 0. -1.
        -15    1    5    5    0    0  0.24766527288E+02 -0.28622303746E+02 -0.23590917481E+02  0.44635258061E+02  0.17770000000E+01 0.  1.
          1    1    6    6  503    0  0.25181699391E+02 -0.25581687936E+02 -0.10926196579E+03  0.11500746894E+03  0.00000000000E+00 0. -1.
         -1    1    6    6    0  503  0.14778724568E+03  0.53837965331E+02 -0.84506074810E+03  0.85957388541E+03  0.00000000000E+00 0.  1.
<mgrwt>
<rscale>  0 0.28593733E+03</rscale>
<asrwt>0</asrwt>
<pdfrwt beam="1">  1        1 0.30351152E-01 0.28593733E+03</pdfrwt>
<pdfrwt beam="2">  1       -1 0.18138675E+00 0.28593733E+03</pdfrwt>
<totfact> 0.33552296E+01</totfact>
</mgrwt>
</event>
<event>
12    1  0.8033771E-008  0.9751106E+03  0.7818608E-02  0.9336272E-01
          2   -1    0    0  501    0  0.00000000000E+00  0.00000000000E+00  0.14910256298E+04  0.14910256298E+04  0.00000000000E+00 0. -1.
         -2   -1    0    0    0  501 -0.00000000000E+00 -0.00000000000E+00 -0.66185129907E+03  0.66185129907E+03  0.00000000000E+00 0.  1.
         23    2    1    2    0    0 -0.27722077939E+03  0.85623376496E+03  0.39467505777E+03  0.98703625976E+03  0.92111649996E+02 0.  0.
    5000000    2    1    2    0    0  0.27722077939E+03 -0.85623376496E+03  0.43449927299E+03  0.11658406692E+04  0.60033925978E+03 0.  0.
         23    2    4    4    0    0  0.22446717222E+03 -0.91481184439E+03  0.44020623666E+03  0.10436074040E+04  0.89825725237E+02 0.  0.
         23    2    4    4    0    0  0.52753607166E+02  0.58578079424E+02 -0.57069636693E+01  0.12223326512E+03  0.93241982015E+02 0.  0.
          3    1    3    3  502    0 -0.21416843786E+03  0.51995315375E+03  0.25591035513E+03  0.61782644143E+03  0.00000000000E+00 0. -1.
         -3    1    3    3    0  502 -0.63052341530E+02  0.33628061121E+03  0.13876470264E+03  0.36920981832E+03  0.00000000000E+00 0.  1.
         15    1    5    5    0    0  0.93329919771E+02 -0.32295891892E+03  0.11257554815E+03  0.35452693693E+03  0.17770000000E+01 0.  1.
        -15    1    5    5    0    0  0.13113725245E+03 -0.59185292547E+03  0.32763068851E+03  0.68908046710E+03  0.17770000000E+01 0. -1.
          2    1    6    6  503    0 -0.15726397506E+02  0.17389458406E+02  0.27112269360E+02  0.35843939405E+02  0.00000000000E+00 0. -1.
         -2    1    6    6    0  503  0.68480004672E+02  0.41188621017E+02 -0.32819233030E+02  0.86389325717E+02  0.00000000000E+00 0.  1.
<mgrwt>
<rscale>  0 0.97511064E+03</rscale>
<asrwt>0</asrwt>
<pdfrwt beam="1">  1        2 0.22938856E+00 0.97511064E+03</pdfrwt>
<pdfrwt beam="2">  1       -2 0.10182328E+00 0.97511064E+03</pdfrwt>
<totfact> 0.10139203E+01</totfact>
</mgrwt>
</event>
<event>
12    1  0.8033771E-008  0.4913996E+03  0.7818608E-02  0.1016048E+00
          1   -1    0    0  501    0  0.00000000000E+00  0.00000000000E+00  0.83787318073E+03  0.83787318073E+03  0.00000000000E+00 0. -1.
         -1   -1    0    0    0  501 -0.00000000000E+00 -0.00000000000E+00 -0.31816160784E+03  0.31816160784E+03  0.00000000000E+00 0.  1.
         23    2    1    2    0    0  0.32205836786E+03 -0.71861646512E+02  0.23104804715E+03  0.41292555619E+03  0.90766878955E+02 0.  0.
    5000000    2    1    2    0    0 -0.32205836786E+03  0.71861646512E+02  0.28866352574E+03  0.74310923239E+03  0.59999917635E+03 0.  0.
         23    2    4    4    0    0 -0.37744442699E+03  0.22918955048E+03  0.74785658897E+02  0.45730185329E+03  0.92411821403E+02 0.  0.
         23    2    4    4    0    0  0.55386059129E+02 -0.15732790397E+03  0.21387786685E+03  0.28580737910E+03  0.90124531105E+02 0.  0.
          1    1    3    3  502    0  0.15114764591E+03  0.12368440423E+02  0.99176067474E+02  0.18120287399E+03  0.00000000000E+00 0. -1.
         -1    1    3    3    0  502  0.17091072195E+03 -0.84230086935E+02  0.13187197967E+03  0.23172268220E+03  0.00000000000E+00 0.  1.
         15    1    5    5    0    0  0.21601456901E+01 -0.45219031761E+01  0.20031638639E+00  0.53208733673E+01  0.17770000000E+01 0. -1.
        -15    1    5    5    0    0 -0.37960457268E+03  0.23371145366E+03  0.74585342511E+02  0.45198097993E+03  0.17770000000E+01 0.  1.
          2    1    6    6  503    0  0.50911007427E+02 -0.16926584394E+03  0.20147425387E+03  0.26802002085E+03  0.00000000000E+00 0.  1.
         -2    1    6    6    0  503  0.44750517025E+01  0.11937939975E+02  0.12403612972E+02  0.17787358245E+02  0.00000000000E+00 0. -1.
<mgrwt>
<rscale>  0 0.49139964E+03</rscale>
<asrwt>0</asrwt>
<pdfrwt beam="1">  1        1 0.12890357E+00 0.49139964E+03</pdfrwt>
<pdfrwt beam="2">  1       -1 0.48947940E-01 0.49139964E+03</pdfrwt>
<totfact> 0.89628154E+01</totfact>
</mgrwt>
</event>
<event>
12    1  0.8033771E-008  0.1046602E+04  0.7818608E-02  0.9258859E-01
         -1   -1    0    0    0  501 -0.00000000000E+00  0.00000000000E+00  0.49987663918E+03  0.49987663918E+03  0.00000000000E+00 0.  1.
          1   -1    0    0  501    0  0.00000000000E+00 -0.00000000000E+00 -0.22866758064E+04  0.22866758064E+04  0.00000000000E+00 0. -1.
         23    2    1    2    0    0 -0.96693437818E+03 -0.73976275496E+02 -0.61683061565E+03  0.11527845597E+04  0.89429590634E+02 0.  0.
    5000000    2    1    2    0    0  0.96693437818E+03  0.73976275496E+02 -0.11699685516E+04  0.16337678858E+04  0.59994709113E+03 0.  0.
         23    2    4    4    0    0  0.68951507778E+02 -0.15793349647E+03 -0.30292935935E+03  0.36082560744E+03  0.93443151145E+02 0.  0.
         23    2    4    4    0    0  0.89798287041E+03  0.23190977197E+03 -0.86703919220E+03  0.12729422784E+04  0.92031002733E+02 0.  0.
          2    1    3    3  502    0 -0.13484554507E+03  0.10491013647E+02 -0.11411406681E+03  0.17696158520E+03  0.00000000000E+00 0.  1.
         -2    1    3    3    0  502 -0.83208883312E+03 -0.84467289142E+02 -0.50271654884E+03  0.97582297452E+03  0.00000000000E+00 0. -1.
         15    1    5    5    0    0  0.18902169219E+02 -0.13935335899E+03 -0.19529750033E+03  0.24066765887E+03  0.17770000000E+01 0. -1.
        -15    1    5    5    0    0  0.50049338559E+02 -0.18580137481E+02 -0.10763185902E+03  0.12015794857E+03  0.17770000000E+01 0.  1.
          3    1    6    6  503    0  0.67672069889E+03  0.18030857447E+03 -0.70618855180E+03  0.99456742206E+03  0.00000000000E+00 0. -1.
         -3    1    6    6    0  503  0.22126217152E+03  0.51601197495E+02 -0.16085064041E+03  0.27837485635E+03  0.00000000000E+00 0.  1.
<mgrwt>
<rscale>  0 0.10466024E+04</rscale>
<asrwt>0</asrwt>
<pdfrwt beam="1">  1        1 0.35179629E+00 0.10466024E+04</pdfrwt>
<pdfrwt beam="2">  1       -1 0.76904096E-01 0.10466024E+04</pdfrwt>
<totfact> 0.32528642E+00</totfact>
</mgrwt>
</event>
<event>
12    1  0.8033771E-008  0.7141002E+03  0.7818608E-02  0.9693418E-01
          1   -1    0    0  501    0  0.00000000000E+00  0.00000000000E+00  0.43059569011E+03  0.43059569011E+03  0.00000000000E+00 0. -1.
         -1   -1    0    0    0  501 -0.00000000000E+00 -0.00000000000E+00 -0.14311171895E+04  0.14311171895E+04  0.00000000000E+00 0.  1.
         23    2    1    2    0    0 -0.44776393199E+03 -0.42356440190E+03 -0.73146906839E+03  0.96044445955E+03  0.86644218061E+02 0.  0.
    5000000    2    1    2    0    0  0.44776393199E+03  0.42356440190E+03 -0.26905243103E+03  0.90126842009E+03  0.59999684421E+03 0.  0.
         23    2    4    4    0    0  0.30429746689E+03 -0.57495701323E+02  0.76846551098E+01  0.32205047050E+03  0.88061044731E+02 0.  0.
         23    2    4    4    0    0  0.14346646509E+03  0.48106010322E+03 -0.27673708614E+03  0.57921794958E+03  0.83117800457E+02 0.  0.
          4    1    3    3  502    0 -0.30072141617E+03 -0.27875447875E+03 -0.42141442552E+03  0.58798600970E+03  0.00000000000E+00 0. -1.
         -4    1    3    3    0  502 -0.14704251582E+03 -0.14480992315E+03 -0.31005464286E+03  0.37245844985E+03  0.00000000000E+00 0.  1.
         15    1    5    5    0    0  0.28050376480E+03 -0.53477398983E+02 -0.18797123303E+02  0.28617946090E+03  0.17770000000E+01 0.  1.
        -15    1    5    5    0    0  0.23793702099E+02 -0.40183023401E+01  0.26481778413E+02  0.35871009606E+02  0.17770000000E+01 0. -1.
          2    1    6    6  503    0  0.76692255954E+02  0.26550377108E+03 -0.10497614567E+03  0.29562467039E+03  0.00000000000E+00 0. -1.
         -2    1    6    6    0  503  0.66774209141E+02  0.21555633214E+03 -0.17176094047E+03  0.28359327920E+03  0.00000000000E+00 0.  1.
<mgrwt>
<rscale>  0 0.71410016E+03</rscale>
<asrwt>0</asrwt>
<pdfrwt beam="1">  1        1 0.66245491E-01 0.71410016E+03</pdfrwt>
<pdfrwt beam="2">  1       -1 0.22017187E+00 0.71410016E+03</pdfrwt>
<totfact> 0.62097795E+00</totfact>
</mgrwt>
</event>
<event>
12    1  0.8033771E-008  0.6597970E+03  0.7818608E-02  0.9788567E-01
         -1   -1    0    0    0  501 -0.00000000000E+00  0.00000000000E+00  0.80819072259E+03  0.80819072259E+03  0.00000000000E+00 0.  1.
          1   -1    0    0  501    0  0.00000000000E+00 -0.00000000000E+00 -0.59709661192E+03  0.59709661192E+03  0.00000000000E+00 0. -1.
         23    2    1    2    0    0  0.32252160361E+03  0.41326928923E+03  0.28893137893E+03  0.60503289626E+03  0.88157663384E+02 0.  0.
    5000000    2    1    2    0    0 -0.32252160361E+03 -0.41326928923E+03 -0.77837268256E+02  0.80025443825E+03  0.59961390526E+03 0.  0.
         23    2    4    4    0    0 -0.48195308916E+03 -0.34149460217E+03 -0.78453700596E+02  0.60302082496E+03  0.92637944346E+02 0.  0.
         23    2    4    4    0    0  0.15943148554E+03 -0.71774687057E+02  0.61643233998E+00  0.19723361329E+03  0.91272744767E+02 0.  0.
          4    1    3    3  502    0  0.51928974600E+02  0.91051742728E+02  0.96021767162E+02  0.14215209469E+03  0.00000000000E+00 0. -1.
         -4    1    3    3    0  502  0.27059262901E+03  0.32221754650E+03  0.19290961177E+03  0.46288080157E+03  0.00000000000E+00 0.  1.
         15    1    5    5    0    0 -0.27537125985E+03 -0.14073338056E+03 -0.27448212394E+02  0.31047025180E+03  0.17770000000E+01 0. -1.
        -15    1    5    5    0    0 -0.20658182931E+03 -0.20076122161E+03 -0.51005488201E+02  0.29255057316E+03  0.17770000000E+01 0.  1.
          3    1    6    6  503    0  0.68273910397E+02  0.16014580030E+02 -0.68235360342E+01  0.70458173823E+02  0.00000000000E+00 0. -1.
         -3    1    6    6    0  503  0.91157575147E+02 -0.87789267088E+02  0.74399683742E+01  0.12677543947E+03  0.00000000000E+00 0.  1.
<mgrwt>
<rscale>  0 0.65979702E+03</rscale>
<asrwt>0</asrwt>
<pdfrwt beam="1">  1        1 0.91861017E-01 0.65979702E+03</pdfrwt>
<pdfrwt beam="2">  1       -1 0.12433703E+00 0.65979702E+03</pdfrwt>
<totfact> 0.20287623E+01</totfact>
</mgrwt>
</event>
<event>
12    1  0.8033771E-008  0.2351642E+04  0.7818608E-02  0.8457833E-01
         -2   -1    0    0    0  501 -0.00000000000E+00  0.00000000000E+00  0.15241482872E+04  0.15241482872E+04  0.00000000000E+00 0.  1.
          2   -1    0    0  501    0  0.00000000000E+00 -0.00000000000E+00 -0.40406663163E+04  0.40406663163E+04  0.00000000000E+00 0. -1.
         23    2    1    2    0    0  0.19472332254E+04  0.12662325415E+04 -0.38554825878E+03  0.23560659534E+04  0.85657653423E+02 0.  0.
    5000000    2    1    2    0    0 -0.19472332254E+04 -0.12662325415E+04 -0.21309697704E+04  0.32087486501E+04  0.59997804457E+03 0.  0.
         23    2    4    4    0    0 -0.87072915865E+03 -0.86624888396E+03 -0.12847327023E+04  0.17797139982E+04  0.91035171211E+02 0.  0.
         23    2    4    4    0    0 -0.10765040668E+04 -0.39998365755E+03 -0.84623706807E+03  0.14290346519E+04  0.84704951714E+02 0.  0.
          4    1    3    3  502    0  0.18021564021E+04  0.11490475313E+04 -0.34115943909E+03  0.21643631142E+04  0.00000000000E+00 0. -1.
         -4    1    3    3    0  502  0.14507682328E+03  0.11718501017E+03 -0.44388819691E+02  0.19170283925E+03  0.00000000000E+00 0.  1.
         15    1    5    5    0    0 -0.69875144121E+03 -0.65038107367E+03 -0.10259660041E+04  0.14013773642E+04  0.17770000000E+01 0. -1.
        -15    1    5    5    0    0 -0.17197771744E+03 -0.21586781029E+03 -0.25876669822E+03  0.37833663404E+03  0.17770000000E+01 0.  1.
          1    1    6    6  503    0 -0.61767558964E+03 -0.24687493517E+03 -0.53745521368E+03  0.85517745198E+03  0.00000000000E+00 0. -1.
         -1    1    6    6    0  503 -0.45882847713E+03 -0.15310872238E+03 -0.30878185439E+03  0.57385719992E+03  0.00000000000E+00 0.  1.
<mgrwt>
<rscale>  0 0.23516417E+04</rscale>
<asrwt>0</asrwt>
<pdfrwt beam="1">  1        2 0.62164097E+00 0.23516417E+04</pdfrwt>
<pdfrwt beam="2">  1       -2 0.23448435E+00 0.23516417E+04</pdfrwt>
<totfact> 0.21833025E-02</totfact>
</mgrwt>
</event>
<event>
12    1  0.8033771E-008  0.1428958E+04  0.7818608E-02  0.8933120E-01
         -2   -1    0    0    0  501 -0.00000000000E+00  0.00000000000E+00  0.10079467825E+04  0.10079467825E+04  0.00000000000E+00 0.  1.
          2   -1    0    0  501    0  0.00000000000E+00 -0.00000000000E+00 -0.26820293142E+04  0.26820293142E+04  0.00000000000E+00 0. -1.
         23    2    1    2    0    0 -0.12825193118E+04  0.59474135721E+03  0.35408012348E+01  0.14155291528E+04  0.71674110057E+02 0.  0.
    5000000    2    1    2    0    0  0.12825193118E+04 -0.59474135721E+03 -0.16776233329E+04  0.22744469439E+04  0.60009648099E+03 0.  0.
         23    2    4    4    0    0  0.18960028197E+03 -0.20294890992E+03 -0.68239372449E+03  0.74260327965E+03  0.93069376004E+02 0.  0.
         23    2    4    4    0    0  0.10929190298E+04 -0.39179244728E+03 -0.99522960838E+03  0.15318436643E+04  0.89942819681E+02 0.  0.
          4    1    3    3  502    0 -0.18883235224E+03  0.10510338691E+03  0.20847661116E+02  0.21711518640E+03  0.00000000000E+00 0. -1.
         -4    1    3    3    0  502 -0.10936869596E+04  0.48963797030E+03 -0.17306859881E+02  0.11984139664E+04  0.00000000000E+00 0.  1.
         15    1    5    5    0    0  0.11126118611E+03 -0.84140270734E+02 -0.43921791529E+03  0.46084072252E+03  0.17770000000E+01 0.  1.
        -15    1    5    5    0    0  0.78339095864E+02 -0.11880863919E+03 -0.24317580921E+03  0.28176255713E+03  0.17770000000E+01 0. -1.
          3    1    6    6  503    0  0.70364331517E+03 -0.27215716948E+03 -0.69641596830E+03  0.10267320199E+04  0.00000000000E+00 0. -1.
         -3    1    6    6    0  503  0.38927571465E+03 -0.11963527780E+03 -0.29881364009E+03  0.50511164431E+03  0.00000000000E+00 0.  1.
<mgrwt>
<rscale>  0 0.14289580E+04</rscale>
<asrwt>0</asrwt>
<pdfrwt beam="1">  1        2 0.41261989E+00 0.14289580E+04</pdfrwt>
<pdfrwt beam="2">  1       -2 0.15506874E+00 0.14289580E+04</pdfrwt>
<totfact> 0.71077038E-01</totfact>
</mgrwt>
</event>
<event>
12    1  0.8033771E-008  0.1174605E+04  0.7818608E-02  0.9135380E-01
          1   -1    0    0  501    0  0.00000000000E+00  0.00000000000E+00  0.14762954594E+04  0.14762954594E+04  0.00000000000E+00 0. -1.
         -1   -1    0    0    0  501 -0.00000000000E+00 -0.00000000000E+00 -0.10018678900E+04  0.10018678900E+04  0.00000000000E+00 0.  1.
         23    2    1    2    0    0 -0.10955154746E+04  0.24620543118E+03  0.42559803705E+03  0.12040954883E+04  0.89112212623E+02 0.  0.
    5000000    2    1    2    0    0  0.10955154746E+04 -0.24620543118E+03  0.48829532331E+02  0.12740678610E+04  0.60007776312E+03 0.  0.
         23    2    4    4    0    0  0.16175581457E+02  0.90018865135E+02 -0.44262715794E+02  0.13605057467E+03  0.90473893158E+02 0.  0.
         23    2    4    4    0    0  0.10793398932E+04 -0.33622429632E+03  0.93092248125E+02  0.11380172863E+04  0.91628570717E+02 0.  0.
          1    1    3    3  502    0 -0.24752768661E+03  0.25726996807E+02  0.11870320489E+03  0.27572138991E+03  0.00000000000E+00 0.  1.
         -1    1    3    3    0  502 -0.84798778800E+03  0.22047843437E+03  0.30689483216E+03  0.92837409843E+03  0.00000000000E+00 0. -1.
         15    1    5    5    0    0 -0.49015377418E+00  0.31621714452E+02 -0.64628399591E+02  0.71973334217E+02  0.17770000000E+01 0.  1.
        -15    1    5    5    0    0  0.16665735231E+02  0.58397150683E+02  0.20365683797E+02  0.64077240454E+02  0.17770000000E+01 0. -1.
          2    1    6    6  503    0  0.37672415572E+03 -0.14392245017E+03  0.69163516058E+02  0.40916787889E+03  0.00000000000E+00 0. -1.
         -2    1    6    6    0  503  0.70261573744E+03 -0.19230184614E+03  0.23928732066E+02  0.72884940745E+03  0.00000000000E+00 0.  1.
<mgrwt>
<rscale>  0 0.11746046E+04</rscale>
<asrwt>0</asrwt>
<pdfrwt beam="1">  1        1 0.22712238E+00 0.11746046E+04</pdfrwt>
<pdfrwt beam="2">  1       -1 0.15413352E+00 0.11746046E+04</pdfrwt>
<totfact> 0.21659319E+00</totfact>
</mgrwt>
</event>
<event>
12    1  0.8033771E-008  0.1104192E+04  0.7818608E-02  0.9201116E-01
         -1   -1    0    0    0  501 -0.00000000000E+00  0.00000000000E+00  0.70551264826E+03  0.70551264826E+03  0.00000000000E+00 0.  1.
          1   -1    0    0  501    0  0.00000000000E+00 -0.00000000000E+00 -0.21868581301E+04  0.21868581301E+04  0.00000000000E+00 0. -1.
         23    2    1    2    0    0 -0.37164315095E+03  0.95798435023E+03 -0.13448427745E+04  0.16946629683E+04  0.86184922320E+02 0.  0.
    5000000    2    1    2    0    0  0.37164315095E+03 -0.95798435023E+03 -0.13650270732E+03  0.11977078101E+04  0.60001530179E+03 0.  0.
         23    2    4    4    0    0  0.94694627465E+02  0.53424833330E+02 -0.15255848029E+02  0.13832117165E+03  0.84135131425E+02 0.  0.
         23    2    4    4    0    0  0.27694852348E+03 -0.10114091836E+04 -0.12124685929E+03  0.10593866385E+04  0.89164049020E+02 0.  0.
          2    1    3    3  502    0 -0.24376281184E+03  0.65545422724E+03 -0.84938458983E+03  0.11002248561E+04  0.00000000000E+00 0. -1.
         -2    1    3    3    0  502 -0.12788033910E+03  0.30253012299E+03 -0.49545818471E+03  0.59443811221E+03  0.00000000000E+00 0.  1.
         15    1    5    5    0    0  0.53423706905E+02 -0.93977076861E+01 -0.29536547035E+02  0.61789762170E+02  0.17770000000E+01 0. -1.
        -15    1    5    5    0    0  0.41270920559E+02  0.62822541016E+02  0.14280699006E+02  0.76531409478E+02  0.17770000000E+01 0.  1.
          1    1    6    6  503    0  0.44281407180E+02 -0.83365443478E+02 -0.25885637482E+02  0.97881083034E+02  0.00000000000E+00 0. -1.
         -1    1    6    6    0  503  0.23266711630E+03 -0.92804374008E+03 -0.95361221807E+02  0.96150555544E+03  0.00000000000E+00 0.  1.
<mgrwt>
<rscale>  0 0.11041917E+04</rscale>
<asrwt>0</asrwt>
<pdfrwt beam="1">  1        1 0.33643971E+00 0.11041917E+04</pdfrwt>
<pdfrwt beam="2">  1       -1 0.10854041E+00 0.11041917E+04</pdfrwt>
<totfact> 0.17498102E+00</totfact>
</mgrwt>
</event>
<event>
12    1  0.8033771E-008  0.6741104E+03  0.7818608E-02  0.9762561E-01
          2   -1    0    0  501    0  0.00000000000E+00  0.00000000000E+00  0.18438437430E+04  0.18438437430E+04  0.00000000000E+00 0. -1.
         -2   -1    0    0    0  501 -0.00000000000E+00 -0.00000000000E+00 -0.37796224257E+03  0.37796224257E+03  0.00000000000E+00 0.  1.
         23    2    1    2    0    0  0.10319259795E+03 -0.55723607766E+03  0.43898304885E+02  0.57764292362E+03  0.10287627286E+03 0.  0.
    5000000    2    1    2    0    0 -0.10319259795E+03  0.55723607766E+03  0.14219831955E+04  0.16441630619E+04  0.60006266953E+03 0.  0.
         23    2    4    4    0    0  0.20425854698E+03  0.27068757375E+03  0.38422301110E+03  0.52066616632E+03  0.92046824462E+02 0.  0.
         23    2    4    4    0    0 -0.30745114493E+03  0.28654850392E+03  0.10377601844E+04  0.11234968956E+04  0.93074284713E+02 0.  0.
          4    1    3    3  502    0  0.11202151870E+03 -0.33684874351E+03  0.16329671666E+02  0.35536256814E+03  0.00000000000E+00 0. -1.
         -4    1    3    3    0  502 -0.88289207499E+01 -0.22038733415E+03  0.27568633220E+02  0.22228035548E+03  0.00000000000E+00 0.  1.
         15    1    5    5    0    0  0.14905134491E+03  0.24017255893E+03  0.27409106053E+03  0.39373624252E+03  0.17770000000E+01 0.  1.
        -15    1    5    5    0    0  0.55207202067E+02  0.30515014818E+02  0.11013195058E+03  0.12692992380E+03  0.17770000000E+01 0. -1.
          1    1    6    6  503    0 -0.96023318433E+02  0.45489273214E+02  0.32519226955E+03  0.34211074791E+03  0.00000000000E+00 0. -1.
         -1    1    6    6    0  503 -0.21142782649E+03  0.24105923070E+03  0.71256791488E+03  0.78138614771E+03  0.00000000000E+00 0.  1.
<mgrwt>
<rscale>  0 0.67411042E+03</rscale>
<asrwt>0</asrwt>
<pdfrwt beam="1">  1        2 0.28366826E+00 0.67411042E+03</pdfrwt>
<pdfrwt beam="2">  1       -2 0.58148038E-01 0.67411042E+03</pdfrwt>
<totfact> 0.23504276E+01</totfact>
</mgrwt>
</event>
<event>
12    1  0.8033771E-008  0.8726824E+03  0.7818608E-02  0.9460389E-01
          2   -1    0    0  501    0  0.00000000000E+00  0.00000000000E+00  0.28493753957E+04  0.28493753957E+04  0.00000000000E+00 0. -1.
         -2   -1    0    0    0  501 -0.00000000000E+00 -0.00000000000E+00 -0.54837745029E+03  0.54837745029E+03  0.00000000000E+00 0.  1.
         23    2    1    2    0    0 -0.31884685729E+02  0.78232299523E+03 -0.10697046199E+03  0.79556543948E+03  0.91846538887E+02 0.  0.
    5000000    2    1    2    0    0  0.31884685729E+02 -0.78232299523E+03  0.24079684074E+04  0.26021874065E+04  0.60001795432E+03 0.  0.
         23    2    4    4    0    0  0.29232339650E+03 -0.39075695171E+03  0.14201613889E+04  0.15043849546E+04  0.90397773395E+02 0.  0.
         23    2    4    4    0    0 -0.26043871077E+03 -0.39156604351E+03  0.98780701842E+03  0.10978024519E+04  0.90858292229E+02 0.  0.
          2    1    3    3  502    0  0.69024833877E+01  0.17169928701E+03 -0.59599064186E+02  0.18188000959E+03  0.00000000000E+00 0. -1.
         -2    1    3    3    0  502 -0.38787169117E+02  0.61062370822E+03 -0.47371397809E+02  0.61368542989E+03  0.00000000000E+00 0.  1.
         15    1    5    5    0    0  0.10739982900E+03 -0.14156146351E+03  0.65536717739E+03  0.67903141764E+03  0.17770000000E+01 0. -1.
        -15    1    5    5    0    0  0.18492356750E+03 -0.24919548821E+03  0.76479421155E+03  0.82535353692E+03  0.17770000000E+01 0.  1.
          1    1    6    6  503    0 -0.10180587174E+03 -0.10591662117E+03  0.23495637952E+03  0.27710515411E+03  0.00000000000E+00 0. -1.
         -1    1    6    6    0  503 -0.15863283903E+03 -0.28564942235E+03  0.75285063891E+03  0.82069729779E+03  0.00000000000E+00 0.  1.
<mgrwt>
<rscale>  0 0.87268241E+03</rscale>
<asrwt>0</asrwt>
<pdfrwt beam="1">  1        2 0.43836543E+00 0.87268241E+03</pdfrwt>
<pdfrwt beam="2">  1       -2 0.84365764E-01 0.87268241E+03</pdfrwt>
<totfact> 0.27452154E+00</totfact>
</mgrwt>
</event>
<event>
12    1  0.8033771E-008  0.7775238E+03  0.7818608E-02  0.9593133E-01
          2   -1    0    0  501    0  0.00000000000E+00  0.00000000000E+00  0.22558936756E+04  0.22558936756E+04  0.00000000000E+00 0. -1.
         -2   -1    0    0    0  501 -0.00000000000E+00 -0.00000000000E+00 -0.29168627051E+03  0.29168627051E+03  0.00000000000E+00 0.  1.
         23    2    1    2    0    0 -0.47129831823E+03  0.50701131283E+03  0.97330282764E+03  0.11981146776E+04  0.94751308175E+02 0.  0.
    5000000    2    1    2    0    0  0.47129831823E+03 -0.50701131283E+03  0.99090457741E+03  0.13494652684E+04  0.59998504403E+03 0.  0.
         23    2    4    4    0    0 -0.63336535277E+02 -0.25970971197E+03  0.15113869277E+03  0.31971229556E+03  0.88951651406E+02 0.  0.
         23    2    4    4    0    0  0.53463485351E+03 -0.24730160085E+03  0.83976588464E+03  0.10297529729E+04  0.90509313085E+02 0.  0.
          1    1    3    3  502    0 -0.34264194228E+03  0.42486740696E+03  0.77296953836E+03  0.94625457534E+03  0.00000000000E+00 0. -1.
         -1    1    3    3    0  502 -0.12865637595E+03  0.82143905864E+02  0.20033328927E+03  0.25186010231E+03  0.00000000000E+00 0.  1.
         15    1    5    5    0    0 -0.27124796037E+02 -0.13043626561E+03  0.12547461225E+03  0.18302024476E+03  0.17770000000E+01 0.  1.
        -15    1    5    5    0    0 -0.36211739240E+02 -0.12927344636E+03  0.25664080527E+02  0.13669205080E+03  0.17770000000E+01 0. -1.
          2    1    6    6  503    0  0.49294127721E+03 -0.22966118992E+03  0.72430237035E+03  0.90573135566E+03  0.00000000000E+00 0. -1.
         -2    1    6    6    0  503  0.41693576297E+02 -0.17640410936E+02  0.11546351429E+03  0.12402161721E+03  0.00000000000E+00 0.  1.
<mgrwt>
<rscale>  0 0.77752376E+03</rscale>
<asrwt>0</asrwt>
<pdfrwt beam="1">  1        2 0.34706055E+00 0.77752376E+03</pdfrwt>
<pdfrwt beam="2">  1       -2 0.44874812E-01 0.77752376E+03</pdfrwt>
<totfact> 0.23410191E+01</totfact>
</mgrwt>
</event>
<event>
12    1  0.8033771E-008  0.6287071E+03  0.7818608E-02  0.9847575E-01
         -2   -1    0    0    0  501 -0.00000000000E+00  0.00000000000E+00  0.37960835791E+03  0.37960835791E+03  0.00000000000E+00 0. -1.
          2   -1    0    0  501    0  0.00000000000E+00 -0.00000000000E+00 -0.14060850927E+04  0.14060850927E+04  0.00000000000E+00 0.  1.
         23    2    1    2    0    0 -0.31216330870E+03 -0.49780698854E+03 -0.59876945584E+03  0.84405475968E+03  0.92983046571E+02 0.  0.
    5000000    2    1    2    0    0  0.31216330870E+03  0.49780698854E+03 -0.42770727892E+03  0.94163869091E+03  0.59874216373E+03 0.  0.
         23    2    4    4    0    0 -0.40874708676E+02  0.16391436577E+03 -0.40291146012E+03  0.44648646626E+03  0.92053564567E+02 0.  0.
         23    2    4    4    0    0  0.35303801738E+03  0.33389262277E+03 -0.24795818805E+02  0.49515222464E+03  0.91873650648E+02 0.  0.
          2    1    3    3  502    0 -0.11926466694E+03 -0.14992644764E+03 -0.14268815935E+03  0.23887635148E+03  0.00000000000E+00 0. -1.
         -2    1    3    3    0  502 -0.19289864177E+03 -0.34788054090E+03 -0.45608129650E+03  0.60517840820E+03  0.00000000000E+00 0.  1.
         15    1    5    5    0    0 -0.47481992805E+02  0.94608238546E+02 -0.32585401527E+03  0.34262115440E+03  0.17770000000E+01 0.  1.
        -15    1    5    5    0    0  0.66072841295E+01  0.69306127227E+02 -0.77057444840E+02  0.10386531187E+03  0.17770000000E+01 0. -1.
          1    1    6    6  503    0  0.10105013920E+03  0.14885014799E+03  0.12287512181E+02  0.18032881119E+03  0.00000000000E+00 0. -1.
         -1    1    6    6    0  503  0.25198787817E+03  0.18504247477E+03 -0.37083330986E+02  0.31482341345E+03  0.00000000000E+00 0.  1.
<mgrwt>
<rscale>  0 0.62870712E+03</rscale>
<asrwt>0</asrwt>
<pdfrwt beam="1">  1        2 0.21632078E+00 0.62870712E+03</pdfrwt>
<pdfrwt beam="2">  1       -2 0.58401287E-01 0.62870712E+03</pdfrwt>
<totfact> 0.40755984E+01</totfact>
</mgrwt>
</event>
<event>
12    1  0.8033771E-008  0.8290235E+03  0.7818608E-02  0.9518932E-01
         -2   -1    0    0    0  501 -0.00000000000E+00  0.00000000000E+00  0.23091803865E+04  0.23091803865E+04  0.00000000000E+00 0. -1.
          2   -1    0    0  501    0  0.00000000000E+00 -0.00000000000E+00 -0.37520545006E+03  0.37520545006E+03  0.00000000000E+00 0.  1.
         23    2    1    2    0    0  0.18521532674E+03 -0.71833145926E+03  0.32847096515E+03  0.81673830662E+03  0.94146077585E+02 0.  0.
    5000000    2    1    2    0    0 -0.18521532674E+03  0.71833145926E+03  0.16055039713E+04  0.18676475299E+04  0.60013289497E+03 0.  0.
         23    2    4    4    0    0 -0.36785163634E+03  0.42180589907E+03  0.75435470961E+03  0.94360630597E+03  0.90037713752E+02 0.  0.
         23    2    4    4    0    0  0.18263630961E+03  0.29652556019E+03  0.85114926168E+03  0.92404122397E+03  0.90076015158E+02 0.  0.
          4    1    3    3  502    0  0.32613627409E+02 -0.30204100629E+03  0.14966882999E+03  0.33866381094E+03  0.00000000000E+00 0. -1.
         -4    1    3    3    0  502  0.15260169933E+03 -0.41629045298E+03  0.17880213516E+03  0.47807449567E+03  0.00000000000E+00 0.  1.
         15    1    5    5    0    0 -0.15544577651E+03  0.16278388260E+03  0.23345608965E+03  0.32429444243E+03  0.17770000000E+01 0.  1.
        -15    1    5    5    0    0 -0.21240585983E+03  0.25902201647E+03  0.52089861997E+03  0.61931186354E+03  0.17770000000E+01 0. -1.
          1    1    6    6  503    0  0.15277506537E+02  0.54122119813E+02  0.22717641581E+03  0.23403360861E+03  0.00000000000E+00 0. -1.
         -1    1    6    6    0  503  0.16735880307E+03  0.24240344038E+03  0.62397284586E+03  0.69000761535E+03  0.00000000000E+00 0.  1.
<mgrwt>
<rscale>  0 0.82902354E+03</rscale>
<asrwt>0</asrwt>
<pdfrwt beam="1">  1        2 0.57723917E-01 0.82902354E+03</pdfrwt>
<pdfrwt beam="2">  1       -2 0.35525851E+00 0.82902354E+03</pdfrwt>
<totfact> 0.12822352E+00</totfact>
</mgrwt>
</event>
<event>
12    1  0.8033771E-008  0.7774276E+03  0.7818608E-02  0.9593277E-01
         -2   -1    0    0    0  501 -0.00000000000E+00  0.00000000000E+00  0.22023456283E+03  0.22023456283E+03  0.00000000000E+00 0.  1.
          2   -1    0    0  501    0  0.00000000000E+00 -0.00000000000E+00 -0.28832216996E+04  0.28832216996E+04  0.00000000000E+00 0. -1.
         23    2    1    2    0    0 -0.20364503028E+03 -0.64914990202E+03 -0.11771757906E+04  0.13626253073E+04  0.90210822485E+02 0.  0.
    5000000    2    1    2    0    0  0.20364503028E+03  0.64914990202E+03 -0.14858113461E+04  0.17408309551E+04  0.59999180350E+03 0.  0.
         23    2    4    4    0    0  0.36836439362E+03  0.56639910641E+03 -0.12781295497E+04  0.14485630643E+04  0.90661629075E+02 0.  0.
         23    2    4    4    0    0 -0.16471936334E+03  0.82750795607E+02 -0.20768179637E+03  0.29226789081E+03  0.91151679223E+02 0.  0.
          3    1    3    3  502    0 -0.16817909487E+03 -0.39322081096E+03 -0.71601671578E+03  0.83401843589E+03  0.00000000000E+00 0. -1.
         -3    1    3    3    0  502 -0.35465935411E+02 -0.25592909106E+03 -0.46115907486E+03  0.52860687146E+03  0.00000000000E+00 0.  1.
         15    1    5    5    0    0  0.79784893439E+02  0.92011130714E+02 -0.17039408032E+03  0.20944922471E+03  0.17770000000E+01 0.  1.
        -15    1    5    5    0    0  0.28857950018E+03  0.47438797570E+03 -0.11077354694E+04  0.12391138395E+04  0.17770000000E+01 0. -1.
          1    1    6    6  503    0 -0.15820125583E+03  0.61883680063E+02 -0.21020047266E+03  0.27026184694E+03  0.00000000000E+00 0. -1.
         -1    1    6    6    0  503 -0.65181075051E+01  0.20867115544E+02  0.25186762933E+01  0.22006043871E+02  0.00000000000E+00 0.  1.
<mgrwt>
<rscale>  0 0.77742760E+03</rscale>
<asrwt>0</asrwt>
<pdfrwt beam="1">  1        2 0.44357257E+00 0.77742760E+03</pdfrwt>
<pdfrwt beam="2">  1       -2 0.33882241E-01 0.77742760E+03</pdfrwt>
<totfact> 0.17638345E+01</totfact>
</mgrwt>
</event>
<event>
12    1  0.8033771E-008  0.5343365E+03  0.7818608E-02  0.1005186E+00
          2   -1    0    0  501    0  0.00000000000E+00  0.00000000000E+00  0.76411056767E+03  0.76411056767E+03  0.00000000000E+00 0. -1.
         -2   -1    0    0    0  501 -0.00000000000E+00 -0.00000000000E+00 -0.11283992502E+04  0.11283992502E+04  0.00000000000E+00 0.  1.
         23    2    1    2    0    0  0.28274932135E+03  0.40363962260E+03  0.51563434531E+03  0.71901009943E+03  0.90689698158E+02 0.  0.
    5000000    2    1    2    0    0 -0.28274932135E+03 -0.40363962260E+03 -0.87992302780E+03  0.11734997184E+04  0.59997077475E+03 0.  0.
         23    2    4    4    0    0  0.18542160357E+02 -0.16515374169E+03 -0.72317204896E+03  0.74772233415E+03  0.92148285336E+02 0.  0.
         23    2    4    4    0    0 -0.30129148171E+03 -0.23848588091E+03 -0.15675097884E+03  0.42577738424E+03  0.95202096709E+02 0.  0.
          2    1    3    3  502    0  0.89031863380E+02  0.13726587835E+03  0.23474323969E+03  0.28613455338E+03  0.00000000000E+00 0. -1.
         -2    1    3    3    0  502  0.19371745797E+03  0.26637374425E+03  0.28089110562E+03  0.43287554605E+03  0.00000000000E+00 0.  1.
         15    1    5    5    0    0 -0.26994905521E+02 -0.52791844217E+02 -0.35971923628E+03  0.36457755062E+03  0.17770000000E+01 0.  1.
        -15    1    5    5    0    0  0.45537065877E+02 -0.11236189747E+03 -0.36345281268E+03  0.38314478353E+03  0.17770000000E+01 0. -1.
          1    1    6    6  503    0 -0.10723141497E+03 -0.14329660675E+03 -0.58006425579E+02  0.18814154053E+03  0.00000000000E+00 0. -1.
         -1    1    6    6    0  503 -0.19406006674E+03 -0.95189274158E+02 -0.98744553262E+02  0.23763584371E+03  0.00000000000E+00 0.  1.
<mgrwt>
<rscale>  0 0.53433652E+03</rscale>
<asrwt>0</asrwt>
<pdfrwt beam="1">  1        2 0.11755547E+00 0.53433652E+03</pdfrwt>
<pdfrwt beam="2">  1       -2 0.17359988E+00 0.53433652E+03</pdfrwt>
<totfact> 0.77211221E+00</totfact>
</mgrwt>
</event>
<event>
12    1  0.8033771E-008  0.1447260E+04  0.7818608E-02  0.8920302E-01
          1   -1    0    0  501    0  0.00000000000E+00  0.00000000000E+00  0.18158984682E+04  0.18158984682E+04  0.00000000000E+00 0. -1.
         -1   -1    0    0    0  501 -0.00000000000E+00 -0.00000000000E+00 -0.13342387470E+04  0.13342387470E+04  0.00000000000E+00 0.  1.
         23    2    1    2    0    0 -0.27605454972E+03  0.13970590987E+04  0.70021759541E+03  0.15894976879E+04  0.90653070252E+02 0.  0.
    5000000    2    1    2    0    0  0.27605454972E+03 -0.13970590987E+04 -0.21855787426E+03  0.15606395273E+04  0.59987327829E+03 0.  0.
         23    2    4    4    0    0  0.48389865854E+02 -0.26643407800E+02  0.89292397532E+02  0.13469829304E+03  0.84374448698E+02 0.  0.
         23    2    4    4    0    0  0.22766468387E+03 -0.13704156909E+04 -0.30785027179E+03  0.14259412342E+04  0.93092639398E+02 0.  0.
          1    1    3    3  502    0 -0.15165016933E+03  0.76092641219E+03  0.33111201838E+03  0.84358873116E+03  0.00000000000E+00 0. -1.
         -1    1    3    3    0  502 -0.12440438040E+03  0.63613268652E+03  0.36910557703E+03  0.74590895672E+03  0.00000000000E+00 0.  1.
         15    1    5    5    0    0 -0.82887815456E+01 -0.22671448699E+02 -0.48871111424E+01  0.24692915379E+02  0.17770000000E+01 0.  1.
        -15    1    5    5    0    0  0.56678647400E+02 -0.39719591013E+01  0.94179508674E+02  0.11000537766E+03  0.17770000000E+01 0. -1.
          4    1    6    6  503    0  0.81147728046E+02 -0.55890997808E+03 -0.79941714168E+02  0.57039985539E+03  0.00000000000E+00 0. -1.
         -4    1    6    6    0  503  0.14651695582E+03 -0.81150571283E+03 -0.22790855762E+03  0.85554137886E+03  0.00000000000E+00 0.  1.
<mgrwt>
<rscale>  0 0.14472602E+04</rscale>
<asrwt>0</asrwt>
<pdfrwt beam="1">  1        1 0.27936899E+00 0.14472602E+04</pdfrwt>
<pdfrwt beam="2">  1       -1 0.20526750E+00 0.14472602E+04</pdfrwt>
<totfact> 0.52340899E-01</totfact>
</mgrwt>
</event>
<event>
12    1  0.8033771E-008  0.1685154E+04  0.7818608E-02  0.8769877E-01
         -2   -1    0    0    0  501 -0.00000000000E+00  0.00000000000E+00  0.16626347114E+04  0.16626347114E+04  0.00000000000E+00 0.  1.
          2   -1    0    0  501    0  0.00000000000E+00 -0.00000000000E+00 -0.20130137524E+04  0.20130137524E+04  0.00000000000E+00 0. -1.
         23    2    1    2    0    0 -0.15729004185E+04  0.45493499594E+03  0.52819920723E+03  0.17228892157E+04  0.91494643783E+02 0.  0.
    5000000    2    1    2    0    0  0.15729004185E+04 -0.45493499594E+03 -0.87857824831E+03  0.19527592481E+04  0.60032271778E+03 0.  0.
         23    2    4    4    0    0  0.11879112651E+04 -0.77496702246E+02 -0.65653009988E+03  0.13625135385E+04  0.90953052604E+02 0.  0.
         23    2    4    4    0    0  0.38498915342E+03 -0.37743829369E+03 -0.22204814843E+03  0.59024570965E+03  0.91696803312E+02 0.  0.
          4    1    3    3  502    0 -0.31993258151E+03  0.10597397600E+03  0.72682543229E+02  0.34477542312E+03  0.00000000000E+00 0.  1.
         -4    1    3    3    0  502 -0.12529678370E+04  0.34896101994E+03  0.45551666400E+03  0.13781137926E+04  0.00000000000E+00 0. -1.
         15    1    5    5    0    0  0.30262449720E+03 -0.31995403241E+01 -0.20865153936E+03  0.36760093303E+03  0.17770000000E+01 0.  1.
        -15    1    5    5    0    0  0.88528676792E+03 -0.74297161922E+02 -0.44787856052E+03  0.99491260542E+03  0.17770000000E+01 0. -1.
          3    1    6    6  503    0  0.24782431790E+03 -0.20773584839E+03 -0.17241843897E+03  0.36646854346E+03  0.00000000000E+00 0. -1.
         -3    1    6    6    0  503  0.13716483552E+03 -0.16970244530E+03 -0.49629709453E+02  0.22377716618E+03  0.00000000000E+00 0.  1.
<mgrwt>
<rscale>  0 0.16851540E+04</rscale>
<asrwt>0</asrwt>
<pdfrwt beam="1">  1        2 0.30969442E+00 0.16851540E+04</pdfrwt>
<pdfrwt beam="2">  1       -2 0.25578996E+00 0.16851540E+04</pdfrwt>
<totfact> 0.35773665E-01</totfact>
</mgrwt>
</event>
<event>
12    1  0.8033771E-008  0.5423234E+03  0.7818608E-02  0.1003287E+00
         -1   -1    0    0    0  501 -0.00000000000E+00  0.00000000000E+00  0.29016043863E+03  0.29016043863E+03  0.00000000000E+00 0.  1.
          1   -1    0    0  501    0  0.00000000000E+00 -0.00000000000E+00 -0.15596425952E+04  0.15596425952E+04  0.00000000000E+00 0. -1.
         23    2    1    2    0    0 -0.62614532932E+02  0.46677374977E+03 -0.85921323985E+03  0.98372139354E+03  0.87533281576E+02 0.  0.
    5000000    2    1    2    0    0  0.62614532932E+02 -0.46677374977E+03 -0.41026891672E+03  0.86608164028E+03  0.59998209173E+03 0.  0.
         23    2    4    4    0    0  0.22808073357E+03 -0.31308356251E+03 -0.81376570594E+01  0.39780755386E+03  0.90235748477E+02 0.  0.
         23    2    4    4    0    0 -0.16546620064E+03 -0.15369018726E+03 -0.40213125966E+03  0.46827408642E+03  0.81063757639E+02 0.  0.
          4    1    3    3  502    0 -0.17667081668E+02  0.90855579573E+02 -0.24849925266E+03  0.26517681023E+03  0.00000000000E+00 0.  1.
         -4    1    3    3    0  502 -0.44947451264E+02  0.37591817019E+03 -0.61071398719E+03  0.71854458331E+03  0.00000000000E+00 0. -1.
         15    1    5    5    0    0  0.95958466250E+02 -0.12505786107E+03 -0.47517747446E+02  0.16464686427E+03  0.17770000000E+01 0. -1.
        -15    1    5    5    0    0  0.13212226732E+03 -0.18802570144E+03  0.39380090387E+02  0.23316068959E+03  0.17770000000E+01 0.  1.
          3    1    6    6  503    0 -0.52941365316E+02 -0.55476079206E+02 -0.21853287432E+03  0.23159663357E+03  0.00000000000E+00 0. -1.
         -3    1    6    6    0  503 -0.11252483532E+03 -0.98214108049E+02 -0.18359838535E+03  0.23667745285E+03  0.00000000000E+00 0.  1.
<mgrwt>
<rscale>  0 0.54232341E+03</rscale>
<asrwt>0</asrwt>
<pdfrwt beam="1">  1        1 0.23994501E+00 0.54232341E+03</pdfrwt>
<pdfrwt beam="2">  1       -1 0.44640069E-01 0.54232341E+03</pdfrwt>
<totfact> 0.31461483E+01</totfact>
</mgrwt>
</event>
<event>
12    1  0.8033771E-008  0.6586973E+03  0.7818608E-02  0.9790595E-01
         -2   -1    0    0    0  501 -0.00000000000E+00  0.00000000000E+00  0.67335116622E+03  0.67335116622E+03  0.00000000000E+00 0.  1.
          2   -1    0    0  501    0  0.00000000000E+00 -0.00000000000E+00 -0.90176497881E+03  0.90176497881E+03  0.00000000000E+00 0. -1.
         23    2    1    2    0    0 -0.43106491256E+03  0.33852162326E+03  0.27324791112E+03  0.62014848229E+03  0.97498055856E+02 0.  0.
    5000000    2    1    2    0    0  0.43106491256E+03 -0.33852162326E+03 -0.50166172371E+03  0.95496766274E+03  0.59990407865E+03 0.  0.
         23    2    4    4    0    0  0.61512736705E+02  0.13753050683E+03 -0.22325470981E+03  0.28439177899E+03  0.91310248138E+02 0.  0.
         23    2    4    4    0    0  0.36955217585E+03 -0.47605213010E+03 -0.27840701390E+03  0.67057588375E+03  0.94694821533E+02 0.  0.
          4    1    3    3  502    0 -0.40903077832E+03  0.28422024880E+03  0.24289830502E+03  0.55415423306E+03  0.00000000000E+00 0. -1.
         -4    1    3    3    0  502 -0.22034134241E+02  0.54301374463E+02  0.30349606104E+02  0.65994249226E+02  0.00000000000E+00 0.  1.
         15    1    5    5    0    0  0.50099974266E+02  0.11138425337E+03 -0.99980718563E+02  0.15784727154E+03  0.17770000000E+01 0. -1.
        -15    1    5    5    0    0  0.11412762439E+02  0.26146253465E+02 -0.12327399125E+03  0.12654450745E+03  0.17770000000E+01 0.  1.
          4    1    6    6  503    0  0.26097402988E+03 -0.39927435406E+03 -0.22190929927E+03  0.52609047814E+03  0.00000000000E+00 0. -1.
         -4    1    6    6    0  503  0.10857814597E+03 -0.76777776036E+02 -0.56497714628E+02  0.14448540561E+03  0.00000000000E+00 0.  1.
<mgrwt>
<rscale>  0 0.65869733E+03</rscale>
<asrwt>0</asrwt>
<pdfrwt beam="1">  1        2 0.13873307E+00 0.65869733E+03</pdfrwt>
<pdfrwt beam="2">  1       -2 0.10359249E+00 0.65869733E+03</pdfrwt>
<totfact> 0.22760951E+01</totfact>
</mgrwt>
</event>
<event>
12    1  0.8033771E-008  0.3000111E+03  0.7818608E-02  0.1085235E+00
         -1   -1    0    0    0  501 -0.00000000000E+00  0.00000000000E+00  0.11015949593E+03  0.11015949593E+03  0.00000000000E+00 0.  1.
          1   -1    0    0  501    0  0.00000000000E+00 -0.00000000000E+00 -0.20431456949E+04  0.20431456949E+04  0.00000000000E+00 0. -1.
         23    2    1    2    0    0  0.23808607426E+03 -0.79971995675E+02 -0.83930131712E+03  0.88087629587E+03  0.91846877235E+02 0.  0.
    5000000    2    1    2    0    0 -0.23808607426E+03  0.79971995675E+02 -0.10936848819E+04  0.12724288950E+04  0.59987346426E+03 0.  0.
         23    2    4    4    0    0 -0.90583317227E+02  0.11978730334E+03 -0.12019964540E+02  0.17643440459E+03  0.91816578983E+02 0.  0.
         23    2    4    4    0    0 -0.14750275703E+03 -0.39815307663E+02 -0.10816649173E+04  0.10959944904E+04  0.88671345622E+02 0.  0.
          4    1    3    3  502    0  0.13718916639E+03 -0.23896305724E+02 -0.32147408338E+03  0.35033910299E+03  0.00000000000E+00 0. -1.
         -4    1    3    3    0  502  0.10089690787E+03 -0.56075689951E+02 -0.51782723375E+03  0.53053719288E+03  0.00000000000E+00 0.  1.
         15    1    5    5    0    0  0.15930495984E+02  0.39492160749E+02 -0.24781218213E+01  0.42693211166E+02  0.17770000000E+01 0.  1.
        -15    1    5    5    0    0 -0.10651381321E+03  0.80295142589E+02 -0.95418427185E+01  0.13374119343E+03  0.17770000000E+01 0. -1.
          3    1    6    6  503    0 -0.77174546096E+02 -0.58155382113E+02 -0.45628415595E+03  0.46640453472E+03  0.00000000000E+00 0. -1.
         -3    1    6    6    0  503 -0.70328210938E+02  0.18340074450E+02 -0.62538076139E+03  0.62958995569E+03  0.00000000000E+00 0.  1.
<mgrwt>
<rscale>  0 0.30001114E+03</rscale>
<asrwt>0</asrwt>
<pdfrwt beam="1">  1        1 0.31433012E+00 0.30001114E+03</pdfrwt>
<pdfrwt beam="2">  1       -1 0.16947614E-01 0.30001114E+03</pdfrwt>
<totfact> 0.83346946E+01</totfact>
</mgrwt>
</event>
<event>
12    1  0.8033771E-008  0.1240900E+04  0.7818608E-02  0.9077791E-01
         -1   -1    0    0    0  501 -0.00000000000E+00  0.00000000000E+00  0.13022081149E+04  0.13022081149E+04  0.00000000000E+00 0.  1.
          1   -1    0    0  501    0  0.00000000000E+00 -0.00000000000E+00 -0.12570638243E+04  0.12570638243E+04  0.00000000000E+00 0. -1.
         23    2    1    2    0    0 -0.75474364606E+02 -0.11892250486E+04 -0.17328100172E+03  0.12073715352E+04  0.88131279172E+02 0.  0.
    5000000    2    1    2    0    0  0.75474364606E+02  0.11892250486E+04  0.21842529223E+03  0.13519004040E+04  0.59997708132E+03 0.  0.
         23    2    4    4    0    0 -0.99293049480E+02  0.10464685309E+04  0.29711793813E+03  0.10960451284E+04  0.89890814224E+02 0.  0.
         23    2    4    4    0    0  0.17476741409E+03  0.14275651776E+03 -0.78692645892E+02  0.25585527565E+03  0.91358180658E+02 0.  0.
          4    1    3    3  502    0 -0.46406541857E+02 -0.30660162376E+03 -0.73202725536E+02  0.31861695160E+03  0.00000000000E+00 0. -1.
         -4    1    3    3    0  502 -0.29067822749E+02 -0.88262342488E+03 -0.10007827618E+03  0.88875458358E+03  0.00000000000E+00 0.  1.
         15    1    5    5    0    0 -0.81287766200E+02  0.10050998016E+04  0.29580273955E+03  0.10508737938E+04  0.17770000000E+01 0.  1.
        -15    1    5    5    0    0 -0.18005283281E+02  0.41368729329E+02  0.13151985766E+01  0.45171334589E+02  0.17770000000E+01 0. -1.
          2    1    6    6  503    0  0.34422158573E+02  0.67617975639E+02 -0.57617962174E+02  0.95272793574E+02  0.00000000000E+00 0. -1.
         -2    1    6    6    0  503  0.14034525551E+03  0.75138542120E+02 -0.21074683719E+02  0.16058248208E+03  0.00000000000E+00 0.  1.
<mgrwt>
<rscale>  0 0.12409000E+04</rscale>
<asrwt>0</asrwt>
<pdfrwt beam="1">  1        1 0.19339443E+00 0.12409000E+04</pdfrwt>
<pdfrwt beam="2">  1       -1 0.20033971E+00 0.12409000E+04</pdfrwt>
<totfact> 0.14180589E+00</totfact>
</mgrwt>
</event>
<event>
12    1  0.8033771E-008  0.7886307E+03  0.7818608E-02  0.9576621E-01
         -1   -1    0    0    0  501 -0.00000000000E+00  0.00000000000E+00  0.17269497647E+03  0.17269497647E+03  0.00000000000E+00 0.  1.
          1   -1    0    0  501    0  0.00000000000E+00 -0.00000000000E+00 -0.40991522775E+04  0.40991522775E+04  0.00000000000E+00 0. -1.
         23    2    1    2    0    0  0.68678536786E+03  0.21348920598E+03 -0.20510831174E+04  0.21755377300E+04  0.93651895104E+02 0.  0.
    5000000    2    1    2    0    0 -0.68678536786E+03 -0.21348920598E+03 -0.18753741836E+04  0.20963095240E+04  0.60019455948E+03 0.  0.
         23    2    4    4    0    0 -0.54150748266E+03 -0.34259884492E+03 -0.17018199221E+04  0.18208391814E+04  0.93058878829E+02 0.  0.
         23    2    4    4    0    0 -0.14527788519E+03  0.12910963894E+03 -0.17355426150E+03  0.27547034259E+03  0.89374857569E+02 0.  0.
          3    1    3    3  502    0  0.41996954361E+03  0.87651341954E+02 -0.12775467037E+04  0.13476582487E+04  0.00000000000E+00 0. -1.
         -3    1    3    3    0  502  0.26681582425E+03  0.12583786403E+03 -0.77353641374E+03  0.82787948125E+03  0.00000000000E+00 0.  1.
         15    1    5    5    0    0 -0.28699273497E+03 -0.13329807884E+03 -0.77109093309E+03  0.83349720610E+03  0.17770000000E+01 0.  1.
        -15    1    5    5    0    0 -0.25451474769E+03 -0.20930076609E+03 -0.93072898899E+03  0.98734197528E+03  0.17770000000E+01 0. -1.
          4    1    6    6  503    0 -0.14123748428E+03  0.88960107098E+02 -0.16399625895E+03  0.23400149694E+03  0.00000000000E+00 0. -1.
         -4    1    6    6    0  503 -0.40404009159E+01  0.40149531840E+02 -0.95580025541E+01  0.41468845648E+02  0.00000000000E+00 0.  1.
<mgrwt>
<rscale>  0 0.78863068E+03</rscale>
<asrwt>0</asrwt>
<pdfrwt beam="1">  1        1 0.63063881E+00 0.78863068E+03</pdfrwt>
<pdfrwt beam="2">  1       -1 0.26568458E-01 0.78863068E+03</pdfrwt>
<totfact> 0.10838857E+00</totfact>
</mgrwt>
</event>
<event>
12    1  0.8033771E-008  0.1319179E+04  0.7818608E-02  0.9014493E-01
         -2   -1    0    0    0  501 -0.00000000000E+00  0.00000000000E+00  0.10769775437E+04  0.10769775437E+04  0.00000000000E+00 0. -1.
          2   -1    0    0  501    0  0.00000000000E+00 -0.00000000000E+00 -0.16736026868E+04  0.16736026868E+04  0.00000000000E+00 0.  1.
         23    2    1    2    0    0  0.12216563390E+04  0.31958186360E+03 -0.11255725254E+03  0.12710925229E+04  0.91816602125E+02 0.  0.
    5000000    2    1    2    0    0 -0.12216563390E+04 -0.31958186360E+03 -0.48406789057E+03  0.14794877077E+04  0.59998781347E+03 0.  0.
         23    2    4    4    0    0 -0.47392654416E+03 -0.39143338252E+03 -0.33849930686E+03  0.70868627769E+03  0.99136255868E+02 0.  0.
         23    2    4    4    0    0 -0.74772979484E+03  0.71851518913E+02 -0.14556858371E+03  0.77080142999E+03  0.93178028761E+02 0.  0.
          4    1    3    3  502    0  0.28706108483E+03  0.90107882347E+02 -0.63429619742E+02  0.30748465578E+03  0.00000000000E+00 0. -1.
         -4    1    3    3    0  502  0.93459525418E+03  0.22947398126E+03 -0.49127632803E+02  0.96360786709E+03  0.00000000000E+00 0.  1.
         15    1    5    5    0    0 -0.34545191936E+03 -0.32251046608E+03 -0.22246484329E+03  0.52234451615E+03  0.17770000000E+01 0. -1.
        -15    1    5    5    0    0 -0.12847462480E+03 -0.68922916437E+02 -0.11603446358E+03  0.18634176154E+03  0.17770000000E+01 0.  1.
          1    1    6    6  503    0 -0.62365057661E+03  0.93963745068E+02 -0.12802165207E+03  0.64355168440E+03  0.00000000000E+00 0. -1.
         -1    1    6    6    0  503 -0.12407921824E+03 -0.22112226155E+02 -0.17546931636E+02  0.12724974559E+03  0.00000000000E+00 0.  1.
<mgrwt>
<rscale>  0 0.13191788E+04</rscale>
<asrwt>0</asrwt>
<pdfrwt beam="1">  1        2 0.25747734E+00 0.13191788E+04</pdfrwt>
<pdfrwt beam="2">  1       -2 0.16568885E+00 0.13191788E+04</pdfrwt>
<totfact> 0.22277960E+00</totfact>
</mgrwt>
</event>
<event>
12    1  0.8033771E-008  0.6655148E+03  0.7818608E-02  0.9778094E-01
          2   -1    0    0  501    0  0.00000000000E+00  0.00000000000E+00  0.13910481942E+04  0.13910481942E+04  0.00000000000E+00 0.  1.
         -2   -1    0    0    0  501 -0.00000000000E+00 -0.00000000000E+00 -0.35237369403E+03  0.35237369403E+03  0.00000000000E+00 0. -1.
         23    2    1    2    0    0 -0.50324602777E+03 -0.19538042014E+03  0.20845888565E+03  0.58594079301E+03  0.91877270678E+02 0.  0.
    5000000    2    1    2    0    0  0.50324602777E+03  0.19538042014E+03  0.83021561450E+03  0.11574810952E+04  0.59922820873E+03 0.  0.
         23    2    4    4    0    0  0.57143387384E+03  0.37969405567E+01  0.53501142758E+03  0.78793464087E+03  0.89736735612E+02 0.  0.
         23    2    4    4    0    0 -0.68187846066E+02  0.19158347958E+03  0.29520418692E+03  0.36954645433E+03  0.89806781092E+02 0.  0.
          3    1    3    3  502    0 -0.89981334818E+02 -0.66974118087E+02  0.66984261507E+02  0.13064862953E+03  0.00000000000E+00 0. -1.
         -3    1    3    3    0  502 -0.41326469295E+03 -0.12840630205E+03  0.14147462414E+03  0.45529216348E+03  0.00000000000E+00 0.  1.
         15    1    5    5    0    0  0.37294131393E+03  0.20571815577E+02  0.40005377223E+03  0.54731581527E+03  0.17770000000E+01 0. -1.
        -15    1    5    5    0    0  0.19849255991E+03 -0.16774875021E+02  0.13495765534E+03  0.24061882561E+03  0.17770000000E+01 0.  1.
          4    1    6    6  503    0 -0.14698894746E+02  0.13395327176E+03  0.13324079135E+03  0.18950631916E+03  0.00000000000E+00 0. -1.
         -4    1    6    6    0  503 -0.53488951320E+02  0.57630207827E+02  0.16196339557E+03  0.18004013517E+03  0.00000000000E+00 0.  1.
<mgrwt>
<rscale>  0 0.66551483E+03</rscale>
<asrwt>0</asrwt>
<pdfrwt beam="1">  1        2 0.21400741E+00 0.66551483E+03</pdfrwt>
<pdfrwt beam="2">  1       -2 0.54211338E-01 0.66551483E+03</pdfrwt>
<totfact> 0.48303787E+01</totfact>
</mgrwt>
</event>
<event>
12    1  0.8033771E-008  0.1438632E+04  0.7818608E-02  0.8926320E-01
         -2   -1    0    0    0  501 -0.00000000000E+00  0.00000000000E+00  0.15323588598E+04  0.15323588598E+04  0.00000000000E+00 0.  1.
          2   -1    0    0  501    0  0.00000000000E+00 -0.00000000000E+00 -0.26610785992E+04  0.26610785992E+04  0.00000000000E+00 0. -1.
         23    2    1    2    0    0 -0.13485414200E+04  0.35960401213E+03 -0.20012273816E+04  0.24415387936E+04  0.91223028550E+02 0.  0.
    5000000    2    1    2    0    0  0.13485414200E+04 -0.35960401213E+03  0.87250764220E+03  0.17518986654E+04  0.60000028416E+03 0.  0.
         23    2    4    4    0    0  0.12045892585E+04 -0.44944564189E+03  0.87745894171E+03  0.15590515403E+04  0.87583354751E+02 0.  0.
         23    2    4    4    0    0  0.14395216149E+03  0.89841629758E+02 -0.49512995094E+01  0.19284712511E+03  0.91497295378E+02 0.  0.
          2    1    3    3  502    0 -0.11827251713E+04  0.29901151221E+03 -0.17911381818E+04  0.21671231395E+04  0.00000000000E+00 0. -1.
         -2    1    3    3    0  502 -0.16581624877E+03  0.60592499914E+02 -0.21008919974E+03  0.27441565416E+03  0.00000000000E+00 0.  1.
         15    1    5    5    0    0  0.19582495370E+03 -0.10482367833E+03  0.16882126491E+03  0.27899676207E+03  0.17770000000E+01 0.  1.
        -15    1    5    5    0    0  0.10087643048E+04 -0.34462196356E+03  0.70863767679E+03  0.12800547782E+04  0.17770000000E+01 0. -1.
          3    1    6    6  503    0  0.13529481165E+03  0.38607404668E+02 -0.67278463886E+01  0.14085624470E+03  0.00000000000E+00 0. -1.
         -3    1    6    6    0  503  0.86573498390E+01  0.51234225090E+02  0.17765468792E+01  0.51990880408E+02  0.00000000000E+00 0.  1.
<mgrwt>
<rscale>  0 0.14386321E+04</rscale>
<asrwt>0</asrwt>
<pdfrwt beam="1">  1        2 0.40939671E+00 0.14386321E+04</pdfrwt>
<pdfrwt beam="2">  1       -2 0.23574752E+00 0.14386321E+04</pdfrwt>
<totfact> 0.20858817E-01</totfact>
</mgrwt>
</event>
<event>
12    1  0.8033771E-008  0.1092039E+04  0.7818608E-02  0.9212986E-01
         -1   -1    0    0    0  501 -0.00000000000E+00  0.00000000000E+00  0.12285219188E+04  0.12285219188E+04  0.00000000000E+00 0.  1.
          1   -1    0    0  501    0  0.00000000000E+00 -0.00000000000E+00 -0.14369339494E+04  0.14369339494E+04  0.00000000000E+00 0. -1.
         23    2    1    2    0    0  0.31949270892E+03  0.10397635325E+04 -0.73528124403E+03  0.13161111681E+04  0.91248585161E+02 0.  0.
    5000000    2    1    2    0    0 -0.31949270892E+03 -0.10397635325E+04  0.52686921340E+03  0.13493447001E+04  0.59996346303E+03 0.  0.
         23    2    4    4    0    0 -0.16770522016E+03 -0.35372758468E+03 -0.87945416309E+02  0.41135945377E+03  0.90741164427E+02 0.  0.
         23    2    4    4    0    0 -0.15178748876E+03 -0.68603594785E+03  0.61481462971E+03  0.93798524631E+03  0.90191628785E+02 0.  0.
          3    1    3    3  502    0  0.11866346042E+03  0.40914620082E+03 -0.34157975423E+03  0.54603878890E+03  0.00000000000E+00 0. -1.
         -3    1    3    3    0  502  0.20082924850E+03  0.63061733172E+03 -0.39370148980E+03  0.77007237918E+03  0.00000000000E+00 0.  1.
         15    1    5    5    0    0 -0.83516556004E+02 -0.19576619871E+03 -0.93020060013E+02  0.23228282110E+03  0.17770000000E+01 0.  1.
        -15    1    5    5    0    0 -0.84188664159E+02 -0.15796138597E+03  0.50746437042E+01  0.17907663267E+03  0.17770000000E+01 0. -1.
          3    1    6    6  503    0 -0.14080112209E+03 -0.54356974917E+03  0.52815963555E+03  0.77087328973E+03  0.00000000000E+00 0. -1.
         -3    1    6    6    0  503 -0.10986366671E+02 -0.14246619868E+03  0.86654994160E+02  0.16711195658E+03  0.00000000000E+00 0.  1.
<mgrwt>
<rscale>  0 0.10920389E+04</rscale>
<asrwt>0</asrwt>
<pdfrwt beam="1">  1        1 0.22106676E+00 0.10920389E+04</pdfrwt>
<pdfrwt beam="2">  1       -1 0.18900337E+00 0.10920389E+04</pdfrwt>
<totfact> 0.12910918E+00</totfact>
</mgrwt>
</event>
<event>
12    1  0.8033771E-008  0.1315580E+04  0.7818608E-02  0.9017301E-01
         -1   -1    0    0    0  501 -0.00000000000E+00  0.00000000000E+00  0.85838629888E+03  0.85838629888E+03  0.00000000000E+00 0.  1.
          1   -1    0    0  501    0  0.00000000000E+00 -0.00000000000E+00 -0.29620656361E+04  0.29620656361E+04  0.00000000000E+00 0. -1.
         23    2    1    2    0    0 -0.12739915781E+04  0.19177835230E+02 -0.20447051930E+04  0.24109350098E+04  0.91465649811E+02 0.  0.
    5000000    2    1    2    0    0  0.12739915781E+04 -0.19177835230E+02 -0.58974144271E+02  0.14095169252E+04  0.59986471994E+03 0.  0.
         23    2    4    4    0    0  0.19330473198E+02 -0.31640040124E+02  0.10187338586E+03  0.14108147922E+03  0.90283097525E+02 0.  0.
         23    2    4    4    0    0  0.12546611049E+04  0.12462204894E+02 -0.16084753013E+03  0.12684354459E+04  0.93417117845E+02 0.  0.
          2    1    3    3  502    0 -0.74818450585E+03  0.41480304347E+02 -0.11376045741E+04  0.13622205539E+04  0.00000000000E+00 0.  1.
         -2    1    3    3    0  502 -0.52580707224E+03 -0.22302469117E+02 -0.90710061888E+03  0.10487144560E+04  0.00000000000E+00 0. -1.
         15    1    5    5    0    0  0.30300342797E+02 -0.59932172678E+02  0.71575996463E+02  0.98164439051E+02  0.17770000000E+01 0.  1.
        -15    1    5    5    0    0 -0.10969869598E+02  0.28292132554E+02  0.30297389400E+02  0.42917040170E+02  0.17770000000E+01 0. -1.
          3    1    6    6  503    0  0.20053077319E+03  0.35190569568E+02 -0.34893976925E+02  0.20656368705E+03  0.00000000000E+00 0. -1.
         -3    1    6    6    0  503  0.10541303317E+04 -0.22728364674E+02 -0.12595355321E+03  0.10618717589E+04  0.00000000000E+00 0.  1.
<mgrwt>
<rscale>  0 0.13155800E+04</rscale>
<asrwt>0</asrwt>
<pdfrwt beam="1">  1        1 0.45570241E+00 0.13155800E+04</pdfrwt>
<pdfrwt beam="2">  1       -1 0.13205943E+00 0.13155800E+04</pdfrwt>
<totfact> 0.30322894E-01</totfact>
</mgrwt>
</event>
<event>
12    1  0.8033771E-008  0.6112670E+03  0.7818608E-02  0.9882302E-01
         -2   -1    0    0    0  501 -0.00000000000E+00  0.00000000000E+00  0.33245902688E+03  0.33245902688E+03  0.00000000000E+00 0.  1.
          2   -1    0    0  501    0  0.00000000000E+00 -0.00000000000E+00 -0.16372210411E+04  0.16372210411E+04  0.00000000000E+00 0. -1.
         23    2    1    2    0    0  0.40226505450E+03  0.37287769988E+03 -0.90912494678E+03  0.10656517358E+04  0.90832262764E+02 0.  0.
    5000000    2    1    2    0    0 -0.40226505450E+03 -0.37287769988E+03 -0.39563706746E+03  0.90402833223E+03  0.59990297814E+03 0.  0.
         23    2    4    4    0    0 -0.21139078446E+03 -0.40335015520E+03 -0.48734750828E+03  0.67323061540E+03  0.91402714571E+02 0.  0.
         23    2    4    4    0    0 -0.19087427004E+03  0.30472455315E+02  0.91710440825E+02  0.23079771682E+03  0.86574959658E+02 0.  0.
          4    1    3    3  502    0  0.15232751833E+03  0.91928989404E+02 -0.33559258400E+03  0.37983811600E+03  0.00000000000E+00 0. -1.
         -4    1    3    3    0  502  0.24993753617E+03  0.28094871048E+03 -0.57353236278E+03  0.68581361977E+03  0.00000000000E+00 0.  1.
         15    1    5    5    0    0 -0.76964816734E+02 -0.10504950365E+03 -0.19476884290E+03  0.23430117611E+03  0.17770000000E+01 0.  1.
        -15    1    5    5    0    0 -0.13442596773E+03 -0.29830065155E+03 -0.29257866538E+03  0.43892943929E+03  0.17770000000E+01 0. -1.
          2    1    6    6  503    0 -0.51356615306E+02 -0.29569080254E+02  0.17769629713E+02  0.61867537392E+02  0.00000000000E+00 0. -1.
         -2    1    6    6    0  503 -0.13951765473E+03  0.60041535570E+02  0.73940811111E+02  0.16893017943E+03  0.00000000000E+00 0.  1.
<mgrwt>
<rscale>  0 0.61126703E+03</rscale>
<asrwt>0</asrwt>
<pdfrwt beam="1">  1        2 0.25188016E+00 0.61126703E+03</pdfrwt>
<pdfrwt beam="2">  1       -2 0.51147543E-01 0.61126703E+03</pdfrwt>
<totfact> 0.40045287E+01</totfact>
</mgrwt>
</event>
<event>
12    1  0.8033771E-008  0.1643078E+04  0.7818608E-02  0.8794512E-01
          2   -1    0    0  501    0  0.00000000000E+00  0.00000000000E+00  0.15274732421E+04  0.15274732421E+04  0.00000000000E+00 0. -1.
         -2   -1    0    0    0  501 -0.00000000000E+00 -0.00000000000E+00 -0.18977072160E+04  0.18977072160E+04  0.00000000000E+00 0.  1.
         23    2    1    2    0    0  0.14203274764E+04  0.77903003507E+03 -0.48602625552E+03  0.16937350856E+04  0.91099304483E+02 0.  0.
    5000000    2    1    2    0    0 -0.14203274764E+04 -0.77903003507E+03  0.11579228160E+03  0.17314453725E+04  0.60023103010E+03 0.  0.
         23    2    4    4    0    0 -0.12872991559E+04 -0.78574892236E+03 -0.33233639221E+02  0.15112157055E+04  0.90155132480E+02 0.  0.
         23    2    4    4    0    0 -0.13302832049E+03  0.67188872814E+01  0.14902592082E+03  0.22022966697E+03  0.92470014791E+02 0.  0.
          1    1    3    3  502    0  0.12396206889E+04  0.64482997211E+03 -0.42535753257E+03  0.14606143146E+04  0.00000000000E+00 0. -1.
         -1    1    3    3    0  502  0.18070678748E+03  0.13420006297E+03 -0.60668722950E+02  0.23312077103E+03  0.00000000000E+00 0.  1.
         15    1    5    5    0    0 -0.39931829355E+03 -0.27880074212E+03  0.18896108200E+02  0.48738606259E+03  0.17770000000E+01 0.  1.
        -15    1    5    5    0    0 -0.88798086237E+03 -0.50694818023E+03 -0.52129747421E+02  0.10238296429E+04  0.17770000000E+01 0. -1.
          2    1    6    6  503    0 -0.13364749744E+03  0.24986569956E+02  0.10258802764E+03  0.17032406074E+03  0.00000000000E+00 0. -1.
         -2    1    6    6    0  503  0.61917694494E+00 -0.18267682674E+02  0.46437893177E+02  0.49905606229E+02  0.00000000000E+00 0.  1.
<mgrwt>
<rscale>  0 0.16430785E+04</rscale>
<asrwt>0</asrwt>
<pdfrwt beam="1">  1        2 0.23499588E+00 0.16430785E+04</pdfrwt>
<pdfrwt beam="2">  1       -2 0.29195496E+00 0.16430785E+04</pdfrwt>
<totfact> 0.40418551E-01</totfact>
</mgrwt>
</event>
<event>
12    1  0.8033771E-008  0.7881322E+03  0.7818608E-02  0.9577356E-01
          2   -1    0    0  501    0  0.00000000000E+00  0.00000000000E+00  0.11589202446E+04  0.11589202446E+04  0.00000000000E+00 0. -1.
         -2   -1    0    0    0  501 -0.00000000000E+00 -0.00000000000E+00 -0.66589219518E+03  0.66589219518E+03  0.00000000000E+00 0.  1.
         23    2    1    2    0    0  0.84383809308E+02  0.69667116007E+03  0.55515983948E+03  0.89941070134E+03  0.90916608884E+02 0.  0.
    5000000    2    1    2    0    0 -0.84383809308E+02 -0.69667116007E+03 -0.62131790105E+02  0.92540173839E+03  0.60003057050E+03 0.  0.
         23    2    4    4    0    0 -0.13643634514E+03  0.56741847636E+01  0.10370763716E+03  0.19456319893E+03  0.91937433744E+02 0.  0.
         23    2    4    4    0    0  0.52052535832E+02 -0.70234534483E+03 -0.16583942727E+03  0.73083853946E+03  0.10307184501E+03 0.  0.
          3    1    3    3  502    0  0.76174426772E+02  0.40723218257E+03  0.28057417787E+03  0.50036233182E+03  0.00000000000E+00 0. -1.
         -3    1    3    3    0  502  0.82093825363E+01  0.28943897749E+03  0.27458566161E+03  0.39904836952E+03  0.00000000000E+00 0.  1.
         15    1    5    5    0    0 -0.14586707339E+02  0.33885714739E+02  0.39067719728E+02  0.53762981206E+02  0.17770000000E+01 0.  1.
        -15    1    5    5    0    0 -0.12184963780E+03 -0.28211529975E+02  0.64639917437E+02  0.14080021772E+03  0.17770000000E+01 0. -1.
          3    1    6    6  503    0 -0.25874175966E+02 -0.25522924990E+03 -0.81833554100E+02  0.26927341786E+03  0.00000000000E+00 0. -1.
         -3    1    6    6    0  503  0.77926711798E+02 -0.44711609493E+03 -0.84005873170E+02  0.46156512161E+03  0.00000000000E+00 0.  1.
<mgrwt>
<rscale>  0 0.78813220E+03</rscale>
<asrwt>0</asrwt>
<pdfrwt beam="1">  1        2 0.17829542E+00 0.78813220E+03</pdfrwt>
<pdfrwt beam="2">  1       -2 0.10244495E+00 0.78813220E+03</pdfrwt>
<totfact> 0.15860863E+01</totfact>
</mgrwt>
</event>
<event>
12    1  0.8033771E-008  0.6047555E+03  0.7818608E-02  0.9895589E-01
         -2   -1    0    0    0  501 -0.00000000000E+00  0.00000000000E+00  0.62033000435E+03  0.62033000435E+03  0.00000000000E+00 0.  1.
          2   -1    0    0  501    0  0.00000000000E+00 -0.00000000000E+00 -0.62280990698E+03  0.62280990698E+03  0.00000000000E+00 0. -1.
         23    2    1    2    0    0  0.24304828642E+02 -0.45512417755E+03  0.11650388301E+03  0.47996470725E+03  0.95206217018E+02 0.  0.
    5000000    2    1    2    0    0 -0.24304828642E+02  0.45512417755E+03 -0.11898378564E+03  0.76317520408E+03  0.60045858241E+03 0.  0.
         23    2    4    4    0    0 -0.16556412609E+03  0.53542268583E+03 -0.92999362287E+02  0.57508108817E+03  0.89333332155E+02 0.  0.
         23    2    4    4    0    0  0.14125929744E+03 -0.80298508280E+02 -0.25984423351E+02  0.18809411591E+03  0.91116225982E+02 0.  0.
          2    1    3    3  502    0  0.35653361835E+02 -0.32352840079E+03  0.12242100826E+03  0.34774802888E+03  0.00000000000E+00 0.  1.
         -2    1    3    3    0  502 -0.11348533193E+02 -0.13159577677E+03 -0.59171252436E+01  0.13221667837E+03  0.00000000000E+00 0. -1.
         15    1    5    5    0    0 -0.97326475579E+02  0.18308502028E+03 -0.15595200825E+02  0.20793974011E+03  0.17770000000E+01 0. -1.
        -15    1    5    5    0    0 -0.68237650507E+02  0.35233766556E+03 -0.77404161462E+02  0.36714134806E+03  0.17770000000E+01 0.  1.
          3    1    6    6  503    0  0.12927774877E+03 -0.28304604462E+02 -0.25279744531E+02  0.13473289296E+03  0.00000000000E+00 0. -1.
         -3    1    6    6    0  503  0.11981548672E+02 -0.51993903818E+02 -0.70467882010E+00  0.53361222954E+02  0.00000000000E+00 0.  1.
<mgrwt>
<rscale>  0 0.60475550E+03</rscale>
<asrwt>0</asrwt>
<pdfrwt beam="1">  1        2 0.95816909E-01 0.60475550E+03</pdfrwt>
<pdfrwt beam="2">  1       -2 0.95435385E-01 0.60475550E+03</pdfrwt>
<totfact> 0.44780495E+01</totfact>
</mgrwt>
</event>
<event>
12    1  0.8033771E-008  0.5029374E+03  0.7818608E-02  0.1013015E+00
         -2   -1    0    0    0  501 -0.00000000000E+00  0.00000000000E+00  0.25891850662E+03  0.25891850662E+03  0.00000000000E+00 0.  1.
          2   -1    0    0  501    0  0.00000000000E+00 -0.00000000000E+00 -0.19558298835E+04  0.19558298835E+04  0.00000000000E+00 0. -1.
         23    2    1    2    0    0  0.44096086277E+03  0.10469326570E+02 -0.12861469881E+04  0.13642537980E+04  0.11161657949E+03 0.  0.
    5000000    2    1    2    0    0 -0.44096086277E+03 -0.10469326570E+02 -0.41076438869E+03  0.85049459213E+03  0.60004798053E+03 0.  0.
         23    2    4    4    0    0 -0.59668544456E+02 -0.11387444696E+03  0.11081144874E+03  0.18974830611E+03  0.84838184995E+02 0.  0.
         23    2    4    4    0    0 -0.38129231831E+03  0.10340512039E+03 -0.52157583743E+03  0.66074628602E+03  0.92020918096E+02 0.  0.
          2    1    3    3  502    0  0.36687184350E+03 -0.30696216902E+02 -0.10927289209E+04  0.11530800935E+04  0.00000000000E+00 0.  1.
         -2    1    3    3    0  502  0.74089019268E+02  0.41165543472E+02 -0.19341806722E+03  0.21117370450E+03  0.00000000000E+00 0. -1.
         15    1    5    5    0    0 -0.51899970282E+02 -0.16027959748E+02  0.52509492458E+02  0.75570542780E+02  0.17770000000E+01 0. -1.
        -15    1    5    5    0    0 -0.77685741734E+01 -0.97846487212E+02  0.58301956285E+02  0.11417776333E+03  0.17770000000E+01 0.  1.
          3    1    6    6  503    0 -0.49226631645E+02  0.37548824934E+02 -0.46676963649E+02  0.77536536243E+02  0.00000000000E+00 0. -1.
         -3    1    6    6    0  503 -0.33206568667E+03  0.65856295456E+02 -0.47489887378E+03  0.58320974978E+03  0.00000000000E+00 0.  1.
<mgrwt>
<rscale>  0 0.50293741E+03</rscale>
<asrwt>0</asrwt>
<pdfrwt beam="1">  1        2 0.30089689E+00 0.50293741E+03</pdfrwt>
<pdfrwt beam="2">  1       -2 0.39833618E-01 0.50293741E+03</pdfrwt>
<totfact> 0.45035706E+01</totfact>
</mgrwt>
</event>
<event>
12    1  0.8033771E-008  0.7708636E+03  0.7818608E-02  0.9603176E-01
         -1   -1    0    0    0  501 -0.00000000000E+00  0.00000000000E+00  0.24001355586E+03  0.24001355586E+03  0.00000000000E+00 0.  1.
          1   -1    0    0  501    0  0.00000000000E+00 -0.00000000000E+00 -0.25203045523E+04  0.25203045523E+04  0.00000000000E+00 0. -1.
         23    2    1    2    0    0  0.41536683832E+03  0.50884107765E+03 -0.94990185019E+03  0.11598853013E+04  0.10757106665E+03 0.  0.
    5000000    2    1    2    0    0 -0.41536683832E+03 -0.50884107765E+03 -0.13303891463E+04  0.16004328070E+04  0.60000086360E+03 0.  0.
         23    2    4    4    0    0  0.31045973404E+02 -0.40164380480E+03 -0.51278870467E+03  0.65844173905E+03  0.91168358995E+02 0.  0.
         23    2    4    4    0    0 -0.44641281172E+03 -0.10719727284E+03 -0.81760044163E+03  0.94199106791E+03  0.90005755888E+02 0.  0.
          4    1    3    3  502    0  0.14506432992E+03  0.24629242150E+03 -0.35640584661E+03  0.45686841016E+03  0.00000000000E+00 0. -1.
         -4    1    3    3    0  502  0.27030250840E+03  0.26254865615E+03 -0.59349600358E+03  0.70301689109E+03  0.00000000000E+00 0.  1.
         15    1    5    5    0    0  0.57398915460E+01 -0.37529334291E+03 -0.47992443766E+03  0.60926895800E+03  0.17770000000E+01 0. -1.
        -15    1    5    5    0    0  0.25306081858E+02 -0.26350461889E+02 -0.32864267006E+02  0.49172781044E+02  0.17770000000E+01 0.  1.
          1    1    6    6  503    0 -0.35258511512E+03 -0.12000849672E+03 -0.67179276453E+03  0.76813008089E+03  0.00000000000E+00 0. -1.
         -1    1    6    6    0  503 -0.93827696604E+02  0.12811223877E+02 -0.14580767710E+03  0.17386098702E+03  0.00000000000E+00 0.  1.
<mgrwt>
<rscale>  0 0.77086357E+03</rscale>
<asrwt>0</asrwt>
<pdfrwt beam="1">  1        1 0.38773915E+00 0.77086357E+03</pdfrwt>
<pdfrwt beam="2">  1       -1 0.36925163E-01 0.77086357E+03</pdfrwt>
<totfact> 0.97068890E+00</totfact>
</mgrwt>
</event>
<event>
12    1  0.8033771E-008  0.1621405E+04  0.7818608E-02  0.8807505E-01
         -2   -1    0    0    0  501 -0.00000000000E+00  0.00000000000E+00  0.13303203113E+04  0.13303203113E+04  0.00000000000E+00 0.  1.
          2   -1    0    0  501    0  0.00000000000E+00 -0.00000000000E+00 -0.26911924768E+04  0.26911924768E+04  0.00000000000E+00 0. -1.
         23    2    1    2    0    0 -0.69973896822E+02 -0.15935496988E+04 -0.16458940203E+04  0.22936817653E+04  0.87817570206E+02 0.  0.
    5000000    2    1    2    0    0  0.69973896822E+02  0.15935496988E+04  0.28502185482E+03  0.17278310228E+04  0.59988798684E+03 0.  0.
         23    2    4    4    0    0 -0.13651266452E+03  0.10366519356E+04 -0.27834859266E+02  0.10502196053E+04  0.94358343010E+02 0.  0.
         23    2    4    4    0    0  0.20648656134E+03  0.55689776323E+03  0.31285671409E+03  0.67761141746E+03  0.92228470788E+02 0.  0.
          1    1    3    3  502    0 -0.71120583850E+02 -0.79061804206E+03 -0.78292782006E+03  0.11149488765E+04  0.00000000000E+00 0. -1.
         -1    1    3    3    0  502  0.11466870281E+01 -0.80293165672E+03 -0.86296620027E+03  0.11787328888E+04  0.00000000000E+00 0.  1.
         15    1    5    5    0    0 -0.90293276310E+02  0.71847889692E+03  0.24105959605E+02  0.72453368181E+03  0.17770000000E+01 0.  1.
        -15    1    5    5    0    0 -0.46219388205E+02  0.31817303864E+03 -0.51940818871E+02  0.32568592348E+03  0.17770000000E+01 0. -1.
          3    1    6    6  503    0  0.10541882274E+03  0.16583513029E+03  0.87760647305E+02  0.21521233664E+03  0.00000000000E+00 0. -1.
         -3    1    6    6    0  503  0.10106773860E+03  0.39106263294E+03  0.22509606678E+03  0.46239908082E+03  0.00000000000E+00 0.  1.
<mgrwt>
<rscale>  0 0.16214051E+04</rscale>
<asrwt>0</asrwt>
<pdfrwt beam="1">  1        2 0.41402960E+00 0.16214051E+04</pdfrwt>
<pdfrwt beam="2">  1       -2 0.20466467E+00 0.16214051E+04</pdfrwt>
<totfact> 0.30906311E-01</totfact>
</mgrwt>
</event>
<event>
12    1  0.8033771E-008  0.7938947E+03  0.7818608E-02  0.9568897E-01
         -2   -1    0    0    0  501 -0.00000000000E+00  0.00000000000E+00  0.25402764613E+03  0.25402764613E+03  0.00000000000E+00 0.  1.
          2   -1    0    0  501    0  0.00000000000E+00 -0.00000000000E+00 -0.39510039597E+04  0.39510039597E+04  0.00000000000E+00 0. -1.
         23    2    1    2    0    0 -0.84580883932E+02 -0.73875967010E+03 -0.27856458022E+04  0.28846151900E+04  0.90898200434E+02 0.  0.
    5000000    2    1    2    0    0  0.84580883932E+02  0.73875967010E+03 -0.91133051140E+03  0.13204164159E+04  0.60004702671E+03 0.  0.
         23    2    4    4    0    0  0.20692404326E+03  0.59590759868E+03 -0.91084455464E+03  0.11117180362E+04  0.91409865786E+02 0.  0.
         23    2    4    4    0    0 -0.12234315933E+03  0.14285207142E+03 -0.48595675744E+00  0.20869837964E+03  0.90444538627E+02 0.  0.
          2    1    3    3  502    0 -0.97920979359E+02 -0.56959752586E+03 -0.22263920818E+04  0.23001851146E+04  0.00000000000E+00 0. -1.
         -2    1    3    3    0  502  0.13340095427E+02 -0.16916214424E+03 -0.55925372044E+03  0.58443007539E+03  0.00000000000E+00 0.  1.
         15    1    5    5    0    0  0.85476809191E+02  0.29477560609E+03 -0.51744123033E+03  0.60162075050E+03  0.17770000000E+01 0. -1.
        -15    1    5    5    0    0  0.12144723407E+03  0.30113199259E+03 -0.39340332430E+03  0.51009728575E+03  0.17770000000E+01 0.  1.
          3    1    6    6  503    0 -0.12830791978E+03  0.93380926708E+02 -0.40366065464E+01  0.15874260280E+03  0.00000000000E+00 0. -1.
         -3    1    6    6    0  503  0.59647604475E+01  0.49471144711E+02  0.35506497890E+01  0.49955776844E+02  0.00000000000E+00 0.  1.
<mgrwt>
<rscale>  0 0.79389469E+03</rscale>
<asrwt>0</asrwt>
<pdfrwt beam="1">  1        2 0.60784670E+00 0.79389469E+03</pdfrwt>
<pdfrwt beam="2">  1       -2 0.39081181E-01 0.79389469E+03</pdfrwt>
<totfact> 0.25394194E+00</totfact>
</mgrwt>
</event>
<event>
12    1  0.8033771E-008  0.6057971E+03  0.7818608E-02  0.9893451E-01
         -1   -1    0    0    0  501 -0.00000000000E+00  0.00000000000E+00  0.13458176755E+04  0.13458176755E+04  0.00000000000E+00 0.  1.
          1   -1    0    0  501    0  0.00000000000E+00 -0.00000000000E+00 -0.27735958831E+03  0.27735958831E+03  0.00000000000E+00 0. -1.
         23    2    1    2    0    0  0.41641059581E+03  0.19166880954E+03  0.41007738590E+03  0.62205028440E+03  0.92996650727E+02 0.  0.
    5000000    2    1    2    0    0 -0.41641059581E+03 -0.19166880954E+03  0.65838070125E+03  0.10011269794E+04  0.59887842187E+03 0.  0.
         23    2    4    4    0    0 -0.36769755456E+03 -0.37808042605E+03  0.41533850423E+03  0.67747969178E+03  0.91248887637E+02 0.  0.
         23    2    4    4    0    0 -0.48713041251E+02  0.18641161651E+03  0.24304219703E+03  0.32364728758E+03  0.92497600338E+02 0.  0.
          1    1    3    3  502    0  0.13092098704E+03  0.95295327399E+02  0.10346500600E+03  0.19216272203E+03  0.00000000000E+00 0.  1.
         -1    1    3    3    0  502  0.28548960877E+03  0.96373482142E+02  0.30661237989E+03  0.42988756237E+03  0.00000000000E+00 0. -1.
         15    1    5    5    0    0 -0.19146537914E+03 -0.25887480946E+03  0.26391274239E+03  0.41632709701E+03  0.17770000000E+01 0. -1.
        -15    1    5    5    0    0 -0.17623217541E+03 -0.11920561659E+03  0.15142576184E+03  0.26115259477E+03  0.17770000000E+01 0.  1.
          1    1    6    6  503    0  0.19803177531E+02  0.10648522388E+03  0.12907852525E+03  0.16850084399E+03  0.00000000000E+00 0. -1.
         -1    1    6    6    0  503 -0.68516218782E+02  0.79926392623E+02  0.11396367178E+03  0.15514644359E+03  0.00000000000E+00 0.  1.
<mgrwt>
<rscale>  0 0.60579706E+03</rscale>
<asrwt>0</asrwt>
<pdfrwt beam="1">  1        1 0.42670707E-01 0.60579706E+03</pdfrwt>
<pdfrwt beam="2">  1       -1 0.20704887E+00 0.60579706E+03</pdfrwt>
<totfact> 0.13707320E+01</totfact>
</mgrwt>
</event>
<event>
12    1  0.8033771E-008  0.7595698E+03  0.7818608E-02  0.9620455E-01
          1   -1    0    0  501    0  0.00000000000E+00  0.00000000000E+00  0.14946032750E+04  0.14946032750E+04  0.00000000000E+00 0. -1.
         -1   -1    0    0    0  501 -0.00000000000E+00 -0.00000000000E+00 -0.53572281107E+03  0.53572281107E+03  0.00000000000E+00 0.  1.
         23    2    1    2    0    0  0.64280391051E+03  0.14529829012E+03  0.92351349618E+03  0.11383080912E+04  0.92518498164E+02 0.  0.
    5000000    2    1    2    0    0 -0.64280391051E+03 -0.14529829012E+03  0.35366967725E+02  0.89201799480E+03  0.60011400598E+03 0.  0.
         23    2    4    4    0    0 -0.11813275758E+03  0.19271922468E+03  0.90962256052E+02  0.25883033258E+03  0.87309570273E+02 0.  0.
         23    2    4    4    0    0 -0.52467115293E+03 -0.33801751480E+03 -0.55595288327E+02  0.63318766222E+03  0.91104997005E+02 0.  0.
          4    1    3    3  502    0  0.31834485197E+03  0.10021228587E+03  0.40246254461E+03  0.52284036458E+03  0.00000000000E+00 0. -1.
         -4    1    3    3    0  502  0.32445905854E+03  0.45086004248E+02  0.52105095156E+03  0.61546772667E+03  0.00000000000E+00 0.  1.
         15    1    5    5    0    0 -0.77875308193E+01  0.40568080045E+02 -0.13870615288E+02  0.43611540357E+02  0.17770000000E+01 0. -1.
        -15    1    5    5    0    0 -0.11034522676E+03  0.15215114464E+03  0.10483287134E+03  0.21521879222E+03  0.17770000000E+01 0.  1.
          2    1    6    6  503    0 -0.21086078008E+03 -0.17959725059E+03  0.19019538007E+01  0.27698566466E+03  0.00000000000E+00 0.  1.
         -2    1    6    6    0  503 -0.31381037285E+03 -0.15842026421E+03 -0.57497242128E+02  0.35620199757E+03  0.00000000000E+00 0. -1.
<mgrwt>
<rscale>  0 0.75956975E+03</rscale>
<asrwt>0</asrwt>
<pdfrwt beam="1">  1        1 0.22993896E+00 0.75956975E+03</pdfrwt>
<pdfrwt beam="2">  1       -1 0.82418894E-01 0.75956975E+03</pdfrwt>
<totfact> 0.10012762E+01</totfact>
</mgrwt>
</event>
<event>
12    1  0.8033771E-008  0.4236590E+03  0.7818608E-02  0.1035882E+00
          1   -1    0    0  501    0  0.00000000000E+00  0.00000000000E+00  0.13633197082E+04  0.13633197082E+04  0.00000000000E+00 0. -1.
         -1   -1    0    0    0  501 -0.00000000000E+00 -0.00000000000E+00 -0.58896433727E+03  0.58896433727E+03  0.00000000000E+00 0.  1.
         23    2    1    2    0    0 -0.30920181349E+02  0.28534074369E+03  0.11500318084E+04  0.11888668243E+04  0.91955250055E+02 0.  0.
    5000000    2    1    2    0    0  0.30920181349E+02 -0.28534074369E+03 -0.37567643747E+03  0.76341722115E+03  0.59941443947E+03 0.  0.
         23    2    4    4    0    0  0.52591188512E+02 -0.40221677429E+03 -0.67892504892E+02  0.42112606218E+03  0.90518514131E+02 0.  0.
         23    2    4    4    0    0 -0.21671007163E+02  0.11687603060E+03 -0.30778393258E+03  0.34229115897E+03  0.91118874392E+02 0.  0.
          3    1    3    3  502    0 -0.62928298960E+01  0.88845075997E+02  0.54555437013E+03  0.55277718658E+03  0.00000000000E+00 0. -1.
         -3    1    3    3    0  502 -0.24627351453E+02  0.19649566769E+03  0.60447743829E+03  0.63608963776E+03  0.00000000000E+00 0.  1.
         15    1    5    5    0    0 -0.16313182719E+02 -0.11462397495E+03 -0.45947175810E+02  0.12457558451E+03  0.17770000000E+01 0.  1.
        -15    1    5    5    0    0  0.68904371231E+02 -0.28759279934E+03 -0.21945329082E+02  0.29655047766E+03  0.17770000000E+01 0. -1.
          1    1    6    6  503    0  0.27173145694E+02  0.64311378784E+01 -0.75341347331E+02  0.80349598624E+02  0.00000000000E+00 0. -1.
         -1    1    6    6    0  503 -0.48844152857E+02  0.11044489272E+03 -0.23244258525E+03  0.26194156034E+03  0.00000000000E+00 0.  1.
<mgrwt>
<rscale>  0 0.42365897E+03</rscale>
<asrwt>0</asrwt>
<pdfrwt beam="1">  1        1 0.20974149E+00 0.42365897E+03</pdfrwt>
<pdfrwt beam="2">  1       -1 0.90609898E-01 0.42365897E+03</pdfrwt>
<totfact> 0.10720030E+01</totfact>
</mgrwt>
</event>
<event>
12    1  0.8033771E-008  0.5953800E+03  0.7818608E-02  0.9915038E-01
         -2   -1    0    0    0  501 -0.00000000000E+00  0.00000000000E+00  0.20577542336E+03  0.20577542336E+03  0.00000000000E+00 0. -1.
          2   -1    0    0  501    0  0.00000000000E+00 -0.00000000000E+00 -0.36907210941E+04  0.36907210941E+04  0.00000000000E+00 0.  1.
         23    2    1    2    0    0 -0.13782086753E+03 -0.44997756794E+03 -0.18734074191E+03  0.51179423823E+03  0.73228311008E+02 0.  0.
    5000000    2    1    2    0    0  0.13782086753E+03  0.44997756794E+03 -0.32976049288E+04  0.33847022792E+04  0.60044720764E+03 0.  0.
         23    2    4    4    0    0  0.33515901149E+03  0.24849679885E+03 -0.14015963881E+04  0.14655596798E+04  0.96491025331E+02 0.  0.
         23    2    4    4    0    0 -0.19733814396E+03  0.20148076908E+03 -0.18960085407E+04  0.19191425994E+04  0.93397467508E+02 0.  0.
          1    1    3    3  502    0 -0.12782344821E+03 -0.30402681162E+03 -0.12332248637E+03  0.35210732986E+03  0.00000000000E+00 0. -1.
         -1    1    3    3    0  502 -0.99974193167E+01 -0.14595075631E+03 -0.64018255541E+02  0.15968690837E+03  0.00000000000E+00 0.  1.
         15    1    5    5    0    0  0.58629445811E+02  0.77967735189E+02 -0.43558865446E+03  0.44638213816E+03  0.17770000000E+01 0. -1.
        -15    1    5    5    0    0  0.27652956568E+03  0.17052906366E+03 -0.96600773365E+03  0.10191775417E+04  0.17770000000E+01 0.  1.
          3    1    6    6  503    0 -0.65720344084E+02  0.21324184366E+02 -0.61269261064E+03  0.61657612636E+03  0.00000000000E+00 0. -1.
         -3    1    6    6    0  503 -0.13161779988E+03  0.18015658472E+03 -0.12833159301E+04  0.13025664730E+04  0.00000000000E+00 0.  1.
<mgrwt>
<rscale>  0 0.59537997E+03</rscale>
<asrwt>0</asrwt>
<pdfrwt beam="1">  1        2 0.56780323E+00 0.59537997E+03</pdfrwt>
<pdfrwt beam="2">  1       -2 0.31657758E-01 0.59537997E+03</pdfrwt>
<totfact> 0.62105561E+00</totfact>
</mgrwt>
</event>
<event>
12    1  0.8033771E-008  0.1040344E+04  0.7818608E-02  0.9265370E-01
          2   -1    0    0  501    0  0.00000000000E+00  0.00000000000E+00  0.19523845800E+04  0.19523845800E+04  0.00000000000E+00 0. -1.
         -2   -1    0    0    0  501 -0.00000000000E+00 -0.00000000000E+00 -0.69536705359E+03  0.69536705359E+03  0.00000000000E+00 0.  1.
         23    2    1    2    0    0  0.64963313616E+03  0.70845516006E+03  0.13712286085E+02  0.96563086487E+03  0.91230559464E+02 0.  0.
    5000000    2    1    2    0    0 -0.64963313616E+03 -0.70845516006E+03  0.12433052403E+04  0.16821207687E+04  0.59982533665E+03 0.  0.
         23    2    4    4    0    0 -0.38640283243E+02 -0.42659005191E+03  0.35400809864E+03  0.56325505423E+03  0.91991186149E+02 0.  0.
         23    2    4    4    0    0 -0.61099285292E+03 -0.28186510815E+03  0.88929714167E+03  0.11188657145E+04  0.90834329016E+02 0.  0.
          3    1    3    3  502    0  0.32818479214E+03  0.40871465611E+03 -0.22300499237E+02  0.52464296448E+03  0.00000000000E+00 0. -1.
         -3    1    3    3    0  502  0.32144834402E+03  0.29974050395E+03  0.36012785322E+02  0.44098790039E+03  0.00000000000E+00 0.  1.
         15    1    5    5    0    0 -0.68857709314E+02 -0.27760419265E+03  0.22702171920E+03  0.36516775683E+03  0.17770000000E+01 0. -1.
        -15    1    5    5    0    0  0.30217426071E+02 -0.14898585927E+03  0.12698637944E+03  0.19808729740E+03  0.17770000000E+01 0.  1.
          1    1    6    6  503    0 -0.29136524303E+03 -0.18432157907E+03  0.45638006489E+03  0.57197107706E+03  0.00000000000E+00 0. -1.
         -1    1    6    6    0  503 -0.31962760989E+03 -0.97543529078E+02  0.43291707678E+03  0.54689463742E+03  0.00000000000E+00 0.  1.
<mgrwt>
<rscale>  0 0.10403443E+04</rscale>
<asrwt>0</asrwt>
<pdfrwt beam="1">  1        2 0.30036686E+00 0.10403443E+04</pdfrwt>
<pdfrwt beam="2">  1       -2 0.10697955E+00 0.10403443E+04</pdfrwt>
<totfact> 0.49634787E+00</totfact>
</mgrwt>
</event>
<event>
12    1  0.8033771E-008  0.7954624E+03  0.7818608E-02  0.9566608E-01
         -2   -1    0    0    0  501 -0.00000000000E+00  0.00000000000E+00  0.37298540499E+03  0.37298540499E+03  0.00000000000E+00 0. -1.
          2   -1    0    0  501    0  0.00000000000E+00 -0.00000000000E+00 -0.30078069655E+04  0.30078069655E+04  0.00000000000E+00 0.  1.
         23    2    1    2    0    0 -0.63643463032E+03  0.32447192468E+03 -0.22654328118E+04  0.23773874393E+04  0.97232418612E+02 0.  0.
    5000000    2    1    2    0    0  0.63643463032E+03 -0.32447192468E+03 -0.36938874877E+03  0.10034049312E+04  0.60003528207E+03 0.  0.
         23    2    4    4    0    0  0.56338369349E+01 -0.20988447174E+03  0.46014538917E+02  0.23402736173E+03  0.92564770026E+02 0.  0.
         23    2    4    4    0    0  0.63080079339E+03 -0.11458745294E+03 -0.41540328769E+03  0.76937756951E+03  0.91334701684E+02 0.  0.
          3    1    3    3  502    0 -0.53641154875E+03  0.25301657456E+03 -0.17609413625E+04  0.18581359527E+04  0.00000000000E+00 0. -1.
         -3    1    3    3    0  502 -0.10002308157E+03  0.71455350115E+02 -0.50449144926E+03  0.51925148655E+03  0.00000000000E+00 0.  1.
         15    1    5    5    0    0  0.47890755205E+02 -0.13653600079E+03  0.32151405581E+02  0.14823115244E+03  0.17770000000E+01 0. -1.
        -15    1    5    5    0    0 -0.42256918270E+02 -0.73348470951E+02  0.13863133335E+02  0.85796209283E+02  0.17770000000E+01 0.  1.
          3    1    6    6  503    0  0.28534239715E+03 -0.13785805544E+02 -0.15354527549E+03  0.32432465783E+03  0.00000000000E+00 0. -1.
         -3    1    6    6    0  503  0.34545839623E+03 -0.10080164739E+03 -0.26185801220E+03  0.44505291168E+03  0.00000000000E+00 0.  1.
<mgrwt>
<rscale>  0 0.79546235E+03</rscale>
<asrwt>0</asrwt>
<pdfrwt beam="1">  1        2 0.46273955E+00 0.79546235E+03</pdfrwt>
<pdfrwt beam="2">  1       -2 0.57382368E-01 0.79546235E+03</pdfrwt>
<totfact> 0.51784436E+00</totfact>
</mgrwt>
</event>
<event>
12    1  0.8033771E-008  0.4038737E+03  0.7818608E-02  0.1042447E+00
         -3   -1    0    0    0  501 -0.00000000000E+00  0.00000000000E+00  0.53703512520E+03  0.53703512520E+03  0.00000000000E+00 0.  1.
          3   -1    0    0  501    0  0.00000000000E+00 -0.00000000000E+00 -0.46421954439E+03  0.46421954439E+03  0.00000000000E+00 0. -1.
         23    2    1    2    0    0  0.15570719882E+03  0.25101449246E+03 -0.71140893065E+02  0.31709500479E+03  0.90748047925E+02 0.  0.
    5000000    2    1    2    0    0 -0.15570719882E+03 -0.25101449246E+03  0.14395647387E+03  0.68415966481E+03  0.60008163894E+03 0.  0.
         23    2    4    4    0    0  0.11346777863E+03 -0.14730216041E+03 -0.15412990336E+03  0.25936454487E+03  0.94557267183E+02 0.  0.
         23    2    4    4    0    0 -0.26917497745E+03 -0.10371233205E+03  0.29808637723E+03  0.42479511994E+03  0.91564126872E+02 0.  0.
          4    1    3    3  502    0  0.26566324990E+02  0.66623653139E+02 -0.56855131623E+02  0.91525880345E+02  0.00000000000E+00 0. -1.
         -4    1    3    3    0  502  0.12914087383E+03  0.18439083932E+03 -0.14285761442E+02  0.22556912444E+03  0.00000000000E+00 0.  1.
         15    1    5    5    0    0  0.63388083117E+02 -0.12651784039E+02 -0.53953913955E+02  0.84215789972E+02  0.17770000000E+01 0. -1.
        -15    1    5    5    0    0  0.50079695509E+02 -0.13465037637E+03 -0.10017598940E+03  0.17514875490E+03  0.17770000000E+01 0.  1.
          1    1    6    6  503    0 -0.27614876445E+02  0.17103065948E+02  0.35025172895E+02  0.47768807838E+02  0.00000000000E+00 0. -1.
         -1    1    6    6    0  503 -0.24156010101E+03 -0.12081539800E+03  0.26306120433E+03  0.37702631210E+03  0.00000000000E+00 0.  1.
<mgrwt>
<rscale>  0 0.40387366E+03</rscale>
<asrwt>0</asrwt>
<pdfrwt beam="1">  1        3 0.71418392E-01 0.40387366E+03</pdfrwt>
<pdfrwt beam="2">  1       -3 0.82620788E-01 0.40387366E+03</pdfrwt>
<totfact> 0.65836305E+00</totfact>
</mgrwt>
</event>
<event>
12    1  0.8033771E-008  0.3882167E+03  0.7818608E-02  0.1047938E+00
         -2   -1    0    0    0  501 -0.00000000000E+00  0.00000000000E+00  0.49646754335E+03  0.49646754335E+03  0.00000000000E+00 0.  1.
          2   -1    0    0  501    0  0.00000000000E+00 -0.00000000000E+00 -0.36210604322E+03  0.36210604322E+03  0.00000000000E+00 0. -1.
         23    2    1    2    0    0 -0.15116605661E+03  0.11485847326E+03 -0.35287793640E+02  0.20707047304E+03  0.74761667139E+02 0.  0.
    5000000    2    1    2    0    0  0.15116605661E+03 -0.11485847326E+03  0.16964929376E+03  0.65150311353E+03  0.59969307026E+03 0.  0.
         23    2    4    4    0    0 -0.18276386843E+03  0.33882044440E+02 -0.53487686790E+02  0.21400614066E+03  0.91580953601E+02 0.  0.
         23    2    4    4    0    0  0.33392992504E+03 -0.14874051770E+03  0.22313698055E+03  0.43749697287E+03  0.89333939471E+02 0.  0.
          2    1    3    3  502    0 -0.13857067933E+03  0.66114568740E+02 -0.30115173769E+02  0.15646051598E+03  0.00000000000E+00 0. -1.
         -2    1    3    3    0  502 -0.12595377275E+02  0.48743904522E+02 -0.51726198709E+01  0.50609957055E+02  0.00000000000E+00 0.  1.
         15    1    5    5    0    0 -0.11789155995E+03 -0.23112709127E+02 -0.39721928741E+02  0.12654487972E+03  0.17770000000E+01 0.  1.
        -15    1    5    5    0    0 -0.64872308478E+02  0.56994753568E+02 -0.13765758049E+02  0.87461260940E+02  0.17770000000E+01 0. -1.
          2    1    6    6  503    0  0.30228985985E+03 -0.12846681460E+03  0.16322906447E+03  0.36677869255E+03  0.00000000000E+00 0.  1.
         -2    1    6    6    0  503  0.31640065190E+02 -0.20273703099E+02  0.59907916082E+02  0.70718280323E+02  0.00000000000E+00 0. -1.
<mgrwt>
<rscale>  0 0.38821670E+03</rscale>
<asrwt>0</asrwt>
<pdfrwt beam="1">  1        2 0.55708621E-01 0.38821670E+03</pdfrwt>
<pdfrwt beam="2">  1       -2 0.76379623E-01 0.38821670E+03</pdfrwt>
<totfact> 0.14041287E+02</totfact>
</mgrwt>
</event>
<event>
12    1  0.8033771E-008  0.7910123E+03  0.7818608E-02  0.9573118E-01
         -1   -1    0    0    0  501 -0.00000000000E+00  0.00000000000E+00  0.68269279131E+03  0.68269279131E+03  0.00000000000E+00 0.  1.
          1   -1    0    0  501    0  0.00000000000E+00 -0.00000000000E+00 -0.12077012816E+04  0.12077012816E+04  0.00000000000E+00 0. -1.
         23    2    1    2    0    0 -0.69989025559E+03 -0.92861633915E+02  0.17038303426E+03  0.73193238885E+03  0.90691733756E+02 0.  0.
    5000000    2    1    2    0    0  0.69989025559E+03  0.92861633915E+02 -0.69539152452E+03  0.11584616840E+04  0.59999537338E+03 0.  0.
         23    2    4    4    0    0  0.38218664184E+03  0.30055918203E+03 -0.21846700740E+03  0.54217468531E+03  0.99111578368E+02 0.  0.
         23    2    4    4    0    0  0.31770361374E+03 -0.20769754811E+03 -0.47692451712E+03  0.61628699872E+03  0.90987977714E+02 0.  0.
          2    1    3    3  502    0 -0.14024370539E+03  0.20360382183E+01  0.65040587213E+02  0.15460504629E+03  0.00000000000E+00 0. -1.
         -2    1    3    3    0  502 -0.55964655019E+03 -0.94897672133E+02  0.10534244705E+03  0.57732734256E+03  0.00000000000E+00 0.  1.
         15    1    5    5    0    0  0.12566482695E+03  0.13430469932E+03 -0.40119282911E+02  0.18826076485E+03  0.17770000000E+01 0. -1.
        -15    1    5    5    0    0  0.25652181489E+03  0.16625448270E+03 -0.17834772449E+03  0.35391392046E+03  0.17770000000E+01 0.  1.
          3    1    6    6  503    0  0.23528182735E+03 -0.18416434298E+03 -0.32227346213E+03  0.43947039480E+03  0.00000000000E+00 0. -1.
         -3    1    6    6    0  503  0.82421786396E+02 -0.23533205129E+02 -0.15465105499E+03  0.17681660393E+03  0.00000000000E+00 0.  1.
<mgrwt>
<rscale>  0 0.79101228E+03</rscale>
<asrwt>0</asrwt>
<pdfrwt beam="1">  1        1 0.18580020E+00 0.79101228E+03</pdfrwt>
<pdfrwt beam="2">  1       -1 0.10502966E+00 0.79101228E+03</pdfrwt>
<totfact> 0.92358480E+00</totfact>
</mgrwt>
</event>
<event>
12    1  0.8033771E-008  0.1550871E+04  0.7818608E-02  0.8851311E-01
         -1   -1    0    0    0  501 -0.00000000000E+00  0.00000000000E+00  0.15313095814E+04  0.15313095814E+04  0.00000000000E+00 0.  1.
          1   -1    0    0  501    0  0.00000000000E+00 -0.00000000000E+00 -0.19635836813E+04  0.19635836813E+04  0.00000000000E+00 0. -1.
         23    2    1    2    0    0  0.12222805192E+04  0.94002860167E+03 -0.88391904835E+03  0.17797028966E+04  0.91684659197E+02 0.  0.
    5000000    2    1    2    0    0 -0.12222805192E+04 -0.94002860167E+03  0.45164494842E+03  0.17151903661E+04  0.60022611822E+03 0.  0.
         23    2    4    4    0    0 -0.63105014362E+03 -0.35873121464E+03 -0.63336501690E+02  0.73455332532E+03  0.92976917464E+02 0.  0.
         23    2    4    4    0    0 -0.59123037558E+03 -0.58129738704E+03  0.51498145011E+03  0.98063704079E+03  0.94779231001E+02 0.  0.
          4    1    3    3  502    0  0.71766315765E+03  0.59518371943E+03 -0.50048125453E+03  0.10581897532E+04  0.00000000000E+00 0.  1.
         -4    1    3    3    0  502  0.50461736154E+03  0.34484488224E+03 -0.38343779383E+03  0.72151314341E+03  0.00000000000E+00 0. -1.
         15    1    5    5    0    0 -0.15836618320E+03 -0.11470358044E+03 -0.52527659717E+02  0.20248227604E+03  0.17770000000E+01 0.  1.
        -15    1    5    5    0    0 -0.47268396042E+03 -0.24402763420E+03 -0.10808841973E+02  0.53207104928E+03  0.17770000000E+01 0. -1.
          1    1    6    6  503    0 -0.51886245080E+03 -0.48514022097E+03  0.40542949977E+03  0.81789507649E+03  0.00000000000E+00 0. -1.
         -1    1    6    6    0  503 -0.72367924772E+02 -0.96157166063E+02  0.10955195033E+03  0.16274196430E+03  0.00000000000E+00 0.  1.
<mgrwt>
<rscale>  0 0.15508713E+04</rscale>
<asrwt>0</asrwt>
<pdfrwt beam="1">  1        1 0.30208980E+00 0.15508713E+04</pdfrwt>
<pdfrwt beam="2">  1       -1 0.23558609E+00 0.15508713E+04</pdfrwt>
<totfact> 0.25660160E-01</totfact>
</mgrwt>
</event>
<event>
12    1  0.8033771E-008  0.4261688E+03  0.7818608E-02  0.1035077E+00
          2   -1    0    0  501    0  0.00000000000E+00  0.00000000000E+00  0.23640658957E+04  0.23640658957E+04  0.00000000000E+00 0. -1.
         -2   -1    0    0    0  501 -0.00000000000E+00 -0.00000000000E+00 -0.91746370494E+02  0.91746370494E+02  0.00000000000E+00 0.  1.
         23    2    1    2    0    0 -0.23708219537E+03  0.18396580528E+02  0.40388785293E+03  0.47905521373E+03  0.99106500894E+02 0.  0.
    5000000    2    1    2    0    0  0.23708219537E+03 -0.18396580528E+02  0.18684316722E+04  0.19767570524E+04  0.59998760734E+03 0.  0.
         23    2    4    4    0    0  0.36767728134E+02 -0.27038557158E+03  0.11256650572E+04  0.11621272916E+04  0.94645642314E+02 0.  0.
         23    2    4    4    0    0  0.20031446724E+03  0.25198899105E+03  0.74276661502E+03  0.81462976086E+03  0.91077250156E+02 0.  0.
          3    1    3    3  502    0 -0.82236073344E+02  0.49277937945E+02  0.19411993879E+03  0.21650320451E+03  0.00000000000E+00 0. -1.
         -3    1    3    3    0  502 -0.15484612203E+03 -0.30881357417E+02  0.20976791414E+03  0.26255200922E+03  0.00000000000E+00 0.  1.
         15    1    5    5    0    0  0.17760439926E+02 -0.28663478967E+02  0.29108705411E+03  0.29303900603E+03  0.17770000000E+01 0.  1.
        -15    1    5    5    0    0  0.19007288208E+02 -0.24172209262E+03  0.83457800310E+03  0.86908828553E+03  0.17770000000E+01 0. -1.
          3    1    6    6  503    0  0.42734354382E+02  0.65111362276E+02  0.98652675338E+02  0.12569035322E+03  0.00000000000E+00 0. -1.
         -3    1    6    6    0  503  0.15758011285E+03  0.18687762878E+03  0.64411393968E+03  0.68893940764E+03  0.00000000000E+00 0.  1.
<mgrwt>
<rscale>  0 0.42616877E+03</rscale>
<asrwt>0</asrwt>
<pdfrwt beam="1">  1        2 0.36370240E+00 0.42616877E+03</pdfrwt>
<pdfrwt beam="2">  1       -2 0.14114828E-01 0.42616877E+03</pdfrwt>
<totfact> 0.17469116E+02</totfact>
</mgrwt>
</event>
<event>
12    1  0.8033771E-008  0.3339776E+03  0.7818608E-02  0.1069390E+00
          1   -1    0    0  501    0  0.00000000000E+00  0.00000000000E+00  0.34500109944E+03  0.34500109944E+03  0.00000000000E+00 0. -1.
         -1   -1    0    0    0  501 -0.00000000000E+00 -0.00000000000E+00 -0.60118495658E+03  0.60118495658E+03  0.00000000000E+00 0.  1.
         23    2    1    2    0    0 -0.21138461769E+03 -0.11016539838E+03 -0.13500221034E+03  0.28907881156E+03  0.92309755152E+02 0.  0.
    5000000    2    1    2    0    0  0.21138461769E+03  0.11016539838E+03 -0.12118164680E+03  0.65710724446E+03  0.60023750933E+03 0.  0.
         23    2    4    4    0    0  0.18138613457E+03 -0.86366311937E+02 -0.30177201579E+03  0.37425265072E+03  0.92944216620E+02 0.  0.
         23    2    4    4    0    0  0.29998483124E+02  0.19653171032E+03  0.18059036899E+03  0.28285459374E+03  0.88708611070E+02 0.  0.
          3    1    3    3  502    0 -0.16696881800E+03 -0.47185714259E+02 -0.66004508122E+02  0.18563855447E+03  0.00000000000E+00 0. -1.
         -3    1    3    3    0  502 -0.44415799699E+02 -0.62979684122E+02 -0.68997702219E+02  0.10344025709E+03  0.00000000000E+00 0.  1.
         15    1    5    5    0    0  0.80301333534E+02 -0.26689442063E+02 -0.20611530590E+03  0.22281675777E+03  0.17770000000E+01 0. -1.
        -15    1    5    5    0    0  0.10108480104E+03 -0.59676869875E+02 -0.95656709888E+02  0.15143589295E+03  0.17770000000E+01 0.  1.
          1    1    6    6  503    0 -0.22811987052E+02  0.12129225331E+03  0.82671629396E+02  0.14854896759E+03  0.00000000000E+00 0. -1.
         -1    1    6    6    0  503  0.52810470176E+02  0.75239457009E+02  0.97918739593E+02  0.13430562615E+03  0.00000000000E+00 0.  1.
<mgrwt>
<rscale>  0 0.33397760E+03</rscale>
<asrwt>0</asrwt>
<pdfrwt beam="1">  1        1 0.53077092E-01 0.33397760E+03</pdfrwt>
<pdfrwt beam="2">  1       -1 0.92489993E-01 0.33397760E+03</pdfrwt>
<totfact> 0.87878574E+01</totfact>
</mgrwt>
</event>
<event>
12    1  0.8033771E-008  0.1187991E+04  0.7818608E-02  0.9123434E-01
          1   -1    0    0  501    0  0.00000000000E+00  0.00000000000E+00  0.17353455419E+04  0.17353455419E+04  0.00000000000E+00 0. -1.
         -1   -1    0    0    0  501 -0.00000000000E+00 -0.00000000000E+00 -0.14945789834E+04  0.14945789834E+04  0.00000000000E+00 0.  1.
         23    2    1    2    0    0 -0.27813088982E+02  0.11189373061E+04 -0.96375185250E+03  0.14795785526E+04  0.86837763471E+02 0.  0.
    5000000    2    1    2    0    0  0.27813088982E+02 -0.11189373061E+04  0.12045184110E+04  0.17503459727E+04  0.60004346431E+03 0.  0.
         23    2    4    4    0    0 -0.15607205422E+03 -0.56232756364E+02  0.18532211282E+03  0.26368900495E+03  0.87561388948E+02 0.  0.
         23    2    4    4    0    0  0.18388514321E+03 -0.10627045497E+04  0.10191962981E+04  0.14866569678E+04  0.90736650926E+02 0.  0.
          2    1    3    3  502    0  0.82740760903E+01  0.73003636816E+03 -0.58536349978E+03  0.93577346941E+03  0.00000000000E+00 0. -1.
         -2    1    3    3    0  502 -0.36087165073E+02  0.38890093793E+03 -0.37838835272E+03  0.54380508317E+03  0.00000000000E+00 0.  1.
         15    1    5    5    0    0 -0.12842992832E+03 -0.65077869487E+02  0.18522990778E+03  0.23461170485E+03  0.17770000000E+01 0. -1.
        -15    1    5    5    0    0 -0.27642125899E+02  0.88451131231E+01  0.92205035427E-01  0.29077300101E+02  0.17770000000E+01 0.  1.
          2    1    6    6  503    0  0.79190408020E+02 -0.70839834206E+03  0.66482666207E+03  0.97472756315E+03  0.00000000000E+00 0.  1.
         -2    1    6    6    0  503  0.10469473519E+03 -0.35430620766E+03  0.35436963607E+03  0.51192940464E+03  0.00000000000E+00 0. -1.
<mgrwt>
<rscale>  0 0.11879908E+04</rscale>
<asrwt>0</asrwt>
<pdfrwt beam="1">  1        1 0.26697624E+00 0.11879908E+04</pdfrwt>
<pdfrwt beam="2">  1       -1 0.22993523E+00 0.11879908E+04</pdfrwt>
<totfact> 0.41854995E-01</totfact>
</mgrwt>
</event>
<event>
12    1  0.8033771E-008  0.5987718E+03  0.7818608E-02  0.9907957E-01
          2   -1    0    0  501    0  0.00000000000E+00  0.00000000000E+00  0.98141689792E+03  0.98141689792E+03  0.00000000000E+00 0. -1.
         -2   -1    0    0    0  501 -0.00000000000E+00 -0.00000000000E+00 -0.49221020844E+03  0.49221020844E+03  0.00000000000E+00 0.  1.
         23    2    1    2    0    0 -0.52089681240E+03 -0.14632024954E+03  0.42109686067E+02  0.55026890175E+03  0.90991944589E+02 0.  0.
    5000000    2    1    2    0    0  0.52089681240E+03  0.14632024954E+03  0.44709700341E+03  0.92335820460E+03  0.59995961444E+03 0.  0.
         23    2    4    4    0    0  0.25428228820E+03 -0.10285395756E+03  0.46468420892E+03  0.54717081838E+03  0.90697694479E+02 0.  0.
         23    2    4    4    0    0  0.26661452421E+03  0.24917420710E+03 -0.17587205515E+02  0.37618738623E+03  0.89646805625E+02 0.  0.
          2    1    3    3  502    0 -0.20385892341E+03 -0.43153765675E+02  0.58602396859E+02  0.21646004034E+03  0.00000000000E+00 0. -1.
         -2    1    3    3    0  502 -0.31703788899E+03 -0.10316648386E+03 -0.16492710793E+02  0.33380886142E+03  0.00000000000E+00 0.  1.
         15    1    5    5    0    0  0.14266888451E+03 -0.16136950739E+02  0.18897490604E+03  0.23733833367E+03  0.17770000000E+01 0. -1.
        -15    1    5    5    0    0  0.11161340368E+03 -0.86717006821E+02  0.27570930289E+03  0.30983248471E+03  0.17770000000E+01 0.  1.
          3    1    6    6  503    0  0.19178522358E+03  0.13585676623E+03  0.18270124673E+02  0.23573805456E+03  0.00000000000E+00 0. -1.
         -3    1    6    6    0  503  0.74829300628E+02  0.11331744086E+03 -0.35857330188E+02  0.14044933166E+03  0.00000000000E+00 0.  1.
<mgrwt>
<rscale>  0 0.59877182E+03</rscale>
<asrwt>0</asrwt>
<pdfrwt beam="1">  1        2 0.15098721E+00 0.59877182E+03</pdfrwt>
<pdfrwt beam="2">  1       -2 0.75724648E-01 0.59877182E+03</pdfrwt>
<totfact> 0.41734578E+01</totfact>
</mgrwt>
</event>
<event>
12    1  0.8033771E-008  0.5185008E+03  0.7818608E-02  0.1009060E+00
         -1   -1    0    0    0  501 -0.00000000000E+00  0.00000000000E+00  0.19066132596E+03  0.19066132596E+03  0.00000000000E+00 0.  1.
          1   -1    0    0  501    0  0.00000000000E+00 -0.00000000000E+00 -0.17620364408E+04  0.17620364408E+04  0.00000000000E+00 0. -1.
         23    2    1    2    0    0  0.34556239872E+03  0.50813813184E+02 -0.96615815208E+03  0.10316245037E+04  0.93766340870E+02 0.  0.
    5000000    2    1    2    0    0 -0.34556239872E+03 -0.50813813184E+02 -0.60521696280E+03  0.92107326315E+03  0.60007746917E+03 0.  0.
         23    2    4    4    0    0  0.15448056434E+03  0.14978074113E+02 -0.13221564433E+03  0.22374110150E+03  0.92143998339E+02 0.  0.
         23    2    4    4    0    0 -0.50004296307E+03 -0.65791887296E+02 -0.47300131847E+03  0.69733216165E+03  0.90390038448E+02 0.  0.
          3    1    3    3  502    0  0.78613062404E+02  0.48436847128E+02 -0.19994172639E+03  0.22023359346E+03  0.00000000000E+00 0. -1.
         -3    1    3    3    0  502  0.26694933632E+03  0.23769660561E+01 -0.76621642569E+03  0.81139091019E+03  0.00000000000E+00 0.  1.
         15    1    5    5    0    0  0.15205256783E+03 -0.59482151211E+01 -0.13367057373E+03  0.20254961036E+03  0.17770000000E+01 0. -1.
        -15    1    5    5    0    0  0.24279965191E+01  0.20926289234E+02  0.14549294019E+01  0.21191491140E+02  0.17770000000E+01 0.  1.
          2    1    6    6  503    0 -0.12270789579E+03 -0.13707635017E+02 -0.66453104935E+02  0.14021819462E+03  0.00000000000E+00 0.  1.
         -2    1    6    6    0  503 -0.37733506728E+03 -0.52084252279E+02 -0.40654821353E+03  0.55711396703E+03  0.00000000000E+00 0. -1.
<mgrwt>
<rscale>  0 0.51850083E+03</rscale>
<asrwt>0</asrwt>
<pdfrwt beam="1">  1        1 0.27108251E+00 0.51850083E+03</pdfrwt>
<pdfrwt beam="2">  1       -1 0.29332514E-01 0.51850083E+03</pdfrwt>
<totfact> 0.48855927E+01</totfact>
</mgrwt>
</event>
<event>
12    1  0.9739839E-008  0.1138636E+04  0.7818608E-02  0.9168332E-01
         -1   -1    0    0    0  501 -0.00000000000E+00  0.00000000000E+00  0.88130562061E+03  0.88130562061E+03  0.00000000000E+00 0.  1.
          1   -1    0    0  501    0  0.00000000000E+00 -0.00000000000E+00 -0.16996202939E+04  0.16996202939E+04  0.00000000000E+00 0. -1.
         23    2    1    2    0    0 -0.10384081609E+04 -0.40338970324E+03 -0.67975110916E+03  0.13081063987E+04  0.89811016714E+02 0.  0.
    5000000    2    1    2    0    0  0.10384081609E+04  0.40338970324E+03 -0.13856356413E+03  0.12728195158E+04  0.59987906874E+03 0.  0.
         23    2    4    4    0    0  0.52814058390E+02  0.83955468273E+02 -0.18889443932E+03  0.23155904737E+03  0.90003543242E+02 0.  0.
         23    2    4    4    0    0  0.98559410251E+03  0.31943423497E+03  0.50330875183E+02  0.10412604684E+04  0.90863637855E+02 0.  0.
          3    1    3    3  502    0 -0.28751620093E+03 -0.85512725393E+02 -0.22029040608E+03  0.37216374758E+03  0.00000000000E+00 0. -1.
         -3    1    3    3    0  502 -0.75089195997E+03 -0.31787697785E+03 -0.45946070309E+03  0.93594265117E+03  0.00000000000E+00 0.  1.
         15    1    5    5    0    0  0.43269789796E+01  0.73532355641E+02 -0.65601041939E+02  0.98652848442E+02  0.17770000000E+01 0.  1.
        -15    1    5    5    0    0  0.48487079410E+02  0.10423112631E+02 -0.12329339738E+03  0.13290619893E+03  0.17770000000E+01 0. -1.
          4    1    6    6  503    0  0.26574151254E+03  0.12033680585E+03  0.38849461242E+02  0.29429369508E+03  0.00000000000E+00 0. -1.
         -4    1    6    6    0  503  0.71985258997E+03  0.19909742912E+03  0.11481413941E+02  0.74696677332E+03  0.00000000000E+00 0.  1.
<mgrwt>
<rscale>  0 0.11386360E+04</rscale>
<asrwt>0</asrwt>
<pdfrwt beam="1">  1        1 0.26148005E+00 0.11386360E+04</pdfrwt>
<pdfrwt beam="2">  1       -1 0.13558548E+00 0.11386360E+04</pdfrwt>
<totfact> 0.21493511E+00</totfact>
</mgrwt>
</event>
<event>
12    1  0.8033771E-008  0.5952878E+03  0.7818608E-02  0.9915231E-01
          1   -1    0    0  501    0  0.00000000000E+00  0.00000000000E+00  0.51413375567E+03  0.51413375567E+03  0.00000000000E+00 0. -1.
         -1   -1    0    0    0  501 -0.00000000000E+00 -0.00000000000E+00 -0.11733321114E+04  0.11733321114E+04  0.00000000000E+00 0.  1.
         23    2    1    2    0    0 -0.50508632673E+03  0.42640750691E+02 -0.73600778655E+03  0.89823658920E+03  0.90504570230E+02 0.  0.
    5000000    2    1    2    0    0  0.50508632673E+03 -0.42640750691E+02  0.76809430857E+02  0.78922927783E+03  0.60004394276E+03 0.  0.
         23    2    4    4    0    0  0.42123318342E+03 -0.21432242190E+03 -0.12331303948E+03  0.49803649983E+03  0.97276688441E+02 0.  0.
         23    2    4    4    0    0  0.83853143311E+02  0.17168167121E+03  0.20012247034E+03  0.29119277800E+03  0.90764998499E+02 0.  0.
          3    1    3    3  502    0 -0.39383714988E+03  0.41627546783E+02 -0.50441435697E+03  0.64130678836E+03  0.00000000000E+00 0. -1.
         -3    1    3    3    0  502 -0.11124917685E+03  0.10132039085E+01 -0.23159342958E+03  0.25692980084E+03  0.00000000000E+00 0.  1.
         15    1    5    5    0    0  0.18592462205E+03 -0.50609343555E+02 -0.21781721912E+02  0.19392491299E+03  0.17770000000E+01 0. -1.
        -15    1    5    5    0    0  0.23530856138E+03 -0.16371307834E+03 -0.10153131757E+03  0.30411158685E+03  0.17770000000E+01 0.  1.
          4    1    6    6  503    0  0.30362518745E+02  0.75281799272E+01  0.68244036012E+01  0.32017628302E+02  0.00000000000E+00 0. -1.
         -4    1    6    6    0  503  0.53490624566E+02  0.16415349128E+03  0.19329806674E+03  0.25917514970E+03  0.00000000000E+00 0.  1.
<mgrwt>
<rscale>  0 0.59528776E+03</rscale>
<asrwt>0</asrwt>
<pdfrwt beam="1">  1        1 0.79097501E-01 0.59528776E+03</pdfrwt>
<pdfrwt beam="2">  1       -1 0.18051263E+00 0.59528776E+03</pdfrwt>
<totfact> 0.92791468E+00</totfact>
</mgrwt>
</event>
<event>
12    1  0.8033771E-008  0.2146270E+04  0.7818608E-02  0.8541131E-01
         -2   -1    0    0    0  501 -0.00000000000E+00  0.00000000000E+00  0.25195333220E+04  0.25195333220E+04  0.00000000000E+00 0.  1.
          2   -1    0    0  501    0  0.00000000000E+00 -0.00000000000E+00 -0.18468129840E+04  0.18468129840E+04  0.00000000000E+00 0. -1.
         23    2    1    2    0    0 -0.20503841240E+04  0.50407760310E+03  0.44250968736E+03  0.21592937690E+04  0.92549832658E+02 0.  0.
    5000000    2    1    2    0    0  0.20503841240E+04 -0.50407760310E+03  0.23021065057E+03  0.22070525370E+04  0.59992888904E+03 0.  0.
         23    2    4    4    0    0  0.22603007791E+03  0.10977758602E+03  0.66808037642E+01  0.26711216465E+03  0.90352425836E+02 0.  0.
         23    2    4    4    0    0  0.18243540460E+04 -0.61385518912E+03  0.22352984681E+03  0.19399403724E+04  0.91198560699E+02 0.  0.
          3    1    3    3  502    0 -0.11760810196E+04  0.33318045721E+03  0.23951119581E+03  0.12456088449E+04  0.00000000000E+00 0. -1.
         -3    1    3    3    0  502 -0.87430310437E+03  0.17089714589E+03  0.20299849155E+03  0.91368492401E+03  0.00000000000E+00 0.  1.
         15    1    5    5    0    0  0.24908088127E+02  0.27427464416E+01  0.28784848145E+02  0.38205506461E+02  0.17770000000E+01 0. -1.
        -15    1    5    5    0    0  0.20112198978E+03  0.10703483958E+03 -0.22104044381E+02  0.22890665819E+03  0.17770000000E+01 0.  1.
          2    1    6    6  503    0  0.96131637755E+03 -0.28330360880E+03  0.14150038376E+03  0.10121326351E+04  0.00000000000E+00 0. -1.
         -2    1    6    6    0  503  0.86303766850E+03 -0.33055158032E+03  0.82029463048E+02  0.92780773726E+03  0.00000000000E+00 0.  1.
<mgrwt>
<rscale>  0 0.21462697E+04</rscale>
<asrwt>0</asrwt>
<pdfrwt beam="1">  1        2 0.28412507E+00 0.21462697E+04</pdfrwt>
<pdfrwt beam="2">  1       -2 0.38762051E+00 0.21462697E+04</pdfrwt>
<totfact> 0.63686344E-02</totfact>
</mgrwt>
</event>
<event>
12    1  0.8033771E-008  0.1027671E+04  0.7818608E-02  0.9278706E-01
          2   -1    0    0  501    0  0.00000000000E+00  0.00000000000E+00  0.14602953142E+04  0.14602953142E+04  0.00000000000E+00 0. -1.
         -2   -1    0    0    0  501 -0.00000000000E+00 -0.00000000000E+00 -0.94151955808E+03  0.94151955808E+03  0.00000000000E+00 0.  1.
         23    2    1    2    0    0 -0.96991700518E+03 -0.28038071783E+03 -0.18800679839E+03  0.10311324678E+04  0.92386503088E+02 0.  0.
    5000000    2    1    2    0    0  0.96991700518E+03  0.28038071783E+03  0.70678255452E+03  0.13706824045E+04  0.59989693353E+03 0.  0.
         23    2    4    4    0    0  0.19840237982E+03 -0.10845442990E+02  0.45388584865E+03  0.50374065177E+03  0.90890883397E+02 0.  0.
         23    2    4    4    0    0  0.77151462536E+03  0.29122616083E+03  0.25289670587E+03  0.86694175277E+03  0.87084814755E+02 0.  0.
          1    1    3    3  502    0 -0.53919662372E+03 -0.18530908316E+03 -0.69279375040E+02  0.57434492001E+03  0.00000000000E+00 0. -1.
         -1    1    3    3    0  502 -0.43072038146E+03 -0.95071634678E+02 -0.11872742335E+03  0.45678754775E+03  0.00000000000E+00 0.  1.
         15    1    5    5    0    0  0.10172688924E+03  0.35400423614E+02  0.27298544833E+03  0.29347191129E+03  0.17770000000E+01 0.  1.
        -15    1    5    5    0    0  0.96675490582E+02 -0.46245866605E+02  0.18090040033E+03  0.21026874048E+03  0.17770000000E+01 0. -1.
          1    1    6    6  503    0  0.25976372383E+03  0.54849380757E+02  0.77037078770E+02  0.27644232363E+03  0.00000000000E+00 0. -1.
         -1    1    6    6    0  503  0.51175090153E+03  0.23637678007E+03  0.17585962710E+03  0.59049942914E+03  0.00000000000E+00 0.  1.
<mgrwt>
<rscale>  0 0.10276712E+04</rscale>
<asrwt>0</asrwt>
<pdfrwt beam="1">  1        2 0.22466082E+00 0.10276712E+04</pdfrwt>
<pdfrwt beam="2">  1       -2 0.14484916E+00 0.10276712E+04</pdfrwt>
<totfact> 0.43466385E+00</totfact>
</mgrwt>
</event>
<event>
12    1  0.8033771E-008  0.4937384E+03  0.7818608E-02  0.1015426E+00
         -1   -1    0    0    0  501 -0.00000000000E+00  0.00000000000E+00  0.22905766165E+03  0.22905766165E+03  0.00000000000E+00 0.  1.
          1   -1    0    0  501    0  0.00000000000E+00 -0.00000000000E+00 -0.16149171949E+04  0.16149171949E+04  0.00000000000E+00 0. -1.
         23    2    1    2    0    0 -0.78248037914E+02 -0.44768354986E+03 -0.48370067867E+03  0.66901251145E+03  0.84071860248E+02 0.  0.
    5000000    2    1    2    0    0  0.78248037914E+02  0.44768354986E+03 -0.90215885454E+03  0.11749623450E+04  0.60008549159E+03 0.  0.
         23    2    4    4    0    0  0.11184324589E+03  0.70139789027E+02 -0.73429738511E+03  0.75052431424E+03  0.81643094155E+02 0.  0.
         23    2    4    4    0    0 -0.33595207978E+02  0.37754376083E+03 -0.16786146942E+03  0.42443803081E+03  0.91116627136E+02 0.  0.
          3    1    3    3  502    0 -0.35867737151E+02 -0.22074108955E+03 -0.17741329403E+03  0.28546208169E+03  0.00000000000E+00 0. -1.
         -3    1    3    3    0  502 -0.42380300764E+02 -0.22694246031E+03 -0.30628738464E+03  0.38355042976E+03  0.00000000000E+00 0.  1.
         15    1    5    5    0    0 -0.52342886773E+01  0.29356162659E+02 -0.10706151020E+03  0.11115082887E+03  0.17770000000E+01 0. -1.
        -15    1    5    5    0    0  0.11707753457E+03  0.40783626367E+02 -0.62723587492E+03  0.63937348537E+03  0.17770000000E+01 0.  1.
          3    1    6    6  503    0 -0.20819811727E+02  0.19085553175E+03 -0.35525219122E+02  0.19524686874E+03  0.00000000000E+00 0. -1.
         -3    1    6    6    0  503 -0.12775396251E+02  0.18668822908E+03 -0.13233625030E+03  0.22919116207E+03  0.00000000000E+00 0.  1.
<mgrwt>
<rscale>  0 0.49373843E+03</rscale>
<asrwt>0</asrwt>
<pdfrwt beam="1">  1        1 0.24844880E+00 0.49373843E+03</pdfrwt>
<pdfrwt beam="2">  1       -1 0.35239640E-01 0.49373843E+03</pdfrwt>
<totfact> 0.44627070E+01</totfact>
</mgrwt>
</event>
<event>
12    1  0.8033771E-008  0.1547003E+04  0.7818608E-02  0.8853784E-01
         -2   -1    0    0    0  501 -0.00000000000E+00  0.00000000000E+00  0.19022801293E+04  0.19022801293E+04  0.00000000000E+00 0.  1.
          2   -1    0    0  501    0  0.00000000000E+00 -0.00000000000E+00 -0.30219330976E+04  0.30219330976E+04  0.00000000000E+00 0. -1.
         23    2    1    2    0    0 -0.63403136473E+03  0.14011589010E+04 -0.23883889929E+04  0.28421756763E+04  0.91206118932E+02 0.  0.
    5000000    2    1    2    0    0  0.63403136473E+03 -0.14011589010E+04  0.12687360247E+04  0.20820375506E+04  0.59995601889E+03 0.  0.
         23    2    4    4    0    0  0.47221664548E+03 -0.88920964783E+03  0.11349662662E+04  0.15199219762E+04  0.91279954099E+02 0.  0.
         23    2    4    4    0    0  0.16181471925E+03 -0.51194925313E+03  0.13376975842E+03  0.56211557444E+03  0.99012775008E+02 0.  0.
          1    1    3    3  502    0 -0.10153317560E+03  0.28440484105E+03 -0.51874649268E+03  0.60024413619E+03  0.00000000000E+00 0. -1.
         -1    1    3    3    0  502 -0.53249818913E+03  0.11167540599E+04 -0.18696425002E+04  0.22419315401E+04  0.00000000000E+00 0.  1.
         15    1    5    5    0    0  0.16685863871E+03 -0.22855264934E+03  0.30621644492E+03  0.41695298020E+03  0.17770000000E+01 0.  1.
        -15    1    5    5    0    0  0.30535800677E+03 -0.66065699850E+03  0.82874982132E+03  0.11029689959E+04  0.17770000000E+01 0. -1.
          2    1    6    6  503    0  0.44691134664E+02 -0.28634709582E+03  0.94973823457E+02  0.30497866146E+03  0.00000000000E+00 0. -1.
         -2    1    6    6    0  503  0.11712358459E+03 -0.22560215731E+03  0.38795934966E+02  0.25713691299E+03  0.00000000000E+00 0.  1.
<mgrwt>
<rscale>  0 0.15470028E+04</rscale>
<asrwt>0</asrwt>
<pdfrwt beam="1">  1        2 0.46491278E+00 0.15470028E+04</pdfrwt>
<pdfrwt beam="2">  1       -2 0.29265848E+00 0.15470028E+04</pdfrwt>
<totfact> 0.55580218E-02</totfact>
</mgrwt>
</event>
<event>
12    1  0.8033771E-008  0.1005318E+04  0.7818608E-02  0.9302731E-01
          2   -1    0    0  501    0  0.00000000000E+00  0.00000000000E+00  0.15721840053E+04  0.15721840053E+04  0.00000000000E+00 0. -1.
         -2   -1    0    0    0  501 -0.00000000000E+00 -0.00000000000E+00 -0.89682071552E+03  0.89682071552E+03  0.00000000000E+00 0.  1.
         23    2    1    2    0    0 -0.16408637108E+03 -0.90619094497E+03 -0.32691204308E+03  0.98146799768E+03  0.91113010210E+02 0.  0.
    5000000    2    1    2    0    0  0.16408637108E+03  0.90619094497E+03  0.10022753329E+04  0.14875367232E+04  0.60008607213E+03 0.  0.
         23    2    4    4    0    0  0.21431042023E+03  0.70607754895E+02  0.31582025919E+03  0.40111413389E+03  0.10117164136E+03 0.  0.
         23    2    4    4    0    0 -0.50224049160E+02  0.83558319008E+03  0.68645507372E+03  0.10864225893E+04  0.91497276821E+02 0.  0.
          3    1    3    3  502    0 -0.68296942545E+02 -0.61708353424E+03 -0.21734533246E+03  0.65779598215E+03  0.00000000000E+00 0.  1.
         -3    1    3    3    0  502 -0.95789428530E+02 -0.28910741073E+03 -0.10956671062E+03  0.32367201553E+03  0.00000000000E+00 0. -1.
         15    1    5    5    0    0  0.26627616039E+02 -0.23924237725E+02  0.61701646738E+02  0.71355798824E+02  0.17770000000E+01 0. -1.
        -15    1    5    5    0    0  0.18768280420E+03  0.94531992620E+02  0.25411861245E+03  0.32975833506E+03  0.17770000000E+01 0.  1.
          1    1    6    6  503    0 -0.50719096123E+02  0.35102952662E+03  0.33457464399E+03  0.48758009360E+03  0.00000000000E+00 0. -1.
         -1    1    6    6    0  503  0.49504696327E+00  0.48455366346E+03  0.35188042973E+03  0.59884249571E+03  0.00000000000E+00 0.  1.
<mgrwt>
<rscale>  0 0.10053185E+04</rscale>
<asrwt>0</asrwt>
<pdfrwt beam="1">  1        2 0.24187446E+00 0.10053185E+04</pdfrwt>
<pdfrwt beam="2">  1       -2 0.13797242E+00 0.10053185E+04</pdfrwt>
<totfact> 0.42817315E+00</totfact>
</mgrwt>
</event>
<event>
12    1  0.8033771E-008  0.1420786E+04  0.7818608E-02  0.8938909E-01
          2   -1    0    0  501    0  0.00000000000E+00  0.00000000000E+00  0.31091723353E+04  0.31091723353E+04  0.00000000000E+00 0.  1.
         -2   -1    0    0    0  501 -0.00000000000E+00 -0.00000000000E+00 -0.71768797446E+03  0.71768797446E+03  0.00000000000E+00 0. -1.
         23    2    1    2    0    0  0.65557693840E+03  0.11952086427E+04  0.17086759975E+04  0.21880820369E+04  0.99118686533E+02 0.  0.
    5000000    2    1    2    0    0 -0.65557693840E+03 -0.11952086427E+04  0.68280836335E+03  0.16387782728E+04  0.60088446860E+03 0.  0.
         23    2    4    4    0    0 -0.74763553760E+03 -0.10762665824E+04  0.60275544143E+03  0.14454865882E+04  0.93854680483E+02 0.  0.
         23    2    4    4    0    0  0.92058599195E+02 -0.11894206037E+03  0.80052921916E+02  0.19329168465E+03  0.91275438294E+02 0.  0.
          2    1    3    3  502    0  0.96088355570E+02  0.20891297832E+03  0.23697518799E+03  0.33020424635E+03  0.00000000000E+00 0. -1.
         -2    1    3    3    0  502  0.55948858283E+03  0.98629566442E+03  0.14717008095E+04  0.18578777905E+04  0.00000000000E+00 0.  1.
         15    1    5    5    0    0 -0.40942261564E+03 -0.62436279408E+03  0.38921786293E+03  0.84199137726E+03  0.17770000000E+01 0.  1.
        -15    1    5    5    0    0 -0.33821292196E+03 -0.45190378829E+03  0.21353757851E+03  0.60349521093E+03  0.17770000000E+01 0. -1.
          1    1    6    6  503    0  0.77907140749E+02 -0.12796684649E+03  0.48359572369E+02  0.15742834757E+03  0.00000000000E+00 0. -1.
         -1    1    6    6    0  503  0.14151458446E+02  0.90247861176E+01  0.31693349546E+02  0.35863337074E+02  0.00000000000E+00 0.  1.
<mgrwt>
<rscale>  0 0.14207860E+04</rscale>
<asrwt>0</asrwt>
<pdfrwt beam="1">  1        2 0.47833420E+00 0.14207860E+04</pdfrwt>
<pdfrwt beam="2">  1       -2 0.11041354E+00 0.14207860E+04</pdfrwt>
<totfact> 0.93179370E-01</totfact>
</mgrwt>
</event>
<event>
12    1  0.8033771E-008  0.1659319E+04  0.7818608E-02  0.8784912E-01
          2   -1    0    0  501    0  0.00000000000E+00  0.00000000000E+00  0.17573038839E+04  0.17573038839E+04  0.00000000000E+00 0.  1.
         -2   -1    0    0    0  501 -0.00000000000E+00 -0.00000000000E+00 -0.16376090561E+04  0.16376090561E+04  0.00000000000E+00 0. -1.
         23    2    1    2    0    0  0.48626384991E+03 -0.15530045573E+04  0.27635868172E+03  0.16534096948E+04  0.95466281860E+02 0.  0.
    5000000    2    1    2    0    0 -0.48626384991E+03  0.15530045573E+04 -0.15666385397E+03  0.17415032452E+04  0.60001191927E+03 0.  0.
         23    2    4    4    0    0 -0.33834623366E+03  0.42549883883E+03  0.12723094503E+03  0.56590110386E+03  0.92352099633E+02 0.  0.
         23    2    4    4    0    0 -0.14791761625E+03  0.11275057185E+04 -0.28389479900E+03  0.11756021414E+04  0.91078930017E+02 0.  0.
          4    1    3    3  502    0  0.26225239423E+03 -0.89118778092E+03  0.11257917631E+03  0.93577029771E+03  0.00000000000E+00 0. -1.
         -4    1    3    3    0  502  0.22401145568E+03 -0.66181677640E+03  0.16377950542E+03  0.71763939705E+03  0.00000000000E+00 0.  1.
         15    1    5    5    0    0 -0.42413104100E+02  0.10857108182E+03  0.42525325438E+02  0.12408913023E+03  0.17770000000E+01 0.  1.
        -15    1    5    5    0    0 -0.29593312956E+03  0.31692775700E+03  0.84705619588E+02  0.44181197363E+03  0.17770000000E+01 0. -1.
          3    1    6    6  503    0 -0.69213166892E+02  0.83501138600E+03 -0.21259844747E+03  0.86442615479E+03  0.00000000000E+00 0. -1.
         -3    1    6    6    0  503 -0.78704449363E+02  0.29249433249E+03 -0.71296351532E+02  0.31117598659E+03  0.00000000000E+00 0.  1.
<mgrwt>
<rscale>  0 0.16593191E+04</rscale>
<asrwt>0</asrwt>
<pdfrwt beam="1">  1        2 0.27035444E+00 0.16593191E+04</pdfrwt>
<pdfrwt beam="2">  1       -2 0.25193985E+00 0.16593191E+04</pdfrwt>
<totfact> 0.52641475E-01</totfact>
</mgrwt>
</event>
<event>
12    1  0.8033771E-008  0.5431082E+03  0.7818608E-02  0.1003102E+00
         -2   -1    0    0    0  501 -0.00000000000E+00  0.00000000000E+00  0.21288596267E+03  0.21288596267E+03  0.00000000000E+00 0.  1.
          2   -1    0    0  501    0  0.00000000000E+00 -0.00000000000E+00 -0.19251324782E+04  0.19251324782E+04  0.00000000000E+00 0. -1.
         23    2    1    2    0    0 -0.46020326788E+03 -0.11747094684E+03 -0.90051245365E+03  0.10224113547E+04  0.93892640803E+02 0.  0.
    5000000    2    1    2    0    0  0.46020326788E+03  0.11747094684E+03 -0.81173406187E+03  0.11156070861E+04  0.60006708983E+03 0.  0.
         23    2    4    4    0    0  0.21744623089E+02 -0.97449168159E+02  0.28983629918E+02  0.13894751374E+03  0.92180213507E+02 0.  0.
         23    2    4    4    0    0  0.43845864479E+03  0.21492011500E+03 -0.84071769179E+03  0.97665957239E+03  0.92849577467E+02 0.  0.
          3    1    3    3  502    0 -0.34393238247E+03 -0.12688221702E+03 -0.70908417393E+03  0.79824115806E+03  0.00000000000E+00 0. -1.
         -3    1    3    3    0  502 -0.11627088541E+03  0.94112701804E+01 -0.19142827972E+03  0.22417019667E+03  0.00000000000E+00 0.  1.
         15    1    5    5    0    0  0.36276726690E+02 -0.45671637446E+02 -0.24310446676E+02  0.63214356858E+02  0.17770000000E+01 0.  1.
        -15    1    5    5    0    0 -0.14532103601E+02 -0.51777530713E+02  0.53294076595E+02  0.75733156879E+02  0.17770000000E+01 0. -1.
          2    1    6    6  503    0  0.12806543883E+03  0.38209365504E+02 -0.30255810155E+03  0.33075990846E+03  0.00000000000E+00 0. -1.
         -2    1    6    6    0  503  0.31039320596E+03  0.17671074950E+03 -0.53815959024E+03  0.64589966393E+03  0.00000000000E+00 0.  1.
<mgrwt>
<rscale>  0 0.54310817E+03</rscale>
<asrwt>0</asrwt>
<pdfrwt beam="1">  1        2 0.29617424E+00 0.54310817E+03</pdfrwt>
<pdfrwt beam="2">  1       -2 0.32751686E-01 0.54310817E+03</pdfrwt>
<totfact> 0.67457065E+01</totfact>
</mgrwt>
</event>
<event>
12    1  0.8033771E-008  0.3364596E+03  0.7818608E-02  0.1068314E+00
          2   -1    0    0  501    0  0.00000000000E+00  0.00000000000E+00  0.24122778838E+04  0.24122778838E+04  0.00000000000E+00 0. -1.
         -2   -1    0    0    0  501 -0.00000000000E+00 -0.00000000000E+00 -0.19378531014E+03  0.19378531014E+03  0.00000000000E+00 0.  1.
         23    2    1    2    0    0 -0.10744064672E+03 -0.22046645720E+03 -0.32375418639E+02  0.26372098662E+03  0.91387306196E+02 0.  0.
    5000000    2    1    2    0    0  0.10744064672E+03  0.22046645720E+03  0.22508679923E+04  0.23423422073E+04  0.60000945503E+03 0.  0.
         23    2    4    4    0    0 -0.44929112775E+02  0.24322459473E+03  0.37860135850E+03  0.46153031565E+03  0.92165150436E+02 0.  0.
         23    2    4    4    0    0  0.15236975950E+03 -0.22758137532E+02  0.18722666338E+04  0.18808118916E+04  0.91304695192E+02 0.  0.
          2    1    3    3  502    0 -0.14501428137E+02 -0.10540478788E+03  0.17087743671E+02  0.10776108625E+03  0.00000000000E+00 0. -1.
         -2    1    3    3    0  502 -0.92939218586E+02 -0.11506166932E+03 -0.49463162310E+02  0.15595990037E+03  0.00000000000E+00 0.  1.
         15    1    5    5    0    0 -0.31629527886E+02  0.24034867113E+03  0.37627923942E+03  0.44761270592E+03  0.17770000000E+01 0. -1.
        -15    1    5    5    0    0 -0.13299584889E+02  0.28759235988E+01  0.23221190739E+01  0.13917609736E+02  0.17770000000E+01 0.  1.
          4    1    6    6  503    0  0.13175065836E+03  0.38445051708E-02  0.10886128242E+04  0.10965564815E+04  0.00000000000E+00 0. -1.
         -4    1    6    6    0  503  0.20619101136E+02 -0.22761982037E+02  0.78365380956E+03  0.78425541018E+03  0.00000000000E+00 0.  1.
<mgrwt>
<rscale>  0 0.33645956E+03</rscale>
<asrwt>0</asrwt>
<pdfrwt beam="1">  1        2 0.37111965E+00 0.33645956E+03</pdfrwt>
<pdfrwt beam="2">  1       -2 0.29813126E-01 0.33645956E+03</pdfrwt>
<totfact> 0.45776821E+01</totfact>
</mgrwt>
</event>
<event>
12    1  0.8033771E-008  0.1643934E+04  0.7818608E-02  0.8794003E-01
         -2   -1    0    0    0  501 -0.00000000000E+00  0.00000000000E+00  0.18355920715E+04  0.18355920715E+04  0.00000000000E+00 0.  1.
          2   -1    0    0  501    0  0.00000000000E+00 -0.00000000000E+00 -0.15027417405E+04  0.15027417405E+04  0.00000000000E+00 0. -1.
         23    2    1    2    0    0  0.15890663113E+04 -0.86270980888E+02 -0.49650373706E+02  0.15951276369E+04  0.96915397369E+02 0.  0.
    5000000    2    1    2    0    0 -0.15890663113E+04  0.86270980888E+02  0.38250070465E+03  0.17432061752E+04  0.59990545594E+03 0.  0.
         23    2    4    4    0    0 -0.10384464122E+04  0.32798031656E+03  0.25130581984E+03  0.11213071914E+04  0.90736780770E+02 0.  0.
         23    2    4    4    0    0 -0.55061989919E+03 -0.24170933567E+03  0.13119488481E+03  0.62189898379E+03  0.89109886629E+02 0.  0.
          1    1    3    3  502    0  0.13037898158E+04 -0.44632544423E+02 -0.67302911804E+02  0.13062884940E+04  0.00000000000E+00 0.  1.
         -1    1    3    3    0  502  0.28527649558E+03 -0.41638436465E+02  0.17652538098E+02  0.28883914282E+03  0.00000000000E+00 0. -1.
         15    1    5    5    0    0 -0.71269050137E+03  0.20091491230E+03  0.13406158997E+03  0.75250928257E+03  0.17770000000E+01 0.  1.
        -15    1    5    5    0    0 -0.32575591079E+03  0.12706540426E+03  0.11724422987E+03  0.36879790881E+03  0.17770000000E+01 0. -1.
          1    1    6    6  503    0 -0.17384759404E+01 -0.82152273142E+01  0.10300009688E+02  0.13289185754E+02  0.00000000000E+00 0. -1.
         -1    1    6    6    0  503 -0.54888142325E+03 -0.23349410836E+03  0.12089487512E+03  0.60860979803E+03  0.00000000000E+00 0.  1.
<mgrwt>
<rscale>  0 0.16439340E+04</rscale>
<asrwt>0</asrwt>
<pdfrwt beam="1">  1        2 0.23119104E+00 0.16439340E+04</pdfrwt>
<pdfrwt beam="2">  1       -2 0.28239878E+00 0.16439340E+04</pdfrwt>
<totfact> 0.47758820E-01</totfact>
</mgrwt>
</event>
<event>
12    1  0.8033771E-008  0.8311795E+03  0.7818608E-02  0.9515951E-01
         -2   -1    0    0    0  501 -0.00000000000E+00  0.00000000000E+00  0.39591398894E+03  0.39591398894E+03  0.00000000000E+00 0.  1.
          2   -1    0    0  501    0  0.00000000000E+00 -0.00000000000E+00 -0.23838460126E+04  0.23838460126E+04  0.00000000000E+00 0. -1.
         23    2    1    2    0    0  0.75814464861E+03  0.29445340183E+03 -0.43467976101E+03  0.92662425625E+03  0.90553319011E+02 0.  0.
    5000000    2    1    2    0    0 -0.75814464861E+03 -0.29445340183E+03 -0.15532522626E+04  0.18531357452E+04  0.60002782016E+03 0.  0.
         23    2    4    4    0    0 -0.62914069710E+03 -0.19287541400E+03 -0.64735083019E+03  0.92758927889E+03  0.91322674591E+02 0.  0.
         23    2    4    4    0    0 -0.12900395151E+03 -0.10157798783E+03 -0.90590143241E+03  0.92554646635E+03  0.94967094393E+02 0.  0.
          2    1    3    3  502    0  0.51870084411E+03  0.19876782326E+03 -0.34357342104E+03  0.65314769301E+03  0.00000000000E+00 0.  1.
         -2    1    3    3    0  502  0.23944380450E+03  0.95685578572E+02 -0.91106339970E+02  0.27347656324E+03  0.00000000000E+00 0. -1.
         15    1    5    5    0    0 -0.42615834758E+03 -0.87998170556E+02 -0.44467944029E+03  0.62217166246E+03  0.17770000000E+01 0. -1.
        -15    1    5    5    0    0 -0.20298234952E+03 -0.10487724344E+03 -0.20267138990E+03  0.30541761643E+03  0.17770000000E+01 0.  1.
          1    1    6    6  503    0 -0.11240514255E+03 -0.36433477348E+02 -0.66613274905E+03  0.67653170931E+03  0.00000000000E+00 0. -1.
         -1    1    6    6    0  503 -0.16598808957E+02 -0.65144510484E+02 -0.23976868336E+03  0.24901475704E+03  0.00000000000E+00 0.  1.
<mgrwt>
<rscale>  0 0.83117951E+03</rscale>
<asrwt>0</asrwt>
<pdfrwt beam="1">  1        2 0.36674553E+00 0.83117951E+03</pdfrwt>
<pdfrwt beam="2">  1       -2 0.60909846E-01 0.83117951E+03</pdfrwt>
<totfact> 0.10516246E+01</totfact>
</mgrwt>
</event>
<event>
12    1  0.8033771E-008  0.1096612E+04  0.7818608E-02  0.9208500E-01
         -1   -1    0    0    0  501 -0.00000000000E+00  0.00000000000E+00  0.10730292887E+04  0.10730292887E+04  0.00000000000E+00 0.  1.
          1   -1    0    0  501    0  0.00000000000E+00 -0.00000000000E+00 -0.12514270314E+04  0.12514270314E+04  0.00000000000E+00 0. -1.
         23    2    1    2    0    0  0.77881187750E+02  0.10341394689E+04 -0.38148464285E+03  0.11090969663E+04  0.95161060138E+02 0.  0.
    5000000    2    1    2    0    0 -0.77881187750E+02 -0.10341394689E+04  0.20308690016E+03  0.12153593539E+04  0.60028672277E+03 0.  0.
         23    2    4    4    0    0  0.16213299033E+03 -0.79811691584E+03  0.15651633331E+02  0.81957629405E+03  0.90457781540E+02 0.  0.
         23    2    4    4    0    0 -0.24001417808E+03 -0.23602255303E+03  0.18743526683E+03  0.39578305982E+03  0.90547225069E+02 0.  0.
          3    1    3    3  502    0  0.96826423492E+02  0.84197207829E+03 -0.29355807045E+03  0.89692177899E+03  0.00000000000E+00 0. -1.
         -3    1    3    3    0  502 -0.18945235742E+02  0.19216739058E+03 -0.87926572395E+02  0.21217518727E+03  0.00000000000E+00 0.  1.
         15    1    5    5    0    0  0.83634813121E+02 -0.52879295035E+03  0.46318867243E+02  0.53736892495E+03  0.17770000000E+01 0.  1.
        -15    1    5    5    0    0  0.78498177207E+02 -0.26932396548E+03 -0.30667233913E+02  0.28220736910E+03  0.17770000000E+01 0. -1.
          1    1    6    6  503    0 -0.11932997577E+03 -0.11223522214E+03  0.40144788731E+02  0.16866532621E+03  0.00000000000E+00 0. -1.
         -1    1    6    6    0  503 -0.12068420231E+03 -0.12378733090E+03  0.14729047810E+03  0.22711773360E+03  0.00000000000E+00 0.  1.
<mgrwt>
<rscale>  0 0.10966125E+04</rscale>
<asrwt>0</asrwt>
<pdfrwt beam="1">  1        1 0.19252724E+00 0.10966125E+04</pdfrwt>
<pdfrwt beam="2">  1       -1 0.16508143E+00 0.10966125E+04</pdfrwt>
<totfact> 0.26026873E+00</totfact>
</mgrwt>
</event>
<event>
12    1  0.8033771E-008  0.7316634E+03  0.7818608E-02  0.9664565E-01
         -2   -1    0    0    0  501 -0.00000000000E+00  0.00000000000E+00  0.84249588890E+03  0.84249588890E+03  0.00000000000E+00 0. -1.
          2   -1    0    0  501    0  0.00000000000E+00 -0.00000000000E+00 -0.86633086760E+03  0.86633086760E+03  0.00000000000E+00 0.  1.
         23    2    1    2    0    0  0.43505402931E+03  0.44692172154E+03 -0.41960708145E+03  0.75716963429E+03  0.90690234816E+02 0.  0.
    5000000    2    1    2    0    0 -0.43505402931E+03 -0.44692172154E+03  0.39577210275E+03  0.95165712221E+03  0.60000390610E+03 0.  0.
         23    2    4    4    0    0 -0.61343554401E+02 -0.45681207238E+03  0.14012955657E+03  0.48983699145E+03  0.88677417839E+02 0.  0.
         23    2    4    4    0    0 -0.37371047491E+03  0.98903508394E+01  0.25564254618E+03  0.46182013076E+03  0.90373578323E+02 0.  0.
          4    1    3    3  502    0  0.20256984392E+03  0.25150710558E+03 -0.25668483613E+03  0.41252572152E+03  0.00000000000E+00 0. -1.
         -4    1    3    3    0  502  0.23248418539E+03  0.19541461596E+03 -0.16292224532E+03  0.34464391277E+03  0.00000000000E+00 0.  1.
         15    1    5    5    0    0 -0.16218125783E+02 -0.13177677771E+03  0.83427665715E+02  0.15681670792E+03  0.17770000000E+01 0.  1.
        -15    1    5    5    0    0 -0.45125428618E+02 -0.32503529467E+03  0.56701890852E+02  0.33302028353E+03  0.17770000000E+01 0. -1.
          1    1    6    6  503    0 -0.13064468339E+03  0.21489218276E+02  0.44598860324E+02  0.13970997868E+03  0.00000000000E+00 0. -1.
         -1    1    6    6    0  503 -0.24306579152E+03 -0.11598867436E+02  0.21104368586E+03  0.32211015208E+03  0.00000000000E+00 0.  1.
<mgrwt>
<rscale>  0 0.73166336E+03</rscale>
<asrwt>0</asrwt>
<pdfrwt beam="1">  1        2 0.13328167E+00 0.73166336E+03</pdfrwt>
<pdfrwt beam="2">  1       -2 0.12961475E+00 0.73166336E+03</pdfrwt>
<totfact> 0.13770023E+01</totfact>
</mgrwt>
</event>
<event>
12    1  0.8033771E-008  0.6642992E+03  0.7818608E-02  0.9780312E-01
         -1   -1    0    0    0  501 -0.00000000000E+00  0.00000000000E+00  0.43525594188E+03  0.43525594188E+03  0.00000000000E+00 0.  1.
          1   -1    0    0  501    0  0.00000000000E+00 -0.00000000000E+00 -0.15125796513E+04  0.15125796513E+04  0.00000000000E+00 0. -1.
         23    2    1    2    0    0 -0.51062991811E+03 -0.16957669738E+03  0.65398881759E+02  0.54952823767E+03  0.90582010896E+02 0.  0.
    5000000    2    1    2    0    0  0.51062991811E+03  0.16957669738E+03 -0.11427225912E+04  0.13983073555E+04  0.59995780728E+03 0.  0.
         23    2    4    4    0    0  0.57266463181E+03  0.27875228789E+03 -0.99547188614E+03  0.11852724288E+04  0.90878136896E+02 0.  0.
         23    2    4    4    0    0 -0.62034713700E+02 -0.10917559052E+03 -0.14725070505E+03  0.21303492675E+03  0.89070166779E+02 0.  0.
          3    1    3    3  502    0 -0.29332460439E+03 -0.13961984936E+03  0.19679681890E+02  0.32545401481E+03  0.00000000000E+00 0. -1.
         -3    1    3    3    0  502 -0.21730531372E+03 -0.29956848018E+02  0.45719199869E+02  0.22407422286E+03  0.00000000000E+00 0.  1.
         15    1    5    5    0    0  0.37047136418E+03  0.14512191203E+03 -0.56106692552E+03  0.68782894215E+03  0.17770000000E+01 0. -1.
        -15    1    5    5    0    0  0.20219326763E+03  0.13363037587E+03 -0.43440496062E+03  0.49744348661E+03  0.17770000000E+01 0.  1.
          1    1    6    6  503    0 -0.53512819867E+02 -0.24210597583E+02 -0.24812587183E+02  0.63760798365E+02  0.00000000000E+00 0. -1.
         -1    1    6    6    0  503 -0.85218938331E+01 -0.84964992935E+02 -0.12243811787E+03  0.14927412839E+03  0.00000000000E+00 0.  1.
<mgrwt>
<rscale>  0 0.66429917E+03</rscale>
<asrwt>0</asrwt>
<pdfrwt beam="1">  1        1 0.23270456E+00 0.66429917E+03</pdfrwt>
<pdfrwt beam="2">  1       -1 0.66962453E-01 0.66429917E+03</pdfrwt>
<totfact> 0.15205609E+01</totfact>
</mgrwt>
</event>
<event>
12    1  0.8033771E-008  0.8541113E+03  0.7818608E-02  0.9484835E-01
          1   -1    0    0  501    0  0.00000000000E+00  0.00000000000E+00  0.58878990257E+03  0.58878990257E+03  0.00000000000E+00 0. -1.
         -1   -1    0    0    0  501 -0.00000000000E+00 -0.00000000000E+00 -0.15204769078E+04  0.15204769078E+04  0.00000000000E+00 0.  1.
         23    2    1    2    0    0  0.36002522987E+03  0.71990753185E+03 -0.12108010315E+03  0.81899709320E+03  0.90613612243E+02 0.  0.
    5000000    2    1    2    0    0 -0.36002522987E+03 -0.71990753185E+03 -0.81060690207E+03  0.12902697172E+04  0.59985612674E+03 0.  0.
         23    2    4    4    0    0 -0.56056374377E+02 -0.53033697579E+03 -0.73364710965E+03  0.91168459296E+03  0.92363902788E+02 0.  0.
         23    2    4    4    0    0 -0.30396885549E+03 -0.18957055607E+03 -0.76959792415E+02  0.37858512421E+03  0.95235632965E+02 0.  0.
          4    1    3    3  502    0  0.18827524175E+03  0.43088722317E+03 -0.10839911490E+03  0.48255749280E+03  0.00000000000E+00 0. -1.
         -4    1    3    3    0  502  0.17174998812E+03  0.28902030868E+03 -0.12680988246E+02  0.33643960040E+03  0.00000000000E+00 0.  1.
         15    1    5    5    0    0 -0.73094687888E+02 -0.48337513400E+03 -0.68790676085E+03  0.84392726163E+03  0.17770000000E+01 0. -1.
        -15    1    5    5    0    0  0.17038313511E+02 -0.46961841783E+02 -0.45740348805E+02  0.67757331328E+02  0.17770000000E+01 0.  1.
          1    1    6    6  503    0 -0.22893164351E+03 -0.17068525855E+03 -0.27789599235E+02  0.28690663414E+03  0.00000000000E+00 0.  1.
         -1    1    6    6    0  503 -0.75037211980E+02 -0.18885297518E+02 -0.49170193179E+02  0.91678490070E+02  0.00000000000E+00 0. -1.
<mgrwt>
<rscale>  0 0.85411134E+03</rscale>
<asrwt>0</asrwt>
<pdfrwt beam="1">  1        1 0.90583062E-01 0.85411134E+03</pdfrwt>
<pdfrwt beam="2">  1       -1 0.23391952E+00 0.85411134E+03</pdfrwt>
<totfact> 0.32088026E+00</totfact>
</mgrwt>
</event>
<event>
12    1  0.8033771E-008  0.6192918E+03  0.7818608E-02  0.9866171E-01
         -1   -1    0    0    0  501 -0.00000000000E+00  0.00000000000E+00  0.31412677584E+03  0.31412677584E+03  0.00000000000E+00 0.  1.
          1   -1    0    0  501    0  0.00000000000E+00 -0.00000000000E+00 -0.18024377226E+04  0.18024377226E+04  0.00000000000E+00 0. -1.
         23    2    1    2    0    0 -0.39209758038E+03 -0.33872705290E+03 -0.11271595847E+04  0.12455523275E+04  0.11151386598E+03 0.  0.
    5000000    2    1    2    0    0  0.39209758038E+03  0.33872705290E+03 -0.36115136211E+03  0.87101217096E+03  0.59979610428E+03 0.  0.
         23    2    4    4    0    0 -0.80701433719E+02 -0.51975330430E+00  0.71283330273E+02  0.14012628675E+03  0.89672021927E+02 0.  0.
         23    2    4    4    0    0  0.47279901410E+03  0.33924680621E+03 -0.43243469238E+03  0.73088588421E+03  0.92558680364E+02 0.  0.
          4    1    3    3  502    0 -0.37200145223E+03 -0.27686972245E+03 -0.95840885718E+03  0.10647015832E+04  0.00000000000E+00 0.  1.
         -4    1    3    3    0  502 -0.20096128156E+02 -0.61857330448E+02 -0.16875072748E+03  0.18085074432E+03  0.00000000000E+00 0. -1.
         15    1    5    5    0    0 -0.59812296857E+02  0.42051090333E+02  0.45208565834E+02  0.85981260791E+02  0.17770000000E+01 0.  1.
        -15    1    5    5    0    0 -0.20889136862E+02 -0.42570843637E+02  0.26074764439E+02  0.54145025961E+02  0.17770000000E+01 0. -1.
          2    1    6    6  503    0  0.47043650299E+03  0.31796053033E+03 -0.41620923856E+03  0.70401671320E+03  0.00000000000E+00 0. -1.
         -2    1    6    6    0  503  0.23625111069E+01  0.21286275876E+02 -0.16225453820E+02  0.26869171016E+02  0.00000000000E+00 0.  1.
<mgrwt>
<rscale>  0 0.61929184E+03</rscale>
<asrwt>0</asrwt>
<pdfrwt beam="1">  1        1 0.27729811E+00 0.61929184E+03</pdfrwt>
<pdfrwt beam="2">  1       -1 0.48327197E-01 0.61929184E+03</pdfrwt>
<totfact> 0.18425811E+01</totfact>
</mgrwt>
</event>
<event>
12    1  0.8033771E-008  0.5215263E+03  0.7818608E-02  0.1008308E+00
          1   -1    0    0  501    0  0.00000000000E+00  0.00000000000E+00  0.62566635754E+03  0.62566635754E+03  0.00000000000E+00 0. -1.
         -1   -1    0    0    0  501 -0.00000000000E+00 -0.00000000000E+00 -0.58977999073E+03  0.58977999073E+03  0.00000000000E+00 0.  1.
         23    2    1    2    0    0  0.44204278008E+03 -0.92923411757E+02  0.52806444052E+02  0.46432833410E+03  0.93678713925E+02 0.  0.
    5000000    2    1    2    0    0 -0.44204278008E+03  0.92923411757E+02 -0.16920077244E+02  0.75111801417E+03  0.59987948983E+03 0.  0.
         23    2    4    4    0    0 -0.29995871950E+03  0.23236521287E+03  0.20304525886E+03  0.44011543359E+03  0.92224683167E+02 0.  0.
         23    2    4    4    0    0 -0.14208406059E+03 -0.13944180112E+03 -0.21996533610E+03  0.31100258057E+03  0.93305733302E+02 0.  0.
          3    1    3    3  502    0  0.25927181972E+03 -0.76931877403E+02 -0.93777242194E+01  0.27060733910E+03  0.00000000000E+00 0. -1.
         -3    1    3    3    0  502  0.18277096036E+03 -0.15991534354E+02  0.62184168271E+02  0.19372099500E+03  0.00000000000E+00 0.  1.
         15    1    5    5    0    0 -0.30583929955E+03  0.23168205167E+03  0.19637891944E+03  0.43102446328E+03  0.17770000000E+01 0.  1.
        -15    1    5    5    0    0  0.58805800542E+01  0.68316120617E+00  0.66663394197E+01  0.90909703149E+01  0.17770000000E+01 0. -1.
          2    1    6    6  503    0 -0.32372880156E+02 -0.37035792840E+02 -0.58621656816E+01  0.49538049088E+02  0.00000000000E+00 0. -1.
         -2    1    6    6    0  503 -0.10971118043E+03 -0.10240600828E+03 -0.21410317042E+03  0.26146453149E+03  0.00000000000E+00 0.  1.
<mgrwt>
<rscale>  0 0.52152635E+03</rscale>
<asrwt>0</asrwt>
<pdfrwt beam="1">  1        1 0.96256363E-01 0.52152635E+03</pdfrwt>
<pdfrwt beam="2">  1       -1 0.90735383E-01 0.52152635E+03</pdfrwt>
<totfact> 0.40127282E+01</totfact>
</mgrwt>
</event>
<event>
12    1  0.8033771E-008  0.6322698E+03  0.7818608E-02  0.9840629E-01
         -1   -1    0    0    0  501 -0.00000000000E+00  0.00000000000E+00  0.30025708057E+03  0.30025708057E+03  0.00000000000E+00 0.  1.
          1   -1    0    0  501    0  0.00000000000E+00 -0.00000000000E+00 -0.16277341027E+04  0.16277341027E+04  0.00000000000E+00 0. -1.
         23    2    1    2    0    0 -0.51401568393E+03  0.57000503993E+02 -0.85931602055E+03  0.10078523826E+04  0.99404331810E+02 0.  0.
    5000000    2    1    2    0    0  0.51401568393E+03 -0.57000503993E+02 -0.46816100156E+03  0.92013880064E+03  0.60001625668E+03 0.  0.
         23    2    4    4    0    0  0.59528995389E+03 -0.14624864559E+03 -0.44510578083E+03  0.76254865889E+03  0.87192347794E+02 0.  0.
         23    2    4    4    0    0 -0.81274269953E+02  0.89248141593E+02 -0.23055220728E+02  0.15759014175E+03  0.98652784247E+02 0.  0.
          2    1    3    3  502    0 -0.22074595215E+03 -0.17576300813E+02 -0.41304215840E+03  0.46865928601E+03  0.00000000000E+00 0. -1.
         -2    1    3    3    0  502 -0.29326973178E+03  0.74576804806E+02 -0.44627386215E+03  0.53919309661E+03  0.00000000000E+00 0.  1.
         15    1    5    5    0    0  0.80118110650E+02  0.56381597121E+00 -0.32922428811E+02  0.86638753399E+02  0.17770000000E+01 0.  1.
        -15    1    5    5    0    0  0.51517184323E+03 -0.14681246156E+03 -0.41218335202E+03  0.67590990549E+03  0.17770000000E+01 0. -1.
          3    1    6    6  503    0 -0.52171695537E+02  0.34151212532E+02  0.35780140664E+02  0.71891651800E+02  0.00000000000E+00 0. -1.
         -3    1    6    6    0  503 -0.29102574416E+02  0.55096929060E+02 -0.58835361391E+02  0.85698489949E+02  0.00000000000E+00 0.  1.
<mgrwt>
<rscale>  0 0.63226978E+03</rscale>
<asrwt>0</asrwt>
<pdfrwt beam="1">  1        1 0.25042063E+00 0.63226978E+03</pdfrwt>
<pdfrwt beam="2">  1       -1 0.46193397E-01 0.63226978E+03</pdfrwt>
<totfact> 0.26187227E+01</totfact>
</mgrwt>
</event>
<event>
12    1  0.8033771E-008  0.1561818E+04  0.7818608E-02  0.8844354E-01
          2   -1    0    0  501    0  0.00000000000E+00  0.00000000000E+00  0.30518445532E+04  0.30518445532E+04  0.00000000000E+00 0. -1.
         -2   -1    0    0    0  501 -0.00000000000E+00 -0.00000000000E+00 -0.10533269426E+04  0.10533269426E+04  0.00000000000E+00 0.  1.
         23    2    1    2    0    0  0.60796978202E+03  0.13816152715E+04 -0.22429952970E+02  0.15123714338E+04  0.90973823948E+02 0.  0.
    5000000    2    1    2    0    0 -0.60796978202E+03 -0.13816152715E+04  0.20209475636E+04  0.25928000620E+04  0.59991257100E+03 0.  0.
         23    2    4    4    0    0 -0.14317665152E+02 -0.71889551078E+03  0.80775829072E+03  0.10855350002E+04  0.94324066020E+02 0.  0.
         23    2    4    4    0    0 -0.59365211686E+03 -0.66271976071E+03  0.12131892728E+04  0.15072650619E+04  0.91648447415E+02 0.  0.
          2    1    3    3  502    0  0.39943974992E+03  0.94266709701E+03  0.24921965814E+02  0.10241066712E+04  0.00000000000E+00 0. -1.
         -2    1    3    3    0  502  0.20853003209E+03  0.43894817448E+03 -0.47351918784E+02  0.48826476258E+03  0.00000000000E+00 0.  1.
         15    1    5    5    0    0 -0.30769659252E+02 -0.52614293740E+03  0.64319032148E+03  0.83154681762E+03  0.17770000000E+01 0. -1.
        -15    1    5    5    0    0  0.16451994099E+02 -0.19275257338E+03  0.16456796924E+03  0.25398818256E+03  0.17770000000E+01 0.  1.
          1    1    6    6  503    0 -0.23472236719E+03 -0.32198812009E+03  0.50454702755E+03  0.64291417946E+03  0.00000000000E+00 0. -1.
         -1    1    6    6    0  503 -0.35892974967E+03 -0.34073164062E+03  0.70864224528E+03  0.86435088241E+03  0.00000000000E+00 0.  1.
<mgrwt>
<rscale>  0 0.15618182E+04</rscale>
<asrwt>0</asrwt>
<pdfrwt beam="1">  1        2 0.46951454E+00 0.15618182E+04</pdfrwt>
<pdfrwt beam="2">  1       -2 0.16205030E+00 0.15618182E+04</pdfrwt>
<totfact> 0.36927038E-01</totfact>
</mgrwt>
</event>
<event>
12    1  0.8033771E-008  0.1189663E+04  0.7818608E-02  0.9121953E-01
         -1   -1    0    0    0  501 -0.00000000000E+00  0.00000000000E+00  0.58813130124E+03  0.58813130124E+03  0.00000000000E+00 0.  1.
          1   -1    0    0  501    0  0.00000000000E+00 -0.00000000000E+00 -0.25368534078E+04  0.25368534078E+04  0.00000000000E+00 0. -1.
         23    2    1    2    0    0  0.92773757567E+03 -0.66535250509E+03 -0.10411570998E+04  0.15479458200E+04  0.93472936527E+02 0.  0.
    5000000    2    1    2    0    0 -0.92773757567E+03  0.66535250509E+03 -0.90756500670E+03  0.15770388890E+04  0.59998870876E+03 0.  0.
         23    2    4    4    0    0 -0.31239277188E+03 -0.20281383148E+02 -0.41771684096E+03  0.52990601301E+03  0.91172610890E+02 0.  0.
         23    2    4    4    0    0 -0.61534480379E+03  0.68563388823E+03 -0.48984816574E+03  0.10471328760E+04  0.88277846677E+02 0.  0.
          3    1    3    3  502    0  0.84050260843E+03 -0.62562361713E+03 -0.92808863082E+03  0.13997135606E+04  0.00000000000E+00 0. -1.
         -3    1    3    3    0  502  0.87234967245E+02 -0.39728887955E+02 -0.11306846899E+03  0.14823225941E+03  0.00000000000E+00 0.  1.
         15    1    5    5    0    0 -0.24038655256E+03 -0.37166832774E+01 -0.37222682979E+03  0.44312016308E+03  0.17770000000E+01 0.  1.
        -15    1    5    5    0    0 -0.72006219318E+02 -0.16564699871E+02 -0.45490011177E+02  0.86785849931E+02  0.17770000000E+01 0. -1.
          4    1    6    6  503    0 -0.40524022113E+03  0.44264282711E+03 -0.27125984224E+03  0.65858500683E+03  0.00000000000E+00 0. -1.
         -4    1    6    6    0  503 -0.21010458266E+03  0.24299106113E+03 -0.21858832350E+03  0.38854786914E+03  0.00000000000E+00 0.  1.
<mgrwt>
<rscale>  0 0.11896629E+04</rscale>
<asrwt>0</asrwt>
<pdfrwt beam="1">  1        1 0.39028514E+00 0.11896629E+04</pdfrwt>
<pdfrwt beam="2">  1       -1 0.90481739E-01 0.11896629E+04</pdfrwt>
<totfact> 0.15134641E+00</totfact>
</mgrwt>
</event>
<event>
12    1  0.8033771E-008  0.5609718E+03  0.7818608E-02  0.9989858E-01
         -1   -1    0    0    0  501 -0.00000000000E+00  0.00000000000E+00  0.52702113051E+03  0.52702113051E+03  0.00000000000E+00 0.  1.
          1   -1    0    0  501    0  0.00000000000E+00 -0.00000000000E+00 -0.90590048935E+03  0.90590048935E+03  0.00000000000E+00 0. -1.
         23    2    1    2    0    0  0.23686070540E+03 -0.50327547450E+03 -0.15591057481E+03  0.58492533359E+03  0.91871331463E+02 0.  0.
    5000000    2    1    2    0    0 -0.23686070540E+03  0.50327547450E+03 -0.22296878403E+03  0.84799628628E+03  0.59999452156E+03 0.  0.
         23    2    4    4    0    0 -0.57432021695E+02  0.17011668384E+03 -0.37906677862E+03  0.42936073460E+03  0.91765432083E+02 0.  0.
         23    2    4    4    0    0 -0.17942868370E+03  0.33315879065E+03  0.15609799458E+03  0.41863555168E+03  0.87747985143E+02 0.  0.
          2    1    3    3  502    0  0.19289961194E+03 -0.35711494096E+03 -0.14823031635E+03  0.43210365426E+03  0.00000000000E+00 0. -1.
         -2    1    3    3    0  502  0.43961093458E+02 -0.14616053354E+03 -0.76802584624E+01  0.15282167932E+03  0.00000000000E+00 0.  1.
         15    1    5    5    0    0 -0.17280776066E+00  0.34871426443E+02 -0.17189562713E+03  0.17540613045E+03  0.17770000000E+01 0. -1.
        -15    1    5    5    0    0 -0.57259213935E+02  0.13524525740E+03 -0.20717115149E+03  0.25395460415E+03  0.17770000000E+01 0.  1.
          3    1    6    6  503    0 -0.16935029607E+03  0.27765720579E+03  0.10295116654E+03  0.34113338945E+03  0.00000000000E+00 0. -1.
         -3    1    6    6    0  503 -0.10078387628E+02  0.55501584865E+02  0.53146828045E+02  0.77502162234E+02  0.00000000000E+00 0.  1.
<mgrwt>
<rscale>  0 0.56097183E+03</rscale>
<asrwt>0</asrwt>
<pdfrwt beam="1">  1        1 0.13936931E+00 0.56097183E+03</pdfrwt>
<pdfrwt beam="2">  1       -1 0.81080175E-01 0.56097183E+03</pdfrwt>
<totfact> 0.28686067E+01</totfact>
</mgrwt>
</event>
<event>
12    1  0.8033771E-008  0.1433097E+04  0.7818608E-02  0.8930204E-01
          1   -1    0    0  501    0  0.00000000000E+00  0.00000000000E+00  0.11437362829E+04  0.11437362829E+04  0.00000000000E+00 0. -1.
         -1   -1    0    0    0  501 -0.00000000000E+00 -0.00000000000E+00 -0.19264037320E+04  0.19264037320E+04  0.00000000000E+00 0.  1.
         23    2    1    2    0    0  0.13891796186E+04 -0.61470554941E+02 -0.67056165644E+02  0.13951142465E+04  0.90821746456E+02 0.  0.
    5000000    2    1    2    0    0 -0.13891796186E+04  0.61470554941E+02 -0.71561128347E+03  0.16750257683E+04  0.60001097796E+03 0.  0.
         23    2    4    4    0    0 -0.23044144069E+03  0.19306804376E+03 -0.21471904477E+02  0.31485389585E+03  0.91068138998E+02 0.  0.
         23    2    4    4    0    0 -0.11587381779E+04 -0.13159748882E+03 -0.69413937899E+03  0.13601718725E+04  0.90807385185E+02 0.  0.
          4    1    3    3  502    0  0.11493575690E+04 -0.17321456439E+02 -0.47237092087E+02  0.11504582553E+04  0.00000000000E+00 0. -1.
         -4    1    3    3    0  502  0.23982204962E+03 -0.44149098501E+02 -0.19819073557E+02  0.24465599126E+03  0.00000000000E+00 0.  1.
         15    1    5    5    0    0 -0.49125488481E+02  0.70523585270E+02 -0.40790134686E+02  0.95151891807E+02  0.17770000000E+01 0. -1.
        -15    1    5    5    0    0 -0.18131595221E+03  0.12254445849E+03  0.19318230209E+02  0.21970200404E+03  0.17770000000E+01 0.  1.
          4    1    6    6  503    0 -0.86442932618E+02 -0.27449754226E+02 -0.35172017675E+02  0.97277646116E+02  0.00000000000E+00 0. -1.
         -4    1    6    6    0  503 -0.10722952453E+04 -0.10414773459E+03 -0.65896736132E+03  0.12628942264E+04  0.00000000000E+00 0.  1.
<mgrwt>
<rscale>  0 0.14330971E+04</rscale>
<asrwt>0</asrwt>
<pdfrwt beam="1">  1        1 0.17595943E+00 0.14330971E+04</pdfrwt>
<pdfrwt beam="2">  1       -1 0.29636980E+00 0.14330971E+04</pdfrwt>
<totfact> 0.39205913E-01</totfact>
</mgrwt>
</event>
<event>
12    1  0.8033771E-008  0.1010167E+04  0.7818608E-02  0.9297464E-01
          2   -1    0    0  501    0  0.00000000000E+00  0.00000000000E+00  0.14935553367E+04  0.14935553367E+04  0.00000000000E+00 0. -1.
         -2   -1    0    0    0  501 -0.00000000000E+00 -0.00000000000E+00 -0.72288186096E+03  0.72288186096E+03  0.00000000000E+00 0.  1.
         23    2    1    2    0    0  0.55738537102E+03  0.73634110629E+03  0.59177079334E+03  0.11005417304E+04  0.90126310144E+02 0.  0.
    5000000    2    1    2    0    0 -0.55738537102E+03 -0.73634110629E+03  0.17890268242E+03  0.11158954673E+04  0.60028313952E+03 0.  0.
         23    2    4    4    0    0 -0.19333603778E+03 -0.69143607218E+03  0.11755249000E+03  0.73307935549E+03  0.90133723558E+02 0.  0.
         23    2    4    4    0    0 -0.36404933323E+03 -0.44905034107E+02  0.61350192420E+02  0.38281611184E+03  0.90752136358E+02 0.  0.
          4    1    3    3  502    0  0.24496941094E+03  0.33236220108E+03  0.21206391219E+03  0.46416133817E+03  0.00000000000E+00 0. -1.
         -4    1    3    3    0  502  0.31241596007E+03  0.40397890521E+03  0.37970688116E+03  0.63638039219E+03  0.00000000000E+00 0.  1.
         15    1    5    5    0    0 -0.62432448251E+02 -0.11002571767E+03  0.52689577598E+01  0.12662696707E+03  0.17770000000E+01 0. -1.
        -15    1    5    5    0    0 -0.13090358953E+03 -0.58141035451E+03  0.11228353224E+03  0.60645238842E+03  0.17770000000E+01 0.  1.
          3    1    6    6  503    0 -0.28715871813E+02 -0.25460502172E+02 -0.94834418010E+01  0.39531938142E+02  0.00000000000E+00 0. -1.
         -3    1    6    6    0  503 -0.33533346142E+03 -0.19444531935E+02  0.70833634221E+02  0.34328417369E+03  0.00000000000E+00 0.  1.
<mgrwt>
<rscale>  0 0.10101665E+04</rscale>
<asrwt>0</asrwt>
<pdfrwt beam="1">  1        2 0.22977774E+00 0.10101665E+04</pdfrwt>
<pdfrwt beam="2">  1       -2 0.11121259E+00 0.10101665E+04</pdfrwt>
<totfact> 0.81367836E+00</totfact>
</mgrwt>
</event>
<event>
12    1  0.8033771E-008  0.3482000E+03  0.7818608E-02  0.1063356E+00
          4   -1    0    0  501    0  0.00000000000E+00  0.00000000000E+00  0.43148842461E+03  0.43148842461E+03  0.00000000000E+00 0. -1.
         -4   -1    0    0    0  501 -0.00000000000E+00 -0.00000000000E+00 -0.64266631181E+03  0.64266631181E+03  0.00000000000E+00 0.  1.
         23    2    1    2    0    0  0.14964830208E+03  0.19854434020E+03 -0.31852631787E+03  0.41599627678E+03  0.98890938810E+02 0.  0.
    5000000    2    1    2    0    0 -0.14964830208E+03 -0.19854434020E+03  0.10734843066E+03  0.65815845964E+03  0.59986198670E+03 0.  0.
         23    2    4    4    0    0  0.88596379194E+02 -0.13706548772E+03 -0.18701187712E+03  0.26361753058E+03  0.88794672779E+02 0.  0.
         23    2    4    4    0    0 -0.23824468128E+03 -0.61478852481E+02  0.29436030778E+03  0.39454092907E+03  0.92056376499E+02 0.  0.
          2    1    3    3  502    0 -0.67823950604E+00  0.66356475700E+02 -0.64120088628E+02  0.92276907413E+02  0.00000000000E+00 0. -1.
         -2    1    3    3    0  502  0.15032654159E+03  0.13218786450E+03 -0.25440622924E+03  0.32371936937E+03  0.00000000000E+00 0.  1.
         15    1    5    5    0    0  0.83220328919E+02 -0.64295668892E+02 -0.72224971130E+02  0.12758981295E+03  0.17770000000E+01 0. -1.
        -15    1    5    5    0    0  0.53760502754E+01 -0.72769818828E+02 -0.11478690599E+03  0.13602771763E+03  0.17770000000E+01 0.  1.
          1    1    6    6  503    0 -0.93350364233E+02  0.23066942179E+01  0.16709537590E+03  0.19141702115E+03  0.00000000000E+00 0. -1.
         -1    1    6    6    0  503 -0.14489431704E+03 -0.63785546699E+02  0.12726493188E+03  0.20312390791E+03  0.00000000000E+00 0.  1.
<mgrwt>
<rscale>  0 0.34820001E+03</rscale>
<asrwt>0</asrwt>
<pdfrwt beam="1">  1        4 0.66382834E-01 0.34820001E+03</pdfrwt>
<pdfrwt beam="2">  1       -4 0.98871740E-01 0.34820001E+03</pdfrwt>
<totfact> 0.34297074E+00</totfact>
</mgrwt>
</event>
<event>
12    1  0.8033771E-008  0.6244631E+03  0.7818608E-02  0.9855914E-01
         -2   -1    0    0    0  501 -0.00000000000E+00  0.00000000000E+00  0.90049394006E+03  0.90049394006E+03  0.00000000000E+00 0.  1.
          2   -1    0    0  501    0  0.00000000000E+00 -0.00000000000E+00 -0.86669759956E+03  0.86669759956E+03  0.00000000000E+00 0. -1.
         23    2    1    2    0    0  0.55365390586E+03 -0.17826080812E+03  0.53242539302E+03  0.79400255605E+03  0.93025247605E+02 0.  0.
    5000000    2    1    2    0    0 -0.55365390586E+03  0.17826080812E+03 -0.49862905252E+03  0.97318898357E+03  0.60013023798E+03 0.  0.
         23    2    4    4    0    0 -0.14549120527E+02  0.68294643480E+02 -0.38840662723E+03  0.40487929451E+03  0.90508009668E+02 0.  0.
         23    2    4    4    0    0 -0.53910478534E+03  0.10996616464E+03 -0.11022242529E+03  0.56830968906E+03  0.90002181649E+02 0.  0.
          2    1    3    3  502    0  0.19657396255E+03 -0.27860512899E+02  0.21939856883E+03  0.29589400626E+03  0.00000000000E+00 0. -1.
         -2    1    3    3    0  502  0.35707994331E+03 -0.15040029522E+03  0.31302682419E+03  0.49810854980E+03  0.00000000000E+00 0.  1.
         15    1    5    5    0    0 -0.49970795335E+02  0.50814934692E+02 -0.29413848336E+03  0.30265465980E+03  0.17770000000E+01 0.  1.
        -15    1    5    5    0    0  0.35421674808E+02  0.17479708788E+02 -0.94268143867E+02  0.10222463471E+03  0.17770000000E+01 0. -1.
          3    1    6    6  503    0 -0.39567350904E+03  0.59924481409E+02 -0.11481423866E+03  0.41633013178E+03  0.00000000000E+00 0. -1.
         -3    1    6    6    0  503 -0.14343127630E+03  0.50041683226E+02  0.45918133703E+01  0.15197955728E+03  0.00000000000E+00 0.  1.
<mgrwt>
<rscale>  0 0.62446315E+03</rscale>
<asrwt>0</asrwt>
<pdfrwt beam="1">  1        2 0.13333809E+00 0.62446315E+03</pdfrwt>
<pdfrwt beam="2">  1       -2 0.13853753E+00 0.62446315E+03</pdfrwt>
<totfact> 0.11769242E+01</totfact>
</mgrwt>
</event>
<event>
12    1  0.8033771E-008  0.1323640E+04  0.7818608E-02  0.9011025E-01
         -2   -1    0    0    0  501 -0.00000000000E+00  0.00000000000E+00  0.18111016744E+04  0.18111016744E+04  0.00000000000E+00 0.  1.
          2   -1    0    0  501    0  0.00000000000E+00 -0.00000000000E+00 -0.10535044053E+04  0.10535044053E+04  0.00000000000E+00 0. -1.
         23    2    1    2    0    0 -0.12638788636E+04  0.10857612070E+03  0.71863940920E+03  0.14607785181E+04  0.90844496123E+02 0.  0.
    5000000    2    1    2    0    0  0.12638788636E+04 -0.10857612070E+03  0.38957859953E+02  0.14038275617E+04  0.60002962600E+03 0.  0.
         23    2    4    4    0    0  0.10451593496E+04  0.11715920349E+03  0.13209016240E+03  0.10637160734E+04  0.89217312119E+02 0.  0.
         23    2    4    4    0    0  0.21871951407E+03 -0.22573532419E+03 -0.93132302448E+02  0.34011148829E+03  0.90595454015E+02 0.  0.
          2    1    3    3  502    0 -0.49624951932E+03  0.81307545214E+02  0.30980481232E+03  0.59063823451E+03  0.00000000000E+00 0.  1.
         -2    1    3    3    0  502 -0.76762934433E+03  0.27268575488E+02  0.40883459688E+03  0.87014028357E+03  0.00000000000E+00 0. -1.
         15    1    5    5    0    0  0.76285651846E+03  0.71048829163E+02  0.58719011001E+02  0.76840684788E+03  0.17770000000E+01 0.  1.
        -15    1    5    5    0    0  0.28230283111E+03  0.46110374323E+02  0.73371151400E+02  0.29530922549E+03  0.17770000000E+01 0. -1.
          3    1    6    6  503    0  0.21000405411E+03 -0.23232020808E+03 -0.80377744864E+02  0.32331867205E+03  0.00000000000E+00 0. -1.
         -3    1    6    6    0  503  0.87154599604E+01  0.65848838948E+01 -0.12754557584E+02  0.16792816244E+02  0.00000000000E+00 0.  1.
<mgrwt>
<rscale>  0 0.13236404E+04</rscale>
<asrwt>0</asrwt>
<pdfrwt beam="1">  1        2 0.16207760E+00 0.13236404E+04</pdfrwt>
<pdfrwt beam="2">  1       -2 0.27863103E+00 0.13236404E+04</pdfrwt>
<totfact> 0.96265844E-01</totfact>
</mgrwt>
</event>
<event>
12    1  0.8033771E-008  0.3930292E+03  0.7818608E-02  0.1046220E+00
          2   -1    0    0  501    0  0.00000000000E+00  0.00000000000E+00  0.26893271466E+03  0.26893271466E+03  0.00000000000E+00 0. -1.
         -2   -1    0    0    0  501 -0.00000000000E+00 -0.00000000000E+00 -0.81354317069E+03  0.81354317069E+03  0.00000000000E+00 0.  1.
         23    2    1    2    0    0 -0.14298760072E+03 -0.11875942315E+03 -0.38061224410E+03  0.43312663408E+03  0.90464060486E+02 0.  0.
    5000000    2    1    2    0    0  0.14298760072E+03  0.11875942315E+03 -0.16399821193E+03  0.64934925128E+03  0.60017479293E+03 0.  0.
         23    2    4    4    0    0  0.28316116716E+03 -0.10387565636E+03  0.23557375396E+02  0.31482306816E+03  0.87110365285E+02 0.  0.
         23    2    4    4    0    0 -0.14017356644E+03  0.22263507951E+03 -0.18755558732E+03  0.33452618311E+03  0.86692914902E+02 0.  0.
          3    1    3    3  502    0 -0.88558174374E+02 -0.22836697492E+02 -0.12635545064E+03  0.15598001445E+03  0.00000000000E+00 0. -1.
         -3    1    3    3    0  502 -0.54429426346E+02 -0.95922725660E+02 -0.25425679346E+03  0.27714661963E+03  0.00000000000E+00 0.  1.
         15    1    5    5    0    0  0.76516453290E+02 -0.40107034736E+00 -0.21196405740E+02  0.79418976490E+02  0.17770000000E+01 0. -1.
        -15    1    5    5    0    0  0.20664471387E+03 -0.10347458601E+03  0.44753781136E+02  0.23540409167E+03  0.17770000000E+01 0.  1.
          1    1    6    6  503    0 -0.22024888815E+02  0.11418163149E+03 -0.87024685283E+02  0.14524405855E+03  0.00000000000E+00 0. -1.
         -1    1    6    6    0  503 -0.11814867762E+03  0.10845344803E+03 -0.10053090204E+03  0.18928212456E+03  0.00000000000E+00 0.  1.
<mgrwt>
<rscale>  0 0.39302921E+03</rscale>
<asrwt>0</asrwt>
<pdfrwt beam="1">  1        2 0.41374265E-01 0.39302921E+03</pdfrwt>
<pdfrwt beam="2">  1       -2 0.12516049E+00 0.39302921E+03</pdfrwt>
<totfact> 0.61394759E+01</totfact>
</mgrwt>
</event>
<event>
12    1  0.8033771E-008  0.7942085E+03  0.7818608E-02  0.9568438E-01
         -1   -1    0    0    0  501 -0.00000000000E+00  0.00000000000E+00  0.39673354782E+03  0.39673354782E+03  0.00000000000E+00 0.  1.
          1   -1    0    0  501    0  0.00000000000E+00 -0.00000000000E+00 -0.16337125087E+04  0.16337125087E+04  0.00000000000E+00 0. -1.
         23    2    1    2    0    0 -0.60374611959E+03 -0.32582800030E+03 -0.44445203082E+03  0.82261849570E+03  0.92142927411E+02 0.  0.
    5000000    2    1    2    0    0  0.60374611959E+03  0.32582800030E+03 -0.79252693007E+03  0.12078275608E+04  0.60006267930E+03 0.  0.
         23    2    4    4    0    0 -0.76505692753E+02 -0.35522532731E+02 -0.61451716241E+02  0.14167077586E+03  0.95808788469E+02 0.  0.
         23    2    4    4    0    0  0.68025181235E+03  0.36135053303E+03 -0.73107521383E+03  0.10661567850E+04  0.94353515715E+02 0.  0.
          3    1    3    3  502    0 -0.40063167124E+03 -0.25883841703E+03 -0.28262245342E+03  0.55441727364E+03  0.00000000000E+00 0. -1.
         -3    1    3    3    0  502 -0.20311444835E+03 -0.66989583268E+02 -0.16182957739E+03  0.26820122206E+03  0.00000000000E+00 0.  1.
         15    1    5    5    0    0 -0.66305902609E+02  0.18000707373E+02 -0.15696084469E+02  0.70498389934E+02  0.17770000000E+01 0. -1.
        -15    1    5    5    0    0 -0.10199790145E+02 -0.53523240104E+02 -0.45755631772E+02  0.71172385923E+02  0.17770000000E+01 0.  1.
          3    1    6    6  503    0  0.28637536158E+02  0.35998529716E+02 -0.61665028076E+02  0.76932296901E+02  0.00000000000E+00 0. -1.
         -3    1    6    6    0  503  0.65161427619E+03  0.32535200332E+03 -0.66941018575E+03  0.98922448806E+03  0.00000000000E+00 0.  1.
<mgrwt>
<rscale>  0 0.79420846E+03</rscale>
<asrwt>0</asrwt>
<pdfrwt beam="1">  1        1 0.25134038E+00 0.79420846E+03</pdfrwt>
<pdfrwt beam="2">  1       -1 0.61035932E-01 0.79420846E+03</pdfrwt>
<totfact> 0.14860903E+01</totfact>
</mgrwt>
</event>
<event>
12    1  0.9849291E-008  0.5585981E+03  0.7818608E-02  0.9995232E-01
          1   -1    0    0  501    0  0.00000000000E+00  0.00000000000E+00  0.10029316815E+04  0.10029316815E+04  0.00000000000E+00 0. -1.
         -1   -1    0    0    0  501 -0.00000000000E+00 -0.00000000000E+00 -0.52802001250E+03  0.52802001250E+03  0.00000000000E+00 0.  1.
         23    2    1    2    0    0  0.14386556831E+02  0.52649821069E+03  0.50079301153E+03  0.73216776947E+03  0.88705486765E+02 0.  0.
    5000000    2    1    2    0    0 -0.14386556831E+02 -0.52649821069E+03 -0.25881342582E+02  0.79878392448E+03  0.59998214577E+03 0.  0.
         23    2    4    4    0    0 -0.45260147961E+02 -0.28521176803E+02 -0.22879998961E+03  0.25267202585E+03  0.92907367204E+02 0.  0.
         23    2    4    4    0    0  0.30873591130E+02 -0.49797703388E+03  0.20291864703E+03  0.54611189864E+03  0.90154997756E+02 0.  0.
          2    1    3    3  502    0  0.11270308912E+01  0.28799708552E+03  0.21328444671E+03  0.35837668266E+03  0.00000000000E+00 0. -1.
         -2    1    3    3    0  502  0.13259525940E+02  0.23850112516E+03  0.28750856482E+03  0.37379108681E+03  0.00000000000E+00 0.  1.
         15    1    5    5    0    0  0.18897695893E+02  0.40345205219E+01 -0.12419405682E+03  0.12570092181E+03  0.17770000000E+01 0. -1.
        -15    1    5    5    0    0 -0.64157843854E+02 -0.32555697325E+02 -0.10460593279E+03  0.12697110404E+03  0.17770000000E+01 0.  1.
          3    1    6    6  503    0  0.12056864566E+02 -0.23243734772E+03  0.46489096778E+02  0.23734726609E+03  0.00000000000E+00 0. -1.
         -3    1    6    6    0  503  0.18816726564E+02 -0.26553968616E+03  0.15642955025E+03  0.30876463255E+03  0.00000000000E+00 0.  1.
<mgrwt>
<rscale>  0 0.55859814E+03</rscale>
<asrwt>0</asrwt>
<pdfrwt beam="1">  1        1 0.15429718E+00 0.55859814E+03</pdfrwt>
<pdfrwt beam="2">  1       -1 0.81233848E-01 0.55859814E+03</pdfrwt>
<totfact> 0.23983111E+01</totfact>
</mgrwt>
</event>
<event>
12    1  0.8033771E-008  0.2910363E+03  0.7818608E-02  0.1089809E+00
          1   -1    0    0  501    0  0.00000000000E+00  0.00000000000E+00  0.25894105147E+04  0.25894105147E+04  0.00000000000E+00 0. -1.
         -1   -1    0    0    0  501 -0.00000000000E+00 -0.00000000000E+00 -0.77248992480E+02  0.77248992480E+02  0.00000000000E+00 0.  1.
         23    2    1    2    0    0 -0.13891685407E+03  0.16813972619E+03  0.45533384608E+03  0.51303487105E+03  0.91142787245E+02 0.  0.
    5000000    2    1    2    0    0  0.13891685407E+03 -0.16813972619E+03  0.20568276762E+04  0.21536246362E+04  0.59999177004E+03 0.  0.
         23    2    4    4    0    0  0.19651876277E+03 -0.50229782391E+02  0.19491721259E+04  0.19617926231E+04  0.90640302404E+02 0.  0.
         23    2    4    4    0    0 -0.57601908705E+02 -0.11790994380E+03  0.10765555023E+03  0.19183201303E+03  0.89381592038E+02 0.  0.
          3    1    3    3  502    0 -0.91720442400E+02  0.52660449875E+02  0.26644208427E+03  0.28666556613E+03  0.00000000000E+00 0. -1.
         -3    1    3    3    0  502 -0.47196411667E+02  0.11547927632E+03  0.18889176181E+03  0.22636930493E+03  0.00000000000E+00 0.  1.
         15    1    5    5    0    0  0.11308943424E+03  0.13853451097E+01  0.13403560772E+04  0.13451203332E+04  0.17770000000E+01 0. -1.
        -15    1    5    5    0    0  0.83429328529E+02 -0.51615127501E+02  0.60881604877E+03  0.61667228997E+03  0.17770000000E+01 0.  1.
          4    1    6    6  503    0 -0.17186898474E+02 -0.88975903001E+02  0.10944817525E+03  0.14209505220E+03  0.00000000000E+00 0.  1.
         -4    1    6    6    0  503 -0.40415010231E+02 -0.28934040801E+02 -0.17926250138E+01  0.49736960839E+02  0.00000000000E+00 0. -1.
<mgrwt>
<rscale>  0 0.29103627E+03</rscale>
<asrwt>0</asrwt>
<pdfrwt beam="1">  1        1 0.39837078E+00 0.29103627E+03</pdfrwt>
<pdfrwt beam="2">  1       -1 0.11884462E-01 0.29103627E+03</pdfrwt>
<totfact> 0.64076393E+01</totfact>
</mgrwt>
</event>
<event>
12    1  0.8033771E-008  0.4607672E+03  0.7818608E-02  0.1024559E+00
          1   -1    0    0  501    0  0.00000000000E+00  0.00000000000E+00  0.19671369196E+04  0.19671369196E+04  0.00000000000E+00 0. -1.
         -1   -1    0    0    0  501 -0.00000000000E+00 -0.00000000000E+00 -0.30704727946E+03  0.30704727946E+03  0.00000000000E+00 0.  1.
         23    2    1    2    0    0 -0.15616776506E+03  0.41076773363E+03  0.14248717162E+04  0.14940795126E+04  0.94316915747E+02 0.  0.
    5000000    2    1    2    0    0  0.15616776506E+03 -0.41076773363E+03  0.23521792402E+03  0.78010468652E+03  0.60009778229E+03 0.  0.
         23    2    4    4    0    0  0.17284966201E+03 -0.27363664253E+03  0.41577464073E+03  0.53470576366E+03  0.91036717980E+02 0.  0.
         23    2    4    4    0    0 -0.16681896954E+02 -0.13713109110E+03 -0.18055671671E+03  0.24539892286E+03  0.92394164098E+02 0.  0.
          1    1    3    3  502    0 -0.93670217500E+02  0.18008857516E+03  0.79152905256E+03  0.81714395647E+03  0.00000000000E+00 0. -1.
         -1    1    3    3    0  502 -0.62497547559E+02  0.23067915847E+03  0.63334266359E+03  0.67693555611E+03  0.00000000000E+00 0.  1.
         15    1    5    5    0    0  0.51597694846E+02 -0.70411377540E+02  0.18297926240E+03  0.20274282330E+03  0.17770000000E+01 0. -1.
        -15    1    5    5    0    0  0.12125196717E+03 -0.20322526499E+03  0.23279537833E+03  0.33196294036E+03  0.17770000000E+01 0.  1.
          1    1    6    6  503    0 -0.73731688091E+00  0.87745931467E+01 -0.44169994672E+02  0.45039155747E+02  0.00000000000E+00 0. -1.
         -1    1    6    6    0  503 -0.15944580073E+02 -0.14590568425E+03 -0.13638672204E+03  0.20035976711E+03  0.00000000000E+00 0.  1.
<mgrwt>
<rscale>  0 0.46076715E+03</rscale>
<asrwt>0</asrwt>
<pdfrwt beam="1">  1        1 0.30263644E+00 0.46076715E+03</pdfrwt>
<pdfrwt beam="2">  1       -1 0.47238044E-01 0.46076715E+03</pdfrwt>
<totfact> 0.15446369E+01</totfact>
</mgrwt>
</event>
<event>
12    1  0.8033771E-008  0.1093542E+04  0.7818608E-02  0.9211510E-01
          1   -1    0    0  501    0  0.00000000000E+00  0.00000000000E+00  0.11391608881E+04  0.11391608881E+04  0.00000000000E+00 0. -1.
         -1   -1    0    0    0  501 -0.00000000000E+00 -0.00000000000E+00 -0.11015538682E+04  0.11015538682E+04  0.00000000000E+00 0.  1.
         23    2    1    2    0    0 -0.67260052110E+03  0.76422488803E+03  0.21835601578E+03  0.10452866396E+04  0.92269544005E+02 0.  0.
    5000000    2    1    2    0    0  0.67260052110E+03 -0.76422488803E+03 -0.18074899584E+03  0.11954281167E+04  0.59995586697E+03 0.  0.
         23    2    4    4    0    0  0.41243090245E+03 -0.67178502212E+02 -0.17823569236E+02  0.42823364989E+03  0.91946608556E+02 0.  0.
         23    2    4    4    0    0  0.26016961866E+03 -0.69704638582E+03 -0.16292542661E+03  0.76719446685E+03  0.92091046638E+02 0.  0.
          3    1    3    3  502    0 -0.50522726612E+03  0.54974549644E+03  0.19810428953E+03  0.77247654387E+03  0.00000000000E+00 0. -1.
         -3    1    3    3    0  502 -0.16737325498E+03  0.21447939159E+03  0.20251726248E+02  0.27281009570E+03  0.00000000000E+00 0.  1.
         15    1    5    5    0    0  0.19621445080E+02 -0.19160831089E+02 -0.17340356566E+02  0.32495911280E+02  0.17770000000E+01 0.  1.
        -15    1    5    5    0    0  0.39280945737E+03 -0.48017671123E+02 -0.48321267050E+00  0.39573773861E+03  0.17770000000E+01 0. -1.
          4    1    6    6  503    0  0.21189518549E+03 -0.51652913494E+03 -0.84998946445E+02  0.56473598944E+03  0.00000000000E+00 0. -1.
         -4    1    6    6    0  503  0.48274433170E+02 -0.18051725088E+03 -0.77926480163E+02  0.20245847741E+03  0.00000000000E+00 0.  1.
<mgrwt>
<rscale>  0 0.10935416E+04</rscale>
<asrwt>0</asrwt>
<pdfrwt beam="1">  1        1 0.17525552E+00 0.10935416E+04</pdfrwt>
<pdfrwt beam="2">  1       -1 0.16946983E+00 0.10935416E+04</pdfrwt>
<totfact> 0.29195434E+00</totfact>
</mgrwt>
</event>
<event>
12    1  0.8033771E-008  0.7233059E+03  0.7818608E-02  0.9678186E-01
         -2   -1    0    0    0  501 -0.00000000000E+00  0.00000000000E+00  0.26196809843E+03  0.26196809843E+03  0.00000000000E+00 0.  1.
          2   -1    0    0  501    0  0.00000000000E+00 -0.00000000000E+00 -0.23259689111E+04  0.23259689111E+04  0.00000000000E+00 0. -1.
         23    2    1    2    0    0 -0.41394024883E+03 -0.50475562969E+03 -0.10631666553E+04  0.12508610051E+04  0.90582238699E+02 0.  0.
    5000000    2    1    2    0    0  0.41394024883E+03  0.50475562969E+03 -0.10008341574E+04  0.13370760044E+04  0.59998204606E+03 0.  0.
         23    2    4    4    0    0  0.43240423657E+03  0.22194788011E+03 -0.30719515937E+03  0.58217549325E+03  0.91242280265E+02 0.  0.
         23    2    4    4    0    0 -0.18463987742E+02  0.28280774958E+03 -0.69363899800E+03  0.75490051112E+03  0.91752820525E+02 0.  0.
          1    1    3    3  502    0 -0.12232768454E+03 -0.98311903152E+02 -0.29560341482E+03  0.33467995392E+03  0.00000000000E+00 0. -1.
         -1    1    3    3    0  502 -0.29161256429E+03 -0.40644372654E+03 -0.76756324046E+03  0.91618105121E+03  0.00000000000E+00 0.  1.
         15    1    5    5    0    0  0.34254081548E+03  0.14039699746E+03 -0.25792607642E+03  0.45119236007E+03  0.17770000000E+01 0. -1.
        -15    1    5    5    0    0  0.89863421093E+02  0.81550882655E+02 -0.49269082950E+02  0.13098313317E+03  0.17770000000E+01 0.  1.
          3    1    6    6  503    0  0.25237417832E+02  0.21951863496E+03 -0.51798777409E+03  0.56314890789E+03  0.00000000000E+00 0. -1.
         -3    1    6    6    0  503 -0.43701405574E+02  0.63289114615E+02 -0.17565122391E+03  0.19175160323E+03  0.00000000000E+00 0.  1.
<mgrwt>
<rscale>  0 0.72330593E+03</rscale>
<asrwt>0</asrwt>
<pdfrwt beam="1">  1        2 0.35784139E+00 0.72330593E+03</pdfrwt>
<pdfrwt beam="2">  1       -2 0.40302782E-01 0.72330593E+03</pdfrwt>
<totfact> 0.26662186E+01</totfact>
</mgrwt>
</event>
<event>
12    1  0.8033771E-008  0.4022621E+03  0.7818608E-02  0.1042999E+00
         -1   -1    0    0    0  501 -0.00000000000E+00  0.00000000000E+00  0.12487738956E+03  0.12487738956E+03  0.00000000000E+00 0.  1.
          1   -1    0    0  501    0  0.00000000000E+00 -0.00000000000E+00 -0.14437294128E+04  0.14437294128E+04  0.00000000000E+00 0. -1.
         23    2    1    2    0    0 -0.17600034345E+03  0.73799731310E+02 -0.42723227842E+03  0.47713562473E+03  0.93319148248E+02 0.  0.
    5000000    2    1    2    0    0  0.17600034345E+03 -0.73799731310E+02 -0.89161974483E+03  0.10914711776E+04  0.59991752850E+03 0.  0.
         23    2    4    4    0    0  0.12934288210E+03 -0.32257421225E+03 -0.47693214109E+03  0.59722681766E+03  0.91825383038E+02 0.  0.
         23    2    4    4    0    0  0.46657461345E+02  0.24877448094E+03 -0.41468760374E+03  0.49424435997E+03  0.90807585604E+02 0.  0.
          2    1    3    3  502    0 -0.13962629619E+03  0.52750478882E+02 -0.22111054216E+03  0.26677328851E+03  0.00000000000E+00 0. -1.
         -2    1    3    3    0  502 -0.36374047264E+02  0.21049252427E+02 -0.20612173626E+03  0.21036233622E+03  0.00000000000E+00 0.  1.
         15    1    5    5    0    0  0.58778170386E+02 -0.25473613223E+03 -0.33977607939E+03  0.42871472127E+03  0.17770000000E+01 0. -1.
        -15    1    5    5    0    0  0.70564711718E+02 -0.67838080016E+02 -0.13715606170E+03  0.16851209639E+03  0.17770000000E+01 0.  1.
          1    1    6    6  503    0  0.13915259153E+02  0.12853738554E+03 -0.12936456276E+03  0.18289528156E+03  0.00000000000E+00 0. -1.
         -1    1    6    6    0  503  0.32742202191E+02  0.12023709540E+03 -0.28532304099E+03  0.31134907842E+03  0.00000000000E+00 0.  1.
<mgrwt>
<rscale>  0 0.40226205E+03</rscale>
<asrwt>0</asrwt>
<pdfrwt beam="1">  1        1 0.22211223E+00 0.40226205E+03</pdfrwt>
<pdfrwt beam="2">  1       -1 0.19211905E-01 0.40226205E+03</pdfrwt>
<totfact> 0.16548682E+02</totfact>
</mgrwt>
</event>
<event>
12    1  0.8033771E-008  0.9798155E+03  0.7818608E-02  0.9330964E-01
         -1   -1    0    0    0  501 -0.00000000000E+00  0.00000000000E+00  0.94965172803E+03  0.94965172803E+03  0.00000000000E+00 0.  1.
          1   -1    0    0  501    0  0.00000000000E+00 -0.00000000000E+00 -0.21464413233E+04  0.21464413233E+04  0.00000000000E+00 0. -1.
         23    2    1    2    0    0  0.94838296667E+03 -0.21799934570E+03 -0.16078507329E+04  0.18812286785E+04  0.82966228259E+02 0.  0.
    5000000    2    1    2    0    0 -0.94838296667E+03  0.21799934570E+03  0.41106113765E+03  0.12148643729E+04  0.59997518236E+03 0.  0.
         23    2    4    4    0    0 -0.67996190013E+03  0.12566325517E+03 -0.11266720104E+02  0.69731225667E+03  0.89319678658E+02 0.  0.
         23    2    4    4    0    0 -0.26842106655E+03  0.92336090530E+02  0.42232785776E+03  0.51755211623E+03  0.94464548890E+02 0.  0.
          4    1    3    3  502    0  0.64467160751E+03 -0.13403387067E+03 -0.11555858672E+04  0.13300170136E+04  0.00000000000E+00 0. -1.
         -4    1    3    3    0  502  0.30371135917E+03 -0.83965475030E+02 -0.45226486574E+03  0.55121166485E+03  0.00000000000E+00 0.  1.
         15    1    5    5    0    0 -0.56595590145E+02  0.61574201592E+01 -0.25562593465E+02  0.62430589943E+02  0.17770000000E+01 0.  1.
        -15    1    5    5    0    0 -0.62336630998E+03  0.11950583501E+03  0.14295873362E+02  0.63488166673E+03  0.17770000000E+01 0. -1.
          2    1    6    6  503    0 -0.17673471468E+03  0.20510699065E+02  0.20878550180E+03  0.27431229267E+03  0.00000000000E+00 0. -1.
         -2    1    6    6    0  503 -0.91686351874E+02  0.71825391466E+02  0.21354235596E+03  0.24323982357E+03  0.00000000000E+00 0.  1.
<mgrwt>
<rscale>  0 0.97981553E+03</rscale>
<asrwt>0</asrwt>
<pdfrwt beam="1">  1        1 0.33022174E+00 0.97981553E+03</pdfrwt>
<pdfrwt beam="2">  1       -1 0.14610027E+00 0.97981553E+03</pdfrwt>
<totfact> 0.90184136E-01</totfact>
</mgrwt>
</event>
<event>
12    1  0.8033771E-008  0.3915831E+03  0.7818608E-02  0.1046734E+00
         -1   -1    0    0    0  501 -0.00000000000E+00  0.00000000000E+00  0.35994570893E+03  0.35994570893E+03  0.00000000000E+00 0.  1.
          1   -1    0    0  501    0  0.00000000000E+00 -0.00000000000E+00 -0.11287876076E+04  0.11287876076E+04  0.00000000000E+00 0. -1.
         23    2    1    2    0    0  0.24380685849E+03  0.18393477961E+03  0.14746641391E+03  0.35158838729E+03  0.92705250376E+02 0.  0.
    5000000    2    1    2    0    0 -0.24380685849E+03 -0.18393477961E+03 -0.91630831260E+03  0.11371449293E+04  0.60016987513E+03 0.  0.
         23    2    4    4    0    0 -0.29265209425E+03 -0.20403913673E+03 -0.21231947684E+03  0.42487494901E+03  0.90343480501E+02 0.  0.
         23    2    4    4    0    0  0.48845235753E+02  0.20104357118E+02 -0.70398883577E+03  0.71226998025E+03  0.94542062886E+02 0.  0.
          2    1    3    3  502    0  0.24676703145E+02  0.63743116360E+02  0.42671915249E+02  0.80579258575E+02  0.00000000000E+00 0. -1.
         -2    1    3    3    0  502  0.21913015535E+03  0.12019166325E+03  0.10479449866E+03  0.27100912872E+03  0.00000000000E+00 0.  1.
         15    1    5    5    0    0 -0.87808102313E+02 -0.54197240361E+02 -0.16951817306E+02  0.10458549390E+03  0.17770000000E+01 0.  1.
        -15    1    5    5    0    0 -0.20484399193E+03 -0.14984189637E+03 -0.19536765953E+03  0.32028945512E+03  0.17770000000E+01 0. -1.
          3    1    6    6  503    0 -0.17160958008E+02 -0.23256983145E+02 -0.21763365567E+03  0.21954451445E+03  0.00000000000E+00 0. -1.
         -3    1    6    6    0  503  0.66006193760E+02  0.43361340263E+02 -0.48635518010E+03  0.49272546580E+03  0.00000000000E+00 0.  1.
<mgrwt>
<rscale>  0 0.39158306E+03</rscale>
<asrwt>0</asrwt>
<pdfrwt beam="1">  1        1 0.17365963E+00 0.39158306E+03</pdfrwt>
<pdfrwt beam="2">  1       -1 0.55376263E-01 0.39158306E+03</pdfrwt>
<totfact> 0.43007221E+01</totfact>
</mgrwt>
</event>
<event>
12    1  0.8033771E-008  0.6489777E+03  0.7818608E-02  0.9808699E-01
          1   -1    0    0  501    0  0.00000000000E+00  0.00000000000E+00  0.49283239880E+03  0.49283239880E+03  0.00000000000E+00 0. -1.
         -1   -1    0    0    0  501 -0.00000000000E+00 -0.00000000000E+00 -0.95520319893E+03  0.95520319893E+03  0.00000000000E+00 0.  1.
         23    2    1    2    0    0  0.40819174749E+02  0.52855463785E+03 -0.34322125105E+03  0.63853318704E+03  0.94274034355E+02 0.  0.
    5000000    2    1    2    0    0 -0.40819174749E+02 -0.52855463785E+03 -0.11914954908E+03  0.80950241069E+03  0.60005110420E+03 0.  0.
         23    2    4    4    0    0 -0.27374695098E+03 -0.37846316647E+03 -0.18600634301E+03  0.51063426567E+03  0.89315351951E+02 0.  0.
         23    2    4    4    0    0  0.23292777623E+03 -0.15009147138E+03  0.66856793928E+02  0.29886814502E+03  0.89830610021E+02 0.  0.
          2    1    3    3  502    0  0.62569532870E+02  0.21357528297E+03 -0.14969253372E+03  0.26821111571E+03  0.00000000000E+00 0. -1.
         -2    1    3    3    0  502 -0.21750358121E+02  0.31497935488E+03 -0.19352871733E+03  0.37032207132E+03  0.00000000000E+00 0.  1.
         15    1    5    5    0    0 -0.82418280246E+02 -0.87673482880E+02 -0.10502688521E+02  0.12080097977E+03  0.17770000000E+01 0.  1.
        -15    1    5    5    0    0 -0.19132867073E+03 -0.29078968359E+03 -0.17550365449E+03  0.38983328590E+03  0.17770000000E+01 0. -1.
          1    1    6    6  503    0  0.72965034562E+02 -0.99656950006E+02  0.25450649002E+02  0.12610765039E+03  0.00000000000E+00 0. -1.
         -1    1    6    6    0  503  0.15996274166E+03 -0.50434521371E+02  0.41406144926E+02  0.17276049463E+03  0.00000000000E+00 0.  1.
<mgrwt>
<rscale>  0 0.64897769E+03</rscale>
<asrwt>0</asrwt>
<pdfrwt beam="1">  1        1 0.75820369E-01 0.64897769E+03</pdfrwt>
<pdfrwt beam="2">  1       -1 0.14695434E+00 0.64897769E+03</pdfrwt>
<totfact> 0.17326503E+01</totfact>
</mgrwt>
</event>
<event>
12    1  0.8033771E-008  0.4982357E+03  0.7818608E-02  0.1014240E+00
          2   -1    0    0  501    0  0.00000000000E+00  0.00000000000E+00  0.59843574792E+03  0.59843574792E+03  0.00000000000E+00 0. -1.
         -2   -1    0    0    0  501 -0.00000000000E+00 -0.00000000000E+00 -0.15967648114E+04  0.15967648114E+04  0.00000000000E+00 0.  1.
         23    2    1    2    0    0 -0.25021580602E+03  0.24509171122E+03  0.45688975545E+03  0.58263085000E+03  0.89624562788E+02 0.  0.
    5000000    2    1    2    0    0  0.25021580602E+03 -0.24509171122E+03 -0.14552188189E+04  0.16125697093E+04  0.60003446563E+03 0.  0.
         23    2    4    4    0    0 -0.14322848802E+03  0.17514342778E+02 -0.17204206402E+03  0.24211188094E+03  0.90545784643E+02 0.  0.
         23    2    4    4    0    0  0.39344429404E+03 -0.26260605399E+03 -0.12831767549E+04  0.13704578284E+04  0.88609948115E+02 0.  0.
          2    1    3    3  502    0 -0.62648347247E+02  0.48179470530E+02  0.16921452620E+03  0.18676089706E+03  0.00000000000E+00 0. -1.
         -2    1    3    3    0  502 -0.18756745877E+03  0.19691224069E+03  0.28767522925E+03  0.39586995295E+03  0.00000000000E+00 0.  1.
         15    1    5    5    0    0 -0.26350160796E+02 -0.33461377319E+02 -0.48288833236E+02  0.64412451361E+02  0.17770000000E+01 0.  1.
        -15    1    5    5    0    0 -0.11687832723E+03  0.50975720097E+02 -0.12375323079E+03  0.17769942958E+03  0.17770000000E+01 0. -1.
          4    1    6    6  503    0  0.29256158920E+03 -0.16982836252E+03 -0.80920042382E+03  0.87706287238E+03  0.00000000000E+00 0.  1.
         -4    1    6    6    0  503  0.10088270484E+03 -0.92777691478E+02 -0.47397633108E+03  0.49339495599E+03  0.00000000000E+00 0. -1.
<mgrwt>
<rscale>  0 0.49823573E+03</rscale>
<asrwt>0</asrwt>
<pdfrwt beam="1">  1        2 0.92067041E-01 0.49823573E+03</pdfrwt>
<pdfrwt beam="2">  1       -2 0.24565612E+00 0.49823573E+03</pdfrwt>
<totfact> 0.36536348E+00</totfact>
</mgrwt>
</event>
<event>
12    1  0.8033771E-008  0.5534667E+03  0.7818608E-02  0.1000695E+00
          2   -1    0    0  501    0  0.00000000000E+00  0.00000000000E+00  0.28509217354E+04  0.28509217354E+04  0.00000000000E+00 0.  1.
         -2   -1    0    0    0  501 -0.00000000000E+00 -0.00000000000E+00 -0.11287656219E+03  0.11287656219E+03  0.00000000000E+00 0. -1.
         23    2    1    2    0    0 -0.22865648259E+03  0.33007343242E+03  0.10538997050E+04  0.11313495411E+04  0.89526186690E+02 0.  0.
    5000000    2    1    2    0    0  0.22865648259E+03 -0.33007343242E+03  0.16841454682E+04  0.18324487565E+04  0.60024180900E+03 0.  0.
         23    2    4    4    0    0 -0.18939433448E+03 -0.94774523651E+02  0.60465487177E+03  0.64786595755E+03  0.96282712505E+02 0.  0.
         23    2    4    4    0    0  0.41805081707E+03 -0.23529890877E+03  0.10794905965E+04  0.11845827990E+04  0.88342501908E+02 0.  0.
          3    1    3    3  502    0 -0.14180508622E+03  0.22401952289E+03  0.80028668386E+03  0.84306121099E+03  0.00000000000E+00 0. -1.
         -3    1    3    3    0  502 -0.86851396375E+02  0.10605390953E+03  0.25361302111E+03  0.28828833007E+03  0.00000000000E+00 0.  1.
         15    1    5    5    0    0 -0.56077427313E+02  0.75170892047E+01  0.23635144314E+03  0.24303569056E+03  0.17770000000E+01 0. -1.
        -15    1    5    5    0    0 -0.13331690717E+03 -0.10229161286E+03  0.36830342864E+03  0.40483026699E+03  0.17770000000E+01 0.  1.
          4    1    6    6  503    0  0.23813479591E+03 -0.12359461220E+03  0.49707233088E+03  0.56485813379E+03  0.00000000000E+00 0. -1.
         -4    1    6    6    0  503  0.17991602117E+03 -0.11170429657E+03  0.58241826560E+03  0.61972466519E+03  0.00000000000E+00 0.  1.
<mgrwt>
<rscale>  0 0.55346667E+03</rscale>
<asrwt>0</asrwt>
<pdfrwt beam="1">  1        2 0.43860329E+00 0.55346667E+03</pdfrwt>
<pdfrwt beam="2">  1       -2 0.17365627E-01 0.55346667E+03</pdfrwt>
<totfact> 0.63649699E+01</totfact>
</mgrwt>
</event>
<event>
12    1  0.8033771E-008  0.3345668E+03  0.7818608E-02  0.1069134E+00
         -1   -1    0    0    0  501 -0.00000000000E+00  0.00000000000E+00  0.14419434299E+03  0.14419434299E+03  0.00000000000E+00 0.  1.
          1   -1    0    0  501    0  0.00000000000E+00 -0.00000000000E+00 -0.13400250622E+04  0.13400250622E+04  0.00000000000E+00 0. -1.
         23    2    1    2    0    0 -0.13252784590E+03 -0.63302754592E+02 -0.44724516098E+02  0.17778644572E+03  0.89648587638E+02 0.  0.
    5000000    2    1    2    0    0  0.13252784590E+03  0.63302754592E+02 -0.11511062031E+04  0.13064329594E+04  0.60012558525E+03 0.  0.
         23    2    4    4    0    0  0.28109800962E+03  0.15182613275E+03 -0.34830307836E+03  0.48102166954E+03  0.89440184354E+02 0.  0.
         23    2    4    4    0    0 -0.14857016372E+03 -0.88523378156E+02 -0.80280312472E+03  0.82541128990E+03  0.83075016757E+02 0.  0.
          1    1    3    3  502    0 -0.90292338985E+02 -0.32480771775E+02  0.16401850581E+02  0.97348485951E+02  0.00000000000E+00 0. -1.
         -1    1    3    3    0  502 -0.42235506914E+02 -0.30821982817E+02 -0.61126366679E+02  0.80437959773E+02  0.00000000000E+00 0.  1.
         15    1    5    5    0    0  0.77559807849E+02  0.34289380505E+00 -0.92469938705E+02  0.12070413689E+03  0.17770000000E+01 0. -1.
        -15    1    5    5    0    0  0.20353820177E+03  0.15148323894E+03 -0.25583313965E+03  0.36031753265E+03  0.17770000000E+01 0.  1.
          4    1    6    6  503    0 -0.52885014345E+02 -0.76705136984E+02 -0.33126610566E+03  0.34411878115E+03  0.00000000000E+00 0. -1.
         -4    1    6    6    0  503 -0.95685149374E+02 -0.11818241172E+02 -0.47153701905E+03  0.48129250874E+03  0.00000000000E+00 0.  1.
<mgrwt>
<rscale>  0 0.33456684E+03</rscale>
<asrwt>0</asrwt>
<pdfrwt beam="1">  1        1 0.20615770E+00 0.33456684E+03</pdfrwt>
<pdfrwt beam="2">  1       -1 0.22183746E-01 0.33456684E+03</pdfrwt>
<totfact> 0.15525161E+02</totfact>
</mgrwt>
</event>
<event>
12    1  0.8033771E-008  0.1538179E+04  0.7818608E-02  0.8859454E-01
          2   -1    0    0  501    0  0.00000000000E+00  0.00000000000E+00  0.14101012826E+04  0.14101012826E+04  0.00000000000E+00 0. -1.
         -2   -1    0    0    0  501 -0.00000000000E+00 -0.00000000000E+00 -0.16967726552E+04  0.16967726552E+04  0.00000000000E+00 0.  1.
         23    2    1    2    0    0 -0.93698696571E+02 -0.14815981310E+04 -0.22850794351E+03  0.15046068490E+04  0.87826091328E+02 0.  0.
    5000000    2    1    2    0    0  0.93698696571E+02  0.14815981310E+04 -0.58163429054E+02  0.16022670888E+04  0.59997030915E+03 0.  0.
         23    2    4    4    0    0 -0.22922464129E+03  0.78796050264E+03  0.32999527085E+02  0.82628872090E+03  0.90765586052E+02 0.  0.
         23    2    4    4    0    0  0.32292333786E+03  0.69363762836E+03 -0.91162956139E+02  0.77597836790E+03  0.91755660625E+02 0.  0.
          1    1    3    3  502    0 -0.22548362108E+02 -0.63442303910E+03 -0.13795416273E+03  0.64964018671E+03  0.00000000000E+00 0. -1.
         -1    1    3    3    0  502 -0.71150334463E+02 -0.84717509190E+03 -0.90553780781E+02  0.85496666230E+03  0.00000000000E+00 0.  1.
         15    1    5    5    0    0 -0.34159167918E+02  0.18538231237E+03  0.40787082503E+02  0.19287351897E+03  0.17770000000E+01 0.  1.
        -15    1    5    5    0    0 -0.19506547338E+03  0.60257819027E+03 -0.77875554184E+01  0.63341520193E+03  0.17770000000E+01 0. -1.
          2    1    6    6  503    0  0.16690031478E+03  0.26321339786E+03 -0.57358329868E+02  0.31690217086E+03  0.00000000000E+00 0. -1.
         -2    1    6    6    0  503  0.15602302309E+03  0.43042423050E+03 -0.33804626271E+02  0.45907619704E+03  0.00000000000E+00 0.  1.
<mgrwt>
<rscale>  0 0.15381791E+04</rscale>
<asrwt>0</asrwt>
<pdfrwt beam="1">  1        2 0.21693866E+00 0.15381791E+04</pdfrwt>
<pdfrwt beam="2">  1       -2 0.26104194E+00 0.15381791E+04</pdfrwt>
<totfact> 0.73630997E-01</totfact>
</mgrwt>
</event>
<event>
12    1  0.8033771E-008  0.1002957E+04  0.7818608E-02  0.9305308E-01
          1   -1    0    0  501    0  0.00000000000E+00  0.00000000000E+00  0.21115166416E+04  0.21115166416E+04  0.00000000000E+00 0. -1.
         -1   -1    0    0    0  501 -0.00000000000E+00 -0.00000000000E+00 -0.69318722867E+03  0.69318722867E+03  0.00000000000E+00 0.  1.
         23    2    1    2    0    0  0.72580299888E+03 -0.65357355001E+03  0.43339948216E+00  0.98134511632E+03  0.95339766338E+02 0.  0.
    5000000    2    1    2    0    0 -0.72580299888E+03  0.65357355001E+03  0.14178960134E+04  0.18233587540E+04  0.60021634617E+03 0.  0.
         23    2    4    4    0    0 -0.60867487320E+03  0.39206837060E+03  0.57782511892E+03  0.93069204769E+03  0.90017282140E+02 0.  0.
         23    2    4    4    0    0 -0.11712812567E+03  0.26150517941E+03  0.84007089453E+03  0.89266670626E+03  0.95030436981E+02 0.  0.
          3    1    3    3  502    0  0.59739304691E+03 -0.56085511265E+03  0.31170207303E+02  0.82000517785E+03  0.00000000000E+00 0. -1.
         -3    1    3    3    0  502  0.12840995197E+03 -0.92718437356E+02 -0.30736807821E+02  0.16133993847E+03  0.00000000000E+00 0.  1.
         15    1    5    5    0    0 -0.28120428895E+03  0.13115462946E+03  0.22744737691E+03  0.38472438959E+03  0.17770000000E+01 0. -1.
        -15    1    5    5    0    0 -0.32747058426E+03  0.26091374114E+03  0.35037774200E+03  0.54596765810E+03  0.17770000000E+01 0.  1.
          1    1    6    6  503    0  0.76850165860E+01  0.70690550194E+02  0.15220582660E+03  0.16799650895E+03  0.00000000000E+00 0. -1.
         -1    1    6    6    0  503 -0.12481314226E+03  0.19081462921E+03  0.68786506793E+03  0.72467019732E+03  0.00000000000E+00 0.  1.
<mgrwt>
<rscale>  0 0.10029567E+04</rscale>
<asrwt>0</asrwt>
<pdfrwt beam="1">  1        1 0.32484871E+00 0.10029567E+04</pdfrwt>
<pdfrwt beam="2">  1       -1 0.10664419E+00 0.10029567E+04</pdfrwt>
<totfact> 0.20798244E+00</totfact>
</mgrwt>
</event>
<event>
12    1  0.8033771E-008  0.6039756E+03  0.7818608E-02  0.9897192E-01
          1   -1    0    0  501    0  0.00000000000E+00  0.00000000000E+00  0.73813811906E+03  0.73813811906E+03  0.00000000000E+00 0. -1.
         -1   -1    0    0    0  501 -0.00000000000E+00 -0.00000000000E+00 -0.55496593097E+03  0.55496593097E+03  0.00000000000E+00 0.  1.
         23    2    1    2    0    0 -0.45741299149E+03  0.13187742917E+03  0.20764266330E+03  0.52688511281E+03  0.88736381312E+02 0.  0.
    5000000    2    1    2    0    0  0.45741299149E+03 -0.13187742917E+03 -0.24470475214E+02  0.76621893721E+03  0.59989528626E+03 0.  0.
         23    2    4    4    0    0 -0.85617364157E+02 -0.13867649672E+03  0.82759492450E+02  0.20537742458E+03  0.93644269162E+02 0.  0.
         23    2    4    4    0    0  0.54303035565E+03  0.67990675485E+01 -0.10722996766E+03  0.56084151264E+03  0.90092962329E+02 0.  0.
          2    1    3    3  502    0 -0.17159436649E+03  0.53726495556E+02  0.12590780933E+03  0.21950840390E+03  0.00000000000E+00 0. -1.
         -2    1    3    3    0  502 -0.28581862500E+03  0.78150933617E+02  0.81734853976E+02  0.30737670891E+03  0.00000000000E+00 0.  1.
         15    1    5    5    0    0 -0.60615531906E+02 -0.16053823743E+02  0.30396361520E+02  0.69706990236E+02  0.17770000000E+01 0.  1.
        -15    1    5    5    0    0 -0.25001832251E+02 -0.12262267298E+03  0.52363130930E+02  0.13567043434E+03  0.17770000000E+01 0. -1.
          2    1    6    6  503    0  0.49923967765E+03  0.14649374203E+02 -0.73113959588E+02  0.50477768472E+03  0.00000000000E+00 0. -1.
         -2    1    6    6    0  503  0.43790677997E+02 -0.78503066541E+01 -0.34116008076E+02  0.56063827920E+02  0.00000000000E+00 0.  1.
<mgrwt>
<rscale>  0 0.60397559E+03</rscale>
<asrwt>0</asrwt>
<pdfrwt beam="1">  1        1 0.11355971E+00 0.60397559E+03</pdfrwt>
<pdfrwt beam="2">  1       -1 0.85379375E-01 0.60397559E+03</pdfrwt>
<totfact> 0.35446964E+01</totfact>
</mgrwt>
</event>
<event>
12    1  0.8033771E-008  0.1281344E+04  0.7818608E-02  0.9044491E-01
          1   -1    0    0  501    0  0.00000000000E+00  0.00000000000E+00  0.27267943213E+04  0.27267943213E+04  0.00000000000E+00 0. -1.
         -1   -1    0    0    0  501 -0.00000000000E+00 -0.00000000000E+00 -0.67943440579E+03  0.67943440579E+03  0.00000000000E+00 0.  1.
         23    2    1    2    0    0  0.48940173529E+03 -0.11363937711E+04  0.14459804639E+04  0.19053909077E+04  0.93542224676E+02 0.  0.
    5000000    2    1    2    0    0 -0.48940173529E+03  0.11363937711E+04  0.60137945158E+03  0.15008378193E+04  0.59996004343E+03 0.  0.
         23    2    4    4    0    0 -0.54148702163E+03  0.11423017673E+04  0.53566840443E+03  0.13762342066E+04  0.94965413579E+02 0.  0.
         23    2    4    4    0    0  0.52085286333E+02 -0.59079961892E+01  0.65711047156E+02  0.12460361275E+03  0.91980090896E+02 0.  0.
          3    1    3    3  502    0  0.31118032493E+03 -0.70778521904E+03  0.83354549206E+03  0.11369218083E+04  0.00000000000E+00 0. -1.
         -3    1    3    3    0  502  0.17822141037E+03 -0.42860855204E+03  0.61243497187E+03  0.76846909942E+03  0.00000000000E+00 0.  1.
         15    1    5    5    0    0 -0.44682011998E+03  0.98168662856E+03  0.42422078469E+03  0.11590182433E+04  0.17770000000E+01 0. -1.
        -15    1    5    5    0    0 -0.94666901646E+02  0.16061513871E+03  0.11144761974E+03  0.21721596333E+03  0.17770000000E+01 0.  1.
          1    1    6    6  503    0  0.20246190349E+01  0.80691813215E+01  0.71793242788E+02  0.72273649966E+02  0.00000000000E+00 0. -1.
         -1    1    6    6    0  503  0.50060667298E+02 -0.13977177511E+02 -0.60821956321E+01  0.52329962786E+02  0.00000000000E+00 0.  1.
<mgrwt>
<rscale>  0 0.12813444E+04</rscale>
<asrwt>0</asrwt>
<pdfrwt beam="1">  1        1 0.41950681E+00 0.12813444E+04</pdfrwt>
<pdfrwt beam="2">  1       -1 0.10452837E+00 0.12813444E+04</pdfrwt>
<totfact> 0.79342494E-01</totfact>
</mgrwt>
</event>
<event>
12    1  0.8033771E-008  0.8579677E+03  0.7818608E-02  0.9479705E-01
          2   -1    0    0  501    0  0.00000000000E+00  0.00000000000E+00  0.14354730024E+04  0.14354730024E+04  0.00000000000E+00 0. -1.
         -2   -1    0    0    0  501 -0.00000000000E+00 -0.00000000000E+00 -0.12232767844E+04  0.12232767844E+04  0.00000000000E+00 0.  1.
         23    2    1    2    0    0  0.84723559953E+03  0.79696390159E+02 -0.82522870616E+03  0.11889398499E+04  0.91738069623E+02 0.  0.
    5000000    2    1    2    0    0 -0.84723559953E+03 -0.79696390159E+02  0.10374249241E+04  0.14698099369E+04  0.59994258200E+03 0.  0.
         23    2    4    4    0    0 -0.66763151950E+03 -0.42184225954E+02  0.36584244942E+03  0.76790919754E+03  0.91282436021E+02 0.  0.
         23    2    4    4    0    0 -0.17960408004E+03 -0.37512164206E+02  0.67158247470E+03  0.70190073935E+03  0.89313154431E+02 0.  0.
          1    1    3    3  502    0  0.63517909031E+03  0.99506393834E+02 -0.61942333729E+03  0.89277055840E+03  0.00000000000E+00 0. -1.
         -1    1    3    3    0  502  0.21205650922E+03 -0.19810003674E+02 -0.20580536887E+03  0.29616929146E+03  0.00000000000E+00 0.  1.
         15    1    5    5    0    0 -0.21891902269E+03  0.27802233427E+02  0.13107431073E+03  0.25667515528E+03  0.17770000000E+01 0.  1.
        -15    1    5    5    0    0 -0.44871249681E+03 -0.69986459381E+02  0.23476813869E+03  0.51123404226E+03  0.17770000000E+01 0. -1.
          3    1    6    6  503    0 -0.74114021506E+02 -0.28221443439E+02  0.14997720139E+03  0.16965405680E+03  0.00000000000E+00 0. -1.
         -3    1    6    6    0  503 -0.10549005853E+03 -0.92907207663E+01  0.52160527331E+03  0.53224668255E+03  0.00000000000E+00 0.  1.
<mgrwt>
<rscale>  0 0.85796767E+03</rscale>
<asrwt>0</asrwt>
<pdfrwt beam="1">  1        2 0.22084200E+00 0.85796767E+03</pdfrwt>
<pdfrwt beam="2">  1       -2 0.18819643E+00 0.85796767E+03</pdfrwt>
<totfact> 0.22276461E+00</totfact>
</mgrwt>
</event>
<event>
12    1  0.8033771E-008  0.8105894E+03  0.7818608E-02  0.9544815E-01
          1   -1    0    0  501    0  0.00000000000E+00  0.00000000000E+00  0.23385088073E+04  0.23385088073E+04  0.00000000000E+00 0. -1.
         -1   -1    0    0    0  501 -0.00000000000E+00 -0.00000000000E+00 -0.34329898967E+03  0.34329898967E+03  0.00000000000E+00 0.  1.
         23    2    1    2    0    0 -0.71413718316E+03 -0.31714510375E+03  0.68800511664E+03  0.10449846492E+04  0.89827296786E+02 0.  0.
    5000000    2    1    2    0    0  0.71413718316E+03  0.31714510375E+03  0.13072047010E+04  0.16368231478E+04  0.59986077863E+03 0.  0.
         23    2    4    4    0    0  0.42068637788E+03  0.46547433005E+02  0.10906743111E+04  0.11734493924E+04  0.90935866138E+02 0.  0.
         23    2    4    4    0    0  0.29345080527E+03  0.27059767074E+03  0.21653038990E+03  0.46337375535E+03  0.92159388416E+02 0.  0.
          3    1    3    3  502    0 -0.55542459736E+03 -0.24534741242E+03  0.48235458216E+03  0.77547261658E+03  0.00000000000E+00 0. -1.
         -3    1    3    3    0  502 -0.15871258579E+03 -0.71797691329E+02  0.20565053449E+03  0.26951203258E+03  0.00000000000E+00 0.  1.
         15    1    5    5    0    0  0.92217604111E+00 -0.84063381407E+01  0.35018426689E+02  0.36068890561E+02  0.17770000000E+01 0.  1.
        -15    1    5    5    0    0  0.41976420184E+03  0.54953771146E+02  0.10556558844E+04  0.11373805019E+04  0.17770000000E+01 0. -1.
          1    1    6    6  503    0  0.28845170660E+03  0.23560734493E+03  0.20954097021E+03  0.42734368630E+03  0.00000000000E+00 0. -1.
         -1    1    6    6    0  503  0.49990986701E+01  0.34990325815E+02  0.69894196865E+01  0.36030069049E+02  0.00000000000E+00 0.  1.
<mgrwt>
<rscale>  0 0.81058940E+03</rscale>
<asrwt>0</asrwt>
<pdfrwt beam="1">  1        1 0.35977058E+00 0.81058940E+03</pdfrwt>
<pdfrwt beam="2">  1       -1 0.52815230E-01 0.81058940E+03</pdfrwt>
<totfact> 0.66042115E+00</totfact>
</mgrwt>
</event>
<event>
12    1  0.8033771E-008  0.1640967E+04  0.7818608E-02  0.8795768E-01
          2   -1    0    0  501    0  0.00000000000E+00  0.00000000000E+00  0.16761823620E+04  0.16761823620E+04  0.00000000000E+00 0. -1.
         -2   -1    0    0    0  501 -0.00000000000E+00 -0.00000000000E+00 -0.24059667467E+04  0.24059667467E+04  0.00000000000E+00 0.  1.
         23    2    1    2    0    0 -0.98399054235E+03 -0.13089364407E+04 -0.14554330588E+04  0.21927858842E+04  0.92046465371E+02 0.  0.
    5000000    2    1    2    0    0  0.98399054235E+03  0.13089364407E+04  0.72564867417E+03  0.18893632245E+04  0.60131140234E+03 0.  0.
         23    2    4    4    0    0  0.66423028853E+03  0.96718720971E+03  0.22554937200E+03  0.11983088068E+04  0.91752397333E+02 0.  0.
         23    2    4    4    0    0  0.31976025382E+03  0.34174923103E+03  0.50009930217E+03  0.69105441774E+03  0.91748239272E+02 0.  0.
          3    1    3    3  502    0 -0.32923767568E+03 -0.37450509691E+03 -0.46739238258E+03  0.68345237873E+03  0.00000000000E+00 0. -1.
         -3    1    3    3    0  502 -0.65475286667E+03 -0.93443134383E+03 -0.98804067624E+03  0.15093335054E+04  0.00000000000E+00 0.  1.
         15    1    5    5    0    0  0.24450070304E+03  0.34978041061E+03  0.12699508797E+03  0.44526154059E+03  0.17770000000E+01 0.  1.
        -15    1    5    5    0    0  0.41972958549E+03  0.61740679910E+03  0.98554284023E+02  0.75304726621E+03  0.17770000000E+01 0. -1.
          4    1    6    6  503    0  0.12131148341E+02  0.22789182403E+02  0.65355908919E+02  0.70270238546E+02  0.00000000000E+00 0. -1.
         -4    1    6    6    0  503  0.30762910548E+03  0.31896004863E+03  0.43474339325E+03  0.62078417919E+03  0.00000000000E+00 0.  1.
<mgrwt>
<rscale>  0 0.16409670E+04</rscale>
<asrwt>0</asrwt>
<pdfrwt beam="1">  1        2 0.25787421E+00 0.16409670E+04</pdfrwt>
<pdfrwt beam="2">  1       -2 0.37014873E+00 0.16409670E+04</pdfrwt>
<totfact> 0.10841208E-01</totfact>
</mgrwt>
</event>
<event>
12    1  0.8033771E-008  0.1089089E+04  0.7818608E-02  0.9215892E-01
         -2   -1    0    0    0  501 -0.00000000000E+00  0.00000000000E+00  0.13864388444E+04  0.13864388444E+04  0.00000000000E+00 0.  1.
          2   -1    0    0  501    0  0.00000000000E+00 -0.00000000000E+00 -0.10473475662E+04  0.10473475662E+04  0.00000000000E+00 0. -1.
         23    2    1    2    0    0  0.85971050221E+03 -0.59574553029E+03 -0.26816529121E+03  0.10836697403E+04  0.91720217009E+02 0.  0.
    5000000    2    1    2    0    0 -0.85971050221E+03  0.59574553029E+03  0.60725656944E+03  0.13501166703E+04  0.60003299717E+03 0.  0.
         23    2    4    4    0    0 -0.56647037423E+03  0.13823703871E+03  0.52970349099E+03  0.79376918286E+03  0.97393857839E+02 0.  0.
         23    2    4    4    0    0 -0.29324012798E+03  0.45750849157E+03  0.77553078458E+02  0.55634748739E+03  0.90577338382E+02 0.  0.
          2    1    3    3  502    0  0.42030191839E+03 -0.28109895052E+03 -0.17616943185E+03  0.53544933589E+03  0.00000000000E+00 0. -1.
         -2    1    3    3    0  502  0.43940858383E+03 -0.31464657977E+03 -0.91995859353E+02  0.54822040443E+03  0.00000000000E+00 0.  1.
         15    1    5    5    0    0 -0.19327887088E+03  0.86640400694E+02  0.22705411083E+03  0.31051571286E+03  0.17770000000E+01 0. -1.
        -15    1    5    5    0    0 -0.37319150335E+03  0.51596638020E+02  0.30264938016E+03  0.48325347000E+03  0.17770000000E+01 0.  1.
          1    1    6    6  503    0 -0.18174139963E+03  0.27352141689E+03  0.91064553426E+02  0.34078828432E+03  0.00000000000E+00 0. -1.
         -1    1    6    6    0  503 -0.11149872836E+03  0.18398707468E+03 -0.13511474968E+02  0.21555920307E+03  0.00000000000E+00 0.  1.
<mgrwt>
<rscale>  0 0.10890894E+04</rscale>
<asrwt>0</asrwt>
<pdfrwt beam="1">  1        2 0.16113039E+00 0.10890894E+04</pdfrwt>
<pdfrwt beam="2">  1       -2 0.21329828E+00 0.10890894E+04</pdfrwt>
<totfact> 0.25196693E+00</totfact>
</mgrwt>
</event>
<event>
12    1  0.8033771E-008  0.7400530E+03  0.7818608E-02  0.9651086E-01
         -2   -1    0    0    0  501 -0.00000000000E+00  0.00000000000E+00  0.77595962625E+03  0.77595962625E+03  0.00000000000E+00 0.  1.
          2   -1    0    0  501    0  0.00000000000E+00 -0.00000000000E+00 -0.77380676566E+03  0.77380676566E+03  0.00000000000E+00 0. -1.
         23    2    1    2    0    0  0.58020751773E+03  0.27586130156E+03  0.13012857745E+03  0.66147566829E+03  0.88749038025E+02 0.  0.
    5000000    2    1    2    0    0 -0.58020751773E+03 -0.27586130156E+03 -0.12797571686E+03  0.88829072362E+03  0.59995200161E+03 0.  0.
         23    2    4    4    0    0 -0.43604312216E+03  0.82752521831E+02  0.43265378203E+02  0.45509584527E+03  0.90877671471E+02 0.  0.
         23    2    4    4    0    0 -0.14416439557E+03 -0.35861382339E+03 -0.17124109507E+03  0.43319487835E+03  0.94588808637E+02 0.  0.
          4    1    3    3  502    0  0.30949845245E+03  0.19496594277E+03  0.82031113631E+02  0.37487346467E+03  0.00000000000E+00 0.  1.
         -4    1    3    3    0  502  0.27070906528E+03  0.80895358789E+02  0.48097463820E+02  0.28660220363E+03  0.00000000000E+00 0. -1.
         15    1    5    5    0    0 -0.14472755704E+03  0.26653403394E+02  0.57682577166E+02  0.15807247425E+03  0.17770000000E+01 0. -1.
        -15    1    5    5    0    0 -0.29131556512E+03  0.56099118437E+02 -0.14417198962E+02  0.29702337101E+03  0.17770000000E+01 0.  1.
          4    1    6    6  503    0 -0.88548715912E+01 -0.52612066959E+02  0.74745788192E+01  0.53873069981E+02  0.00000000000E+00 0. -1.
         -4    1    6    6    0  503 -0.13530952398E+03 -0.30600175643E+03 -0.17871567388E+03  0.37932180837E+03  0.00000000000E+00 0.  1.
<mgrwt>
<rscale>  0 0.74005303E+03</rscale>
<asrwt>0</asrwt>
<pdfrwt beam="1">  1        2 0.11904719E+00 0.74005303E+03</pdfrwt>
<pdfrwt beam="2">  1       -2 0.11937840E+00 0.74005303E+03</pdfrwt>
<totfact> 0.19661542E+01</totfact>
</mgrwt>
</event>
<event>
12    1  0.8033771E-008  0.8892946E+03  0.7818608E-02  0.9439064E-01
          1   -1    0    0  501    0  0.00000000000E+00  0.00000000000E+00  0.62987331082E+03  0.62987331082E+03  0.00000000000E+00 0. -1.
         -1   -1    0    0    0  501 -0.00000000000E+00 -0.00000000000E+00 -0.14200576546E+04  0.14200576546E+04  0.00000000000E+00 0.  1.
         23    2    1    2    0    0 -0.43196388205E+03 -0.67148214872E+03 -0.46169306600E+02  0.80451961702E+03  0.87402161587E+02 0.  0.
    5000000    2    1    2    0    0  0.43196388205E+03  0.67148214872E+03 -0.74401503714E+03  0.12454113484E+04  0.60000831635E+03 0.  0.
         23    2    4    4    0    0  0.15673566839E+02 -0.81140838115E+02 -0.15964773466E+03  0.20169688504E+03  0.91458941312E+02 0.  0.
         23    2    4    4    0    0  0.41629031522E+03  0.75262298684E+03 -0.58436730248E+03  0.10437144633E+04  0.90087456843E+02 0.  0.
          3    1    3    3  502    0 -0.30084667782E+03 -0.40792181856E+03 -0.56250130565E+02  0.50997353932E+03  0.00000000000E+00 0. -1.
         -3    1    3    3    0  502 -0.13111720424E+03 -0.26356033016E+03  0.10080823965E+02  0.29454607771E+03  0.00000000000E+00 0.  1.
         15    1    5    5    0    0 -0.25017299199E+02 -0.63413943714E+02 -0.13412742425E+03  0.15046766158E+03  0.17770000000E+01 0.  1.
        -15    1    5    5    0    0  0.40690866038E+02 -0.17726894401E+02 -0.25520310412E+02  0.51229223462E+02  0.17770000000E+01 0. -1.
          1    1    6    6  503    0  0.83011873765E+02  0.86461476774E+02 -0.84729828233E+02  0.14678454259E+03  0.00000000000E+00 0. -1.
         -1    1    6    6    0  503  0.33327844145E+03  0.66616151006E+03 -0.49963747424E+03  0.89692992073E+03  0.00000000000E+00 0.  1.
<mgrwt>
<rscale>  0 0.88929459E+03</rscale>
<asrwt>0</asrwt>
<pdfrwt beam="1">  1        1 0.96903587E-01 0.88929459E+03</pdfrwt>
<pdfrwt beam="2">  1       -1 0.21847041E+00 0.88929459E+03</pdfrwt>
<totfact> 0.36633812E+00</totfact>
</mgrwt>
</event>
<event>
12    1  0.8033771E-008  0.8092475E+03  0.7818608E-02  0.9546727E-01
          2   -1    0    0  501    0  0.00000000000E+00  0.00000000000E+00  0.19283603540E+04  0.19283603540E+04  0.00000000000E+00 0. -1.
         -2   -1    0    0    0  501 -0.00000000000E+00 -0.00000000000E+00 -0.41387597226E+03  0.41387597226E+03  0.00000000000E+00 0.  1.
         23    2    1    2    0    0 -0.26582692153E+03 -0.73625068340E+03  0.80960292944E+03  0.11299343593E+04  0.92551239897E+02 0.  0.
    5000000    2    1    2    0    0  0.26582692153E+03  0.73625068340E+03  0.70488145232E+03  0.12123019670E+04  0.60007430892E+03 0.  0.
         23    2    4    4    0    0  0.23779813077E+03  0.70532268032E+03  0.32298601490E+03  0.81649231917E+03  0.91168564026E+02 0.  0.
         23    2    4    4    0    0  0.28028790757E+02  0.30928003083E+02  0.38189543742E+03  0.39580964779E+03  0.95283774440E+02 0.  0.
          4    1    3    3  502    0 -0.99002449897E+02 -0.24266360255E+03  0.33342854679E+03  0.42410105506E+03  0.00000000000E+00 0. -1.
         -4    1    3    3    0  502 -0.16682447163E+03 -0.49358708085E+03  0.47617438265E+03  0.70583330427E+03  0.00000000000E+00 0.  1.
         15    1    5    5    0    0  0.18222453517E+03  0.48663281493E+03  0.18283252384E+03  0.55086129587E+03  0.17770000000E+01 0. -1.
        -15    1    5    5    0    0  0.55573595603E+02  0.21868986539E+03  0.14015349107E+03  0.26563102330E+03  0.17770000000E+01 0.  1.
          2    1    6    6  503    0  0.13512207210E+02 -0.27108231968E+02  0.49183281451E+02  0.57761848640E+02  0.00000000000E+00 0. -1.
         -2    1    6    6    0  503  0.14516583547E+02  0.58036235051E+02  0.33271215597E+03  0.33804779914E+03  0.00000000000E+00 0.  1.
<mgrwt>
<rscale>  0 0.80924754E+03</rscale>
<asrwt>0</asrwt>
<pdfrwt beam="1">  1        2 0.29667082E+00 0.80924754E+03</pdfrwt>
<pdfrwt beam="2">  1       -2 0.63673228E-01 0.80924754E+03</pdfrwt>
<totfact> 0.17123987E+01</totfact>
</mgrwt>
</event>
<event>
12    1  0.8033771E-008  0.4290044E+03  0.7818608E-02  0.1034175E+00
         -2   -1    0    0    0  501 -0.00000000000E+00  0.00000000000E+00  0.31127558229E+03  0.31127558229E+03  0.00000000000E+00 0.  1.
          2   -1    0    0  501    0  0.00000000000E+00 -0.00000000000E+00 -0.11586409411E+04  0.11586409411E+04  0.00000000000E+00 0. -1.
         23    2    1    2    0    0  0.29690781888E+03  0.26811832703E+02  0.84384556761E+02  0.32223594869E+03  0.88555778616E+02 0.  0.
    5000000    2    1    2    0    0 -0.29690781888E+03 -0.26811832703E+02 -0.93174991553E+03  0.11476805746E+04  0.60011637959E+03 0.  0.
         23    2    4    4    0    0 -0.16602036757E+03  0.21474954068E+03 -0.17045154519E+03  0.33321099018E+03  0.91080772111E+02 0.  0.
         23    2    4    4    0    0 -0.13088745131E+03 -0.24156137338E+03 -0.76129837034E+03  0.81446958447E+03  0.91115713932E+02 0.  0.
          3    1    3    3  502    0  0.23102479538E+03  0.15154236753E+02  0.10208372952E+03  0.25302805142E+03  0.00000000000E+00 0. -1.
         -3    1    3    3    0  502  0.65883023498E+02  0.11657595950E+02 -0.17699172761E+02  0.69207897273E+02  0.00000000000E+00 0.  1.
         15    1    5    5    0    0 -0.16393530725E+02  0.85457618192E+02 -0.36614095401E+02  0.94421936369E+02  0.17770000000E+01 0. -1.
        -15    1    5    5    0    0 -0.14962683684E+03  0.12929192249E+03 -0.13383744979E+03  0.23878905381E+03  0.17770000000E+01 0.  1.
          2    1    6    6  503    0 -0.48413915033E+02 -0.84203874856E+02 -0.15718015289E+03  0.18476958671E+03  0.00000000000E+00 0. -1.
         -2    1    6    6    0  503 -0.82473536276E+02 -0.15735749853E+03 -0.60411821745E+03  0.62969999776E+03  0.00000000000E+00 0.  1.
<mgrwt>
<rscale>  0 0.42900442E+03</rscale>
<asrwt>0</asrwt>
<pdfrwt beam="1">  1        2 0.17825246E+00 0.42900442E+03</pdfrwt>
<pdfrwt beam="2">  1       -2 0.47888550E-01 0.42900442E+03</pdfrwt>
<totfact> 0.87110626E+01</totfact>
</mgrwt>
</event>
<event>
12    1  0.8033771E-008  0.5838695E+03  0.7818608E-02  0.9939449E-01
         -2   -1    0    0    0  501 -0.00000000000E+00  0.00000000000E+00  0.83398448158E+03  0.83398448158E+03  0.00000000000E+00 0. -1.
          2   -1    0    0  501    0  0.00000000000E+00 -0.00000000000E+00 -0.57981901432E+03  0.57981901432E+03  0.00000000000E+00 0.  1.
         23    2    1    2    0    0  0.38051050897E+03 -0.33302929729E+03  0.35198137426E+03  0.62299107845E+03  0.92359275159E+02 0.  0.
    5000000    2    1    2    0    0 -0.38051050897E+03  0.33302929729E+03 -0.97815907003E+02  0.79081241745E+03  0.60009963143E+03 0.  0.
         23    2    4    4    0    0 -0.45857952159E+03  0.26167763700E+03 -0.24295479068E+03  0.58930168537E+03  0.97360581034E+02 0.  0.
         23    2    4    4    0    0  0.78069012617E+02  0.71351660295E+02  0.14513888367E+03  0.20151073208E+03  0.91408147522E+02 0.  0.
          3    1    3    3  502    0  0.36738900443E+03 -0.29611736900E+03  0.30517276918E+03  0.56195248540E+03  0.00000000000E+00 0. -1.
         -3    1    3    3    0  502  0.13121504544E+02 -0.36911928286E+02  0.46808605087E+02  0.61038593050E+02  0.00000000000E+00 0.  1.
         15    1    5    5    0    0 -0.25517976516E+01  0.20978210227E+02 -0.10731258536E+02  0.23767932479E+02  0.17770000000E+01 0. -1.
        -15    1    5    5    0    0 -0.45602772394E+03  0.24069942677E+03 -0.23222353214E+03  0.56553375289E+03  0.17770000000E+01 0.  1.
          2    1    6    6  503    0  0.83383836308E+02  0.48696062032E+02  0.61005467118E+02  0.11421837695E+03  0.00000000000E+00 0. -1.
         -2    1    6    6    0  503 -0.53148236912E+01  0.22655598263E+02  0.84133416556E+02  0.87292355134E+02  0.00000000000E+00 0.  1.
<mgrwt>
<rscale>  0 0.58386949E+03</rscale>
<asrwt>0</asrwt>
<pdfrwt beam="1">  1        2 0.89202926E-01 0.58386949E+03</pdfrwt>
<pdfrwt beam="2">  1       -2 0.12830530E+00 0.58386949E+03</pdfrwt>
<totfact> 0.23890693E+01</totfact>
</mgrwt>
</event>
<event>
12    1  0.8033771E-008  0.1423211E+04  0.7818608E-02  0.8937186E-01
          1   -1    0    0  501    0  0.00000000000E+00  0.00000000000E+00  0.11978264103E+04  0.11978264103E+04  0.00000000000E+00 0. -1.
         -1   -1    0    0    0  501 -0.00000000000E+00 -0.00000000000E+00 -0.20445953147E+04  0.20445953147E+04  0.00000000000E+00 0.  1.
         23    2    1    2    0    0  0.13786391920E+04  0.30479725133E+03  0.13473750245E+03  0.14212059378E+04  0.90137322837E+02 0.  0.
    5000000    2    1    2    0    0 -0.13786391920E+04 -0.30479725133E+03 -0.98150640683E+03  0.18212157873E+04  0.59993727265E+03 0.  0.
         23    2    4    4    0    0 -0.22341382765E+03 -0.20014265888E+02 -0.45793670566E+03  0.51807606846E+03  0.91555868723E+02 0.  0.
         23    2    4    4    0    0 -0.11552253643E+04 -0.28478298544E+03 -0.52356970117E+03  0.13031397188E+04  0.91656443322E+02 0.  0.
          3    1    3    3  502    0  0.88451379796E+03  0.22977681398E+03  0.59742496357E+02  0.91582269512E+03  0.00000000000E+00 0. -1.
         -3    1    3    3    0  502  0.49412539400E+03  0.75020437344E+02  0.74995006095E+02  0.50538324265E+03  0.00000000000E+00 0.  1.
         15    1    5    5    0    0 -0.51378761445E+01 -0.21147735840E+02 -0.65120849467E+02  0.68684112186E+02  0.17770000000E+01 0. -1.
        -15    1    5    5    0    0 -0.21827595151E+03  0.11334699523E+01 -0.39281585619E+03  0.44939195627E+03  0.17770000000E+01 0.  1.
          4    1    6    6  503    0 -0.44077843373E+03 -0.67733933534E+02 -0.21733934917E+03  0.49609465437E+03  0.00000000000E+00 0. -1.
         -4    1    6    6    0  503 -0.71444693058E+03 -0.21704905190E+03 -0.30623035200E+03  0.80704506444E+03  0.00000000000E+00 0.  1.
<mgrwt>
<rscale>  0 0.14232115E+04</rscale>
<asrwt>0</asrwt>
<pdfrwt beam="1">  1        1 0.18428099E+00 0.14232115E+04</pdfrwt>
<pdfrwt beam="2">  1       -1 0.31455313E+00 0.14232115E+04</pdfrwt>
<totfact> 0.27272807E-01</totfact>
</mgrwt>
</event>
<event>
12    1  0.8033771E-008  0.6849545E+03  0.7818608E-02  0.9743314E-01
          1   -1    0    0  501    0  0.00000000000E+00  0.00000000000E+00  0.53427337143E+03  0.53427337143E+03  0.00000000000E+00 0. -1.
         -1   -1    0    0    0  501 -0.00000000000E+00 -0.00000000000E+00 -0.96235443933E+03  0.96235443933E+03  0.00000000000E+00 0.  1.
         23    2    1    2    0    0  0.44140773461E+03  0.38652957366E+03 -0.14830376405E+03  0.61207721708E+03  0.91643950993E+02 0.  0.
    5000000    2    1    2    0    0 -0.44140773461E+03 -0.38652957366E+03 -0.27977730385E+03  0.88455059368E+03  0.59992375645E+03 0.  0.
         23    2    4    4    0    0 -0.27150365880E+03  0.70872840897E+02  0.35195713872E+02  0.29703813754E+03  0.90860995807E+02 0.  0.
         23    2    4    4    0    0 -0.16990407580E+03 -0.45740241455E+03 -0.31497301772E+03  0.58751245614E+03  0.88761029800E+02 0.  0.
          3    1    3    3  502    0  0.43806096568E+03  0.36546171125E+03 -0.13290338488E+03  0.58576700296E+03  0.00000000000E+00 0. -1.
         -3    1    3    3    0  502  0.33467689296E+01  0.21067862403E+02 -0.15400379169E+02  0.26310214120E+02  0.00000000000E+00 0.  1.
         15    1    5    5    0    0 -0.22128126179E+03  0.26250198514E+02  0.38290297773E+01  0.22287280888E+03  0.17770000000E+01 0. -1.
        -15    1    5    5    0    0 -0.50222397013E+02  0.44622642383E+02  0.31366684095E+02  0.74165328659E+02  0.17770000000E+01 0.  1.
          1    1    6    6  503    0 -0.71787215892E+02 -0.20749155838E+03 -0.90211414040E+02  0.23736943861E+03  0.00000000000E+00 0. -1.
         -1    1    6    6    0  503 -0.98116859911E+02 -0.24991085617E+03 -0.22476160368E+03  0.35014301752E+03  0.00000000000E+00 0.  1.
<mgrwt>
<rscale>  0 0.68495455E+03</rscale>
<asrwt>0</asrwt>
<pdfrwt beam="1">  1        1 0.82195903E-01 0.68495455E+03</pdfrwt>
<pdfrwt beam="2">  1       -1 0.14805453E+00 0.68495455E+03</pdfrwt>
<totfact> 0.15128170E+01</totfact>
</mgrwt>
</event>
<event>
12    1  0.8033771E-008  0.8890417E+03  0.7818608E-02  0.9439384E-01
          1   -1    0    0  501    0  0.00000000000E+00  0.00000000000E+00  0.10651106091E+04  0.10651106091E+04  0.00000000000E+00 0. -1.
         -1   -1    0    0    0  501 -0.00000000000E+00 -0.00000000000E+00 -0.88345861916E+03  0.88345861916E+03  0.00000000000E+00 0.  1.
         23    2    1    2    0    0  0.21739641340E+02 -0.81826089770E+03 -0.22614294301E+03  0.85474493411E+03  0.97081218599E+02 0.  0.
    5000000    2    1    2    0    0 -0.21739641340E+02  0.81826089770E+03  0.40779493293E+03  0.10938242941E+04  0.60010946537E+03 0.  0.
         23    2    4    4    0    0  0.71347409582E+02  0.81988842487E+03  0.20213030095E+03  0.85247675960E+03  0.92479646367E+02 0.  0.
         23    2    4    4    0    0 -0.93087050922E+02 -0.16275271771E+01  0.20566463198E+03  0.24134753455E+03  0.85339578696E+02 0.  0.
          4    1    3    3  502    0  0.56607918932E+02 -0.40333037655E+03 -0.12826072968E+03  0.42700194837E+03  0.00000000000E+00 0. -1.
         -4    1    3    3    0  502 -0.34868277593E+02 -0.41493052114E+03 -0.97882213325E+02  0.42774298573E+03  0.00000000000E+00 0.  1.
         15    1    5    5    0    0  0.11813975640E+02  0.60657520899E+03  0.14732753399E+03  0.62432492677E+03  0.17770000000E+01 0. -1.
        -15    1    5    5    0    0  0.59533433942E+02  0.21331321588E+03  0.54802766959E+02  0.22815183283E+03  0.17770000000E+01 0.  1.
          1    1    6    6  503    0 -0.10918414077E+03 -0.66304057722E+01  0.18054360653E+03  0.21109507985E+03  0.00000000000E+00 0. -1.
         -1    1    6    6    0  503  0.16097089850E+02  0.50028785950E+01  0.25121025446E+02  0.30252454700E+02  0.00000000000E+00 0.  1.
<mgrwt>
<rscale>  0 0.88904169E+03</rscale>
<asrwt>0</asrwt>
<pdfrwt beam="1">  1        1 0.16386317E+00 0.88904169E+03</pdfrwt>
<pdfrwt beam="2">  1       -1 0.13591671E+00 0.88904169E+03</pdfrwt>
<totfact> 0.61976339E+00</totfact>
</mgrwt>
</event>
<event>
12    1  0.8033771E-008  0.8595075E+03  0.7818608E-02  0.9477664E-01
         -2   -1    0    0    0  501 -0.00000000000E+00  0.00000000000E+00  0.14180349111E+04  0.14180349111E+04  0.00000000000E+00 0.  1.
          2   -1    0    0  501    0  0.00000000000E+00 -0.00000000000E+00 -0.59502454966E+03  0.59502454966E+03  0.00000000000E+00 0. -1.
         23    2    1    2    0    0  0.64618487086E+03 -0.49342590546E+03  0.46552061125E+03  0.94123915702E+03  0.90541149170E+02 0.  0.
    5000000    2    1    2    0    0 -0.64618487086E+03  0.49342590546E+03  0.35748975018E+03  0.10718203037E+04  0.59997985842E+03 0.  0.
         23    2    4    4    0    0 -0.47562519803E+03  0.53932724222E+03  0.78631384210E+02  0.72912665255E+03  0.91376023550E+02 0.  0.
         23    2    4    4    0    0 -0.17055967283E+03 -0.45901336753E+02  0.27885836597E+03  0.34269365119E+03  0.92083742211E+02 0.  0.
          3    1    3    3  502    0  0.42200672362E+03 -0.36727688967E+03  0.34397308270E+03  0.65673394163E+03  0.00000000000E+00 0. -1.
         -3    1    3    3    0  502  0.22417814725E+03 -0.12614901579E+03  0.12154752855E+03  0.28450521539E+03  0.00000000000E+00 0.  1.
         15    1    5    5    0    0 -0.15101953896E+02  0.10684162485E+02 -0.12098217858E+02  0.22175322857E+02  0.17770000000E+01 0.  1.
        -15    1    5    5    0    0 -0.46052324413E+03  0.52864307973E+03  0.90729602068E+02  0.70695132969E+03  0.17770000000E+01 0. -1.
          2    1    6    6  503    0 -0.84237369612E+02 -0.46702274312E+02  0.21413260189E+03  0.23479737660E+03  0.00000000000E+00 0. -1.
         -2    1    6    6    0  503 -0.86322303221E+02  0.80093755855E+00  0.64725764079E+02  0.10789627459E+03  0.00000000000E+00 0.  1.
<mgrwt>
<rscale>  0 0.85950746E+03</rscale>
<asrwt>0</asrwt>
<pdfrwt beam="1">  1        2 0.91542239E-01 0.85950746E+03</pdfrwt>
<pdfrwt beam="2">  1       -2 0.21815922E+00 0.85950746E+03</pdfrwt>
<totfact> 0.51377441E+00</totfact>
</mgrwt>
</event>
<event>
12    1  0.8382879E-008  0.1760388E+04  0.7818608E-02  0.8727653E-01
          2   -1    0    0  501    0  0.00000000000E+00  0.00000000000E+00  0.17547954746E+04  0.17547954746E+04  0.00000000000E+00 0. -1.
         -2   -1    0    0    0  501 -0.00000000000E+00 -0.00000000000E+00 -0.19330486801E+04  0.19330486801E+04  0.00000000000E+00 0.  1.
         23    2    1    2    0    0  0.17038880070E+04 -0.41184493272E+03  0.28418588503E+03  0.17781886933E+04  0.91339053191E+02 0.  0.
    5000000    2    1    2    0    0 -0.17038880070E+04  0.41184493272E+03 -0.46243909060E+03  0.19096554614E+04  0.60006956244E+03 0.  0.
         23    2    4    4    0    0 -0.14449298183E+04  0.26726727858E+03 -0.57420452323E+03  0.15800799575E+04  0.87680439310E+02 0.  0.
         23    2    4    4    0    0 -0.25895818869E+03  0.14457765414E+03  0.11176543263E+03  0.32957550394E+03  0.90368464107E+02 0.  0.
          2    1    3    3  502    0  0.91458695056E+03 -0.25508018030E+03  0.18548912520E+03  0.96744064629E+03  0.00000000000E+00 0. -1.
         -2    1    3    3    0  502  0.78930105644E+03 -0.15676475242E+03  0.98696759829E+02  0.81074804699E+03  0.00000000000E+00 0.  1.
         15    1    5    5    0    0 -0.86739964413E+03  0.17660999098E+03 -0.30289354668E+03  0.93558585384E+03  0.17770000000E+01 0. -1.
        -15    1    5    5    0    0 -0.57753017418E+03  0.90657287600E+02 -0.27131097655E+03  0.64449410362E+03  0.17770000000E+01 0.  1.
          2    1    6    6  503    0 -0.15639797828E+03  0.93049085555E+02  0.20892983206E+02  0.18318017546E+03  0.00000000000E+00 0. -1.
         -2    1    6    6    0  503 -0.10256021040E+03  0.51528568583E+02  0.90872449422E+02  0.14639532848E+03  0.00000000000E+00 0.  1.
<mgrwt>
<rscale>  0 0.17603878E+04</rscale>
<asrwt>0</asrwt>
<pdfrwt beam="1">  1        2 0.26996854E+00 0.17603878E+04</pdfrwt>
<pdfrwt beam="2">  1       -2 0.29739210E+00 0.17603878E+04</pdfrwt>
<totfact> 0.27548500E-01</totfact>
</mgrwt>
</event>
<event>
12    1  0.8033771E-008  0.7267082E+03  0.7818608E-02  0.9672617E-01
         -1   -1    0    0    0  501 -0.00000000000E+00  0.00000000000E+00  0.38682655074E+03  0.38682655074E+03  0.00000000000E+00 0.  1.
          1   -1    0    0  501    0  0.00000000000E+00 -0.00000000000E+00 -0.35241388644E+04  0.35241388644E+04  0.00000000000E+00 0. -1.
         23    2    1    2    0    0  0.13450283244E+03  0.64682313222E+03 -0.29150920800E+04  0.29903909774E+04  0.90582482687E+02 0.  0.
    5000000    2    1    2    0    0 -0.13450283244E+03 -0.64682313222E+03 -0.22222023365E+03  0.92057443779E+03  0.60133541969E+03 0.  0.
         23    2    4    4    0    0  0.13875045006E+03 -0.96501988196E+02 -0.22952249580E+03  0.29897480835E+03  0.90227705467E+02 0.  0.
         23    2    4    4    0    0 -0.27325328250E+03 -0.55032114402E+03  0.73022621469E+01  0.62159962944E+03  0.93872564342E+02 0.  0.
          3    1    3    3  502    0  0.11673355828E+03  0.60906610186E+03 -0.28030001543E+04  0.28707835351E+04  0.00000000000E+00 0. -1.
         -3    1    3    3    0  502  0.17769274164E+02  0.37757030356E+02 -0.11209192568E+03  0.11960744228E+03  0.00000000000E+00 0.  1.
         15    1    5    5    0    0  0.52690767943E+02 -0.17378131012E+02 -0.19936518814E+02  0.58982531103E+02  0.17770000000E+01 0. -1.
        -15    1    5    5    0    0  0.86059682119E+02 -0.79123857184E+02 -0.20958597698E+03  0.23999227725E+03  0.17770000000E+01 0.  1.
          4    1    6    6  503    0 -0.13566884960E+03 -0.35628130534E+03  0.31321823559E+02  0.38252249858E+03  0.00000000000E+00 0. -1.
         -4    1    6    6    0  503 -0.13758443290E+03 -0.19403983868E+03 -0.24019561412E+02  0.23907713086E+03  0.00000000000E+00 0.  1.
<mgrwt>
<rscale>  0 0.72670824E+03</rscale>
<asrwt>0</asrwt>
<pdfrwt beam="1">  1        1 0.54217522E+00 0.72670824E+03</pdfrwt>
<pdfrwt beam="2">  1       -1 0.59511776E-01 0.72670824E+03</pdfrwt>
<totfact> 0.75304487E-01</totfact>
</mgrwt>
</event>
<event>
12    1  0.8033771E-008  0.7219782E+03  0.7818608E-02  0.9680368E-01
         -2   -1    0    0    0  501 -0.00000000000E+00  0.00000000000E+00  0.26678023309E+03  0.26678023309E+03  0.00000000000E+00 0.  1.
          2   -1    0    0  501    0  0.00000000000E+00 -0.00000000000E+00 -0.22195922121E+04  0.22195922121E+04  0.00000000000E+00 0. -1.
         23    2    1    2    0    0 -0.58534551338E+03 -0.12024638339E+03 -0.42299243113E+03  0.73783600691E+03  0.91601383964E+02 0.  0.
    5000000    2    1    2    0    0  0.58534551338E+03  0.12024638339E+03 -0.15298195479E+04  0.17485364383E+04  0.59995271828E+03 0.  0.
         23    2    4    4    0    0  0.31893634773E+03  0.35148918895E+03 -0.84157692466E+03  0.97046552827E+03  0.91030640905E+02 0.  0.
         23    2    4    4    0    0  0.26640916565E+03 -0.23124280557E+03 -0.68824262323E+03  0.77807091002E+03  0.85260506230E+02 0.  0.
          3    1    3    3  502    0 -0.27523233346E+03 -0.10256013881E+03 -0.19582555420E+03  0.35301425910E+03  0.00000000000E+00 0. -1.
         -3    1    3    3    0  502 -0.31011317992E+03 -0.17686244580E+02 -0.22716687693E+03  0.38482174780E+03  0.00000000000E+00 0.  1.
         15    1    5    5    0    0  0.18943282335E+03  0.15538784167E+03 -0.37332634070E+03  0.44654886663E+03  0.17770000000E+01 0. -1.
        -15    1    5    5    0    0  0.12950352439E+03  0.19610134728E+03 -0.46825058396E+03  0.52391666164E+03  0.17770000000E+01 0.  1.
          3    1    6    6  503    0  0.13827381639E+03 -0.16522026607E+03 -0.46270957855E+03  0.51040918752E+03  0.00000000000E+00 0. -1.
         -3    1    6    6    0  503  0.12813534926E+03 -0.66022539497E+02 -0.22553304468E+03  0.26766172251E+03  0.00000000000E+00 0.  1.
<mgrwt>
<rscale>  0 0.72197816E+03</rscale>
<asrwt>0</asrwt>
<pdfrwt beam="1">  1        2 0.34147573E+00 0.72197816E+03</pdfrwt>
<pdfrwt beam="2">  1       -2 0.41043113E-01 0.72197816E+03</pdfrwt>
<totfact> 0.29472575E+01</totfact>
</mgrwt>
</event>
<event>
12    1  0.8033771E-008  0.8236050E+03  0.7818608E-02  0.9526465E-01
         -2   -1    0    0    0  501 -0.00000000000E+00  0.00000000000E+00  0.22706602919E+03  0.22706602919E+03  0.00000000000E+00 0.  1.
          2   -1    0    0  501    0  0.00000000000E+00 -0.00000000000E+00 -0.39073997572E+04  0.39073997572E+04  0.00000000000E+00 0. -1.
         23    2    1    2    0    0 -0.66825072330E+03 -0.44576118906E+03 -0.10895757297E+04  0.13564801479E+04  0.87184023888E+02 0.  0.
    5000000    2    1    2    0    0  0.66825072330E+03  0.44576118906E+03 -0.25907579983E+04  0.27779856385E+04  0.59992927505E+03 0.  0.
         23    2    4    4    0    0  0.43785183742E+03  0.40192537032E+03 -0.23616398328E+04  0.24372371952E+04  0.97592065579E+02 0.  0.
         23    2    4    4    0    0  0.23039888588E+03  0.43835818739E+02 -0.22911816554E+03  0.34074844327E+03  0.92785463260E+02 0.  0.
          2    1    3    3  502    0 -0.38515276679E+03 -0.27451238716E+03 -0.70782810750E+03  0.85130507707E+03  0.00000000000E+00 0. -1.
         -2    1    3    3    0  502 -0.28309795651E+03 -0.17124880191E+03 -0.38174762219E+03  0.50517507082E+03  0.00000000000E+00 0.  1.
         15    1    5    5    0    0  0.11300898743E+03  0.11148158098E+03 -0.47115622578E+03  0.49718258312E+03  0.17770000000E+01 0. -1.
        -15    1    5    5    0    0  0.32484284999E+03  0.29044378935E+03 -0.18904836070E+04  0.19400546121E+04  0.17770000000E+01 0.  1.
          4    1    6    6  503    0  0.15528709221E+03  0.68621231143E+02 -0.18102449970E+03  0.24817901576E+03  0.00000000000E+00 0. -1.
         -4    1    6    6    0  503  0.75111793671E+02 -0.24785412403E+02 -0.48093665839E+02  0.92569427514E+02  0.00000000000E+00 0.  1.
<mgrwt>
<rscale>  0 0.82360501E+03</rscale>
<asrwt>0</asrwt>
<pdfrwt beam="1">  1        2 0.60113836E+00 0.82360501E+03</pdfrwt>
<pdfrwt beam="2">  1       -2 0.34933239E-01 0.82360501E+03</pdfrwt>
<totfact> 0.33843193E+00</totfact>
</mgrwt>
</event>
<event>
12    1  0.8033771E-008  0.9414648E+03  0.7818608E-02  0.9375183E-01
          2   -1    0    0  501    0  0.00000000000E+00  0.00000000000E+00  0.43177400120E+04  0.43177400120E+04  0.00000000000E+00 0. -1.
         -2   -1    0    0    0  501 -0.00000000000E+00 -0.00000000000E+00 -0.28349759266E+03  0.28349759266E+03  0.00000000000E+00 0.  1.
         23    2    1    2    0    0 -0.11198211046E+02  0.85785971400E+03  0.71339991598E+03  0.11192851487E+04  0.88380513736E+02 0.  0.
    5000000    2    1    2    0    0  0.11198211046E+02 -0.85785971400E+03  0.33208425034E+04  0.34819524559E+04  0.59995773550E+03 0.  0.
         23    2    4    4    0    0  0.18793171929E+03 -0.80918024865E+03  0.28053536668E+04  0.29272270836E+04  0.92510523643E+02 0.  0.
         23    2    4    4    0    0 -0.17673350825E+03 -0.48679465351E+02  0.51548883653E+03  0.55472537234E+03  0.91580974256E+02 0.  0.
          4    1    3    3  502    0  0.12254200316E+00  0.79560020310E+03  0.68526436242E+03  0.10500318779E+04  0.00000000000E+00 0.  1.
         -4    1    3    3    0  502 -0.11320753049E+02  0.62259510905E+02  0.28135553560E+02  0.69253270838E+02  0.00000000000E+00 0. -1.
         15    1    5    5    0    0  0.88472962671E+02 -0.26605229051E+03  0.10714038300E+04  0.11074839100E+04  0.17770000000E+01 0. -1.
        -15    1    5    5    0    0  0.99458756621E+02 -0.54312795814E+03  0.17339498369E+04  0.18197431736E+04  0.17770000000E+01 0.  1.
          3    1    6    6  503    0 -0.29075260903E+02 -0.31471550962E+02  0.21789447343E+03  0.22206717647E+03  0.00000000000E+00 0.  1.
         -3    1    6    6    0  503 -0.14765824734E+03 -0.17207914389E+02  0.29759436310E+03  0.33265819586E+03  0.00000000000E+00 0. -1.
<mgrwt>
<rscale>  0 0.94146484E+03</rscale>
<asrwt>0</asrwt>
<pdfrwt beam="1">  1        2 0.66426764E+00 0.94146484E+03</pdfrwt>
<pdfrwt beam="2">  1       -2 0.43615018E-01 0.94146484E+03</pdfrwt>
<totfact> 0.98448623E-01</totfact>
</mgrwt>
</event>
<event>
12    1  0.8033771E-008  0.7119221E+03  0.7818608E-02  0.9697058E-01
         -1   -1    0    0    0  501 -0.00000000000E+00  0.00000000000E+00  0.10723442065E+04  0.10723442065E+04  0.00000000000E+00 0.  1.
          1   -1    0    0  501    0  0.00000000000E+00 -0.00000000000E+00 -0.65273891360E+03  0.65273891360E+03  0.00000000000E+00 0. -1.
         23    2    1    2    0    0  0.17926507144E+03  0.67694959929E+03  0.38036902950E+03  0.80201442749E+03  0.90276339531E+02 0.  0.
    5000000    2    1    2    0    0 -0.17926507144E+03 -0.67694959929E+03  0.39236263386E+02  0.92306869260E+03  0.60009965929E+03 0.  0.
         23    2    4    4    0    0 -0.54411030910E+02 -0.23570403624E+03 -0.26116802179E+03  0.36739949479E+03  0.90866386400E+02 0.  0.
         23    2    4    4    0    0 -0.12485404053E+03 -0.44124556304E+03  0.30040428517E+03  0.55566919782E+03  0.90770835132E+02 0.  0.
          2    1    3    3  502    0  0.53147310777E+02  0.34707323961E+03  0.21822206046E+03  0.41340698829E+03  0.00000000000E+00 0.  1.
         -2    1    3    3    0  502  0.12611776067E+03  0.32987635968E+03  0.16214696904E+03  0.38860743920E+03  0.00000000000E+00 0. -1.
         15    1    5    5    0    0 -0.77462004065E+02 -0.18779901578E+03 -0.18691627845E+03  0.27606101731E+03  0.17770000000E+01 0.  1.
        -15    1    5    5    0    0  0.23050973155E+02 -0.47905020464E+02 -0.74251743341E+02  0.91338477473E+02  0.17770000000E+01 0. -1.
          1    1    6    6  503    0 -0.21547251889E+02 -0.19486866718E+03  0.16451666230E+03  0.25593712839E+03  0.00000000000E+00 0. -1.
         -1    1    6    6    0  503 -0.10330678864E+03 -0.24637689586E+03  0.13588762287E+03  0.29973206943E+03  0.00000000000E+00 0.  1.
<mgrwt>
<rscale>  0 0.71192212E+03</rscale>
<asrwt>0</asrwt>
<pdfrwt beam="1">  1        1 0.10042137E+00 0.71192212E+03</pdfrwt>
<pdfrwt beam="2">  1       -1 0.16497603E+00 0.71192212E+03</pdfrwt>
<totfact> 0.84165881E+00</totfact>
</mgrwt>
</event>
<event>
12    1  0.8033771E-008  0.2276710E+04  0.7818608E-02  0.8487161E-01
         -2   -1    0    0    0  501 -0.00000000000E+00  0.00000000000E+00  0.23713346101E+04  0.23713346101E+04  0.00000000000E+00 0.  1.
          2   -1    0    0  501    0  0.00000000000E+00 -0.00000000000E+00 -0.23168317676E+04  0.23168317676E+04  0.00000000000E+00 0. -1.
         23    2    1    2    0    0  0.20462907697E+04 -0.96272368972E+03  0.47097317732E+03  0.23117338555E+04  0.90304306111E+02 0.  0.
    5000000    2    1    2    0    0 -0.20462907697E+04  0.96272368972E+03 -0.41647033484E+03  0.23764325222E+04  0.59986763195E+03 0.  0.
         23    2    4    4    0    0 -0.13465800803E+04  0.46529257333E+03 -0.49215328487E+03  0.15098144559E+04  0.86889262863E+02 0.  0.
         23    2    4    4    0    0 -0.69971068940E+03  0.49743111639E+03  0.75682950029E+02  0.86661806629E+03  0.90918642114E+02 0.  0.
          1    1    3    3  502    0  0.80030421813E+03 -0.32807929198E+03  0.18202723706E+03  0.88388731092E+03  0.00000000000E+00 0. -1.
         -1    1    3    3    0  502  0.12459865516E+04 -0.63464439774E+03  0.28894594026E+03  0.14278465445E+04  0.00000000000E+00 0.  1.
         15    1    5    5    0    0 -0.82928849489E+03  0.33060501440E+03 -0.30193439325E+03  0.94243653307E+03  0.17770000000E+01 0. -1.
        -15    1    5    5    0    0 -0.51729158543E+03  0.13468755892E+03 -0.19021889162E+03  0.56737792286E+03  0.17770000000E+01 0.  1.
          4    1    6    6  503    0 -0.18578847832E+03  0.86893189374E+02  0.29730232013E+02  0.20724785097E+03  0.00000000000E+00 0. -1.
         -4    1    6    6    0  503 -0.51392221108E+03  0.41053792702E+03  0.45952718015E+02  0.65937021532E+03  0.00000000000E+00 0.  1.
<mgrwt>
<rscale>  0 0.22767097E+04</rscale>
<asrwt>0</asrwt>
<pdfrwt beam="1">  1        2 0.35643565E+00 0.22767097E+04</pdfrwt>
<pdfrwt beam="2">  1       -2 0.36482071E+00 0.22767097E+04</pdfrwt>
<totfact> 0.47872996E-02</totfact>
</mgrwt>
</event>
<event>
12    1  0.8033771E-008  0.5600658E+03  0.7818608E-02  0.9991906E-01
         -1   -1    0    0    0  501 -0.00000000000E+00  0.00000000000E+00  0.38445126214E+03  0.38445126214E+03  0.00000000000E+00 0.  1.
          1   -1    0    0  501    0  0.00000000000E+00 -0.00000000000E+00 -0.12451303020E+04  0.12451303020E+04  0.00000000000E+00 0. -1.
         23    2    1    2    0    0  0.21846348870E+03 -0.50728592296E+03 -0.25771229737E+03  0.61539050620E+03  0.84997313906E+02 0.  0.
    5000000    2    1    2    0    0 -0.21846348870E+03  0.50728592296E+03 -0.60296674253E+03  0.10141910580E+04  0.59995775347E+03 0.  0.
         23    2    4    4    0    0 -0.11814792348E+03  0.27705066440E+03 -0.66792912225E+03  0.73868590631E+03  0.93869874613E+02 0.  0.
         23    2    4    4    0    0 -0.10031556522E+03  0.23023525856E+03  0.64962379721E+02  0.27550515166E+03  0.92798119082E+02 0.  0.
          4    1    3    3  502    0  0.13852133152E+03 -0.29463234391E+03 -0.19583488988E+03  0.37993115357E+03  0.00000000000E+00 0.  1.
         -4    1    3    3    0  502  0.79942157184E+02 -0.21265357906E+03 -0.61877407487E+02  0.23545935262E+03  0.00000000000E+00 0. -1.
         15    1    5    5    0    0 -0.75850242374E+01  0.77046081495E+02 -0.25781490096E+03  0.26919381893E+03  0.17770000000E+01 0.  1.
        -15    1    5    5    0    0 -0.11056289925E+03  0.20000458291E+03 -0.41011422129E+03  0.46949208738E+03  0.17770000000E+01 0. -1.
          4    1    6    6  503    0 -0.88233884795E+02  0.11214409652E+03  0.64992003387E+02  0.15679756795E+03  0.00000000000E+00 0.  1.
         -4    1    6    6    0  503 -0.12081680423E+02  0.11809116204E+03 -0.29623666770E-01  0.11870758372E+03  0.00000000000E+00 0. -1.
<mgrwt>
<rscale>  0 0.56006576E+03</rscale>
<asrwt>0</asrwt>
<pdfrwt beam="1">  1        1 0.19155851E+00 0.56006576E+03</pdfrwt>
<pdfrwt beam="2">  1       -1 0.59146348E-01 0.56006576E+03</pdfrwt>
<totfact> 0.30319631E+01</totfact>
</mgrwt>
</event>
<event>
12    1  0.9523843E-008  0.1500846E+04  0.7818608E-02  0.8883891E-01
         -2   -1    0    0    0  501 -0.00000000000E+00  0.00000000000E+00  0.11366759482E+04  0.11366759482E+04  0.00000000000E+00 0. -1.
          2   -1    0    0  501    0  0.00000000000E+00 -0.00000000000E+00 -0.20041259905E+04  0.20041259905E+04  0.00000000000E+00 0.  1.
         23    2    1    2    0    0  0.11550161969E+04 -0.86229552579E+03 -0.26984811067E+03  0.14690871577E+04  0.88221795168E+02 0.  0.
    5000000    2    1    2    0    0 -0.11550161969E+04  0.86229552579E+03 -0.59760193166E+03  0.16717147809E+04  0.59990520179E+03 0.  0.
         23    2    4    4    0    0 -0.47459082733E+03  0.34107986701E+02 -0.21210762809E+03  0.52901584726E+03  0.92023435147E+02 0.  0.
         23    2    4    4    0    0 -0.68042536958E+03  0.82818753909E+03 -0.38549430356E+03  0.11426989337E+04  0.91003909004E+02 0.  0.
          1    1    3    3  502    0  0.50532601663E+03 -0.36035346621E+03 -0.73987210990E+02  0.62504648714E+03  0.00000000000E+00 0. -1.
         -1    1    3    3    0  502  0.64969018029E+03 -0.50194205958E+03 -0.19586089968E+03  0.84404067056E+03  0.00000000000E+00 0.  1.
         15    1    5    5    0    0 -0.13868262213E+03 -0.31148682507E+02 -0.53964690750E+02  0.15204754414E+03  0.17770000000E+01 0.  1.
        -15    1    5    5    0    0 -0.33590820520E+03  0.65256669207E+02 -0.15814293734E+03  0.37696830312E+03  0.17770000000E+01 0. -1.
          2    1    6    6  503    0 -0.53525199974E+03  0.58877455193E+03 -0.28779768013E+03  0.84615464362E+03  0.00000000000E+00 0.  1.
         -2    1    6    6    0  503 -0.14517336984E+03  0.23941298716E+03 -0.97696623436E+02  0.29654429005E+03  0.00000000000E+00 0. -1.
<mgrwt>
<rscale>  0 0.15008457E+04</rscale>
<asrwt>0</asrwt>
<pdfrwt beam="1">  1        2 0.30832708E+00 0.15008457E+04</pdfrwt>
<pdfrwt beam="2">  1       -2 0.17487322E+00 0.15008457E+04</pdfrwt>
<totfact> 0.12318983E+00</totfact>
</mgrwt>
</event>
<event>
12    1  0.8033771E-008  0.1413705E+04  0.7818608E-02  0.8943957E-01
         -2   -1    0    0    0  501 -0.00000000000E+00  0.00000000000E+00  0.70670315356E+03  0.70670315356E+03  0.00000000000E+00 0. -1.
          2   -1    0    0  501    0  0.00000000000E+00 -0.00000000000E+00 -0.28652493285E+04  0.28652493285E+04  0.00000000000E+00 0.  1.
         23    2    1    2    0    0 -0.78933163149E+03  0.11051341205E+04 -0.10151018907E+04  0.16979693310E+04  0.91116143735E+02 0.  0.
    5000000    2    1    2    0    0  0.78933163149E+03 -0.11051341205E+04 -0.11434442843E+04  0.18739831511E+04  0.59998514191E+03 0.  0.
         23    2    4    4    0    0  0.26244747900E+03 -0.83317166086E+03 -0.76759929113E+03  0.11662653719E+04  0.88952517482E+02 0.  0.
         23    2    4    4    0    0  0.52688415250E+03 -0.27196245967E+03 -0.37584499319E+03  0.70771777918E+03  0.89635408373E+02 0.  0.
          1    1    3    3  502    0 -0.12797205612E+03  0.22243561247E+03 -0.22384264028E+03  0.34052896565E+03  0.00000000000E+00 0. -1.
         -1    1    3    3    0  502 -0.66135957537E+03  0.88269850807E+03 -0.79125925038E+03  0.13574403653E+04  0.00000000000E+00 0.  1.
         15    1    5    5    0    0  0.14763411779E+03 -0.54175858626E+03 -0.44340383935E+03  0.71547768729E+03  0.17770000000E+01 0.  1.
        -15    1    5    5    0    0  0.11481336121E+03 -0.29141307460E+03 -0.32419545178E+03  0.45078768466E+03  0.17770000000E+01 0. -1.
          1    1    6    6  503    0  0.23954822525E+03 -0.13096348989E+03 -0.12116984000E+03  0.29869201199E+03  0.00000000000E+00 0. -1.
         -1    1    6    6    0  503  0.28733592725E+03 -0.14099896978E+03 -0.25467515318E+03  0.40902576718E+03  0.00000000000E+00 0.  1.
<mgrwt>
<rscale>  0 0.14137051E+04</rscale>
<asrwt>0</asrwt>
<pdfrwt beam="1">  1        2 0.44080759E+00 0.14137051E+04</pdfrwt>
<pdfrwt beam="2">  1       -2 0.10872356E+00 0.14137051E+04</pdfrwt>
<totfact> 0.13727935E+00</totfact>
</mgrwt>
</event>
<event>
12    1  0.8033771E-008  0.6252188E+03  0.7818608E-02  0.9854424E-01
          2   -1    0    0  501    0  0.00000000000E+00  0.00000000000E+00  0.82665368615E+03  0.82665368615E+03  0.00000000000E+00 0. -1.
         -2   -1    0    0    0  501 -0.00000000000E+00 -0.00000000000E+00 -0.63538685979E+03  0.63538685979E+03  0.00000000000E+00 0.  1.
         23    2    1    2    0    0 -0.48519637328E+03 -0.33916737094E+03  0.15470147351E+03  0.61861226676E+03  0.91096457278E+02 0.  0.
    5000000    2    1    2    0    0  0.48519637328E+03  0.33916737094E+03  0.36565352854E+02  0.84342827917E+03  0.59965340900E+03 0.  0.
         23    2    4    4    0    0  0.25832240756E+03  0.33807454618E+03  0.26311792074E+03  0.50991771838E+03  0.98793594303E+02 0.  0.
         23    2    4    4    0    0  0.22687396571E+03  0.10928247646E+01 -0.22655256789E+03  0.33351056079E+03  0.91816325122E+02 0.  0.
          4    1    3    3  502    0 -0.40592877116E+03 -0.26359532967E+03  0.92837015287E+02  0.49282793801E+03  0.00000000000E+00 0. -1.
         -4    1    3    3    0  502 -0.79267602122E+02 -0.75572041273E+02  0.61864458224E+02  0.12578432875E+03  0.00000000000E+00 0.  1.
         15    1    5    5    0    0  0.13965579525E+03  0.15499967861E+03  0.74604030606E+02  0.22157969362E+03  0.17770000000E+01 0.  1.
        -15    1    5    5    0    0  0.11866661231E+03  0.18307486757E+03  0.18851389014E+03  0.28833802475E+03  0.17770000000E+01 0. -1.
          2    1    6    6  503    0  0.71910262754E+02 -0.17525824138E+02 -0.13112184733E+03  0.15056951633E+03  0.00000000000E+00 0. -1.
         -2    1    6    6    0  503  0.15496370296E+03  0.18618648903E+02 -0.95430720557E+02  0.18294104446E+03  0.00000000000E+00 0.  1.
<mgrwt>
<rscale>  0 0.62521877E+03</rscale>
<asrwt>0</asrwt>
<pdfrwt beam="1">  1        2 0.12717749E+00 0.62521877E+03</pdfrwt>
<pdfrwt beam="2">  1       -2 0.97751824E-01 0.62521877E+03</pdfrwt>
<totfact> 0.29507891E+01</totfact>
</mgrwt>
</event>
<event>
12    1  0.1358574E-007  0.8930797E+03  0.7818608E-02  0.9434274E-01
         -2   -1    0    0    0  501 -0.00000000000E+00  0.00000000000E+00  0.10791291032E+04  0.10791291032E+04  0.00000000000E+00 0.  1.
          2   -1    0    0  501    0  0.00000000000E+00 -0.00000000000E+00 -0.84841914385E+03  0.84841914385E+03  0.00000000000E+00 0. -1.
         23    2    1    2    0    0  0.10884246972E+03 -0.80325752136E+03 -0.18553184985E+03  0.83653256420E+03  0.91078728712E+02 0.  0.
    5000000    2    1    2    0    0 -0.10884246972E+03  0.80325752136E+03  0.41624180918E+03  0.10910156828E+04  0.59999053961E+03 0.  0.
         23    2    4    4    0    0 -0.30410186517E+03  0.66234022391E+03  0.39273770278E+03  0.83286295290E+03  0.90803516000E+02 0.  0.
         23    2    4    4    0    0  0.19525939545E+03  0.14091729745E+03  0.23504106402E+02  0.25815272992E+03  0.90035952364E+02 0.  0.
          1    1    3    3  502    0 -0.94454460295E+01 -0.23786452637E+03 -0.56268693052E+02  0.24461176417E+03  0.00000000000E+00 0. -1.
         -1    1    3    3    0  502  0.11828791575E+03 -0.56539299499E+03 -0.12926315680E+03  0.59192080003E+03  0.00000000000E+00 0.  1.
         15    1    5    5    0    0 -0.17053254374E+03  0.35899983193E+03  0.16298225421E+03  0.42956792329E+03  0.17770000000E+01 0. -1.
        -15    1    5    5    0    0 -0.13356932142E+03  0.30334039199E+03  0.22975544857E+03  0.40329502961E+03  0.17770000000E+01 0.  1.
          1    1    6    6  503    0  0.16428575107E+03  0.12683451536E+03  0.51781305377E+02  0.21391144401E+03  0.00000000000E+00 0. -1.
         -1    1    6    6    0  503  0.30973644380E+02  0.14082782086E+02 -0.28277198975E+02  0.44241285914E+02  0.00000000000E+00 0.  1.
<mgrwt>
<rscale>  0 0.89307974E+03</rscale>
<asrwt>0</asrwt>
<pdfrwt beam="1">  1        2 0.13052602E+00 0.89307974E+03</pdfrwt>
<pdfrwt beam="2">  1       -2 0.16601986E+00 0.89307974E+03</pdfrwt>
<totfact> 0.72561815E+00</totfact>
</mgrwt>
</event>
<event>
12    1  0.8033771E-008  0.1113693E+04  0.7818608E-02  0.9191948E-01
          2   -1    0    0  501    0  0.00000000000E+00  0.00000000000E+00  0.29480837788E+04  0.29480837788E+04  0.00000000000E+00 0. -1.
         -2   -1    0    0    0  501 -0.00000000000E+00 -0.00000000000E+00 -0.46154555375E+03  0.46154555375E+03  0.00000000000E+00 0.  1.
         23    2    1    2    0    0  0.76964046593E+03 -0.69960954650E+03  0.16262989904E+04  0.19324948377E+04  0.88814003174E+02 0.  0.
    5000000    2    1    2    0    0 -0.76964046593E+03  0.69960954650E+03  0.86023923466E+03  0.14771344949E+04  0.60009566800E+03 0.  0.
         23    2    4    4    0    0 -0.22142748886E+03  0.57481474301E+03  0.36140475028E+03  0.72010002478E+03  0.92133221787E+02 0.  0.
         23    2    4    4    0    0 -0.54821297707E+03  0.12479480350E+03  0.49883448438E+03  0.75703447010E+03  0.90300248634E+02 0.  0.
          4    1    3    3  502    0  0.36866278927E+03 -0.27975241373E+03  0.75176984931E+03  0.88279758241E+03  0.00000000000E+00 0.  1.
         -4    1    3    3    0  502  0.40097767666E+03 -0.41985713277E+03  0.87452914110E+03  0.10496972553E+04  0.00000000000E+00 0. -1.
         15    1    5    5    0    0 -0.17234783005E+03  0.37654684440E+03  0.20064712913E+03  0.46016706609E+03  0.17770000000E+01 0. -1.
        -15    1    5    5    0    0 -0.49079658801E+02  0.19826789861E+03  0.16075762116E+03  0.25993295869E+03  0.17770000000E+01 0.  1.
          1    1    6    6  503    0 -0.11709994494E+03  0.53243413132E+02  0.15193282981E+03  0.19907496810E+03  0.00000000000E+00 0.  1.
         -1    1    6    6    0  503 -0.43111303213E+03  0.71551390364E+02  0.34690165456E+03  0.55795950200E+03  0.00000000000E+00 0. -1.
<mgrwt>
<rscale>  0 0.11136929E+04</rscale>
<asrwt>0</asrwt>
<pdfrwt beam="1">  1        2 0.45355134E+00 0.11136929E+04</pdfrwt>
<pdfrwt beam="2">  1       -2 0.71007010E-01 0.11136929E+04</pdfrwt>
<totfact> 0.33963789E+00</totfact>
</mgrwt>
</event>
<event>
12    1  0.8033771E-008  0.1405935E+04  0.7818608E-02  0.8949534E-01
          2   -1    0    0  501    0  0.00000000000E+00  0.00000000000E+00  0.11522707293E+04  0.11522707293E+04  0.00000000000E+00 0. -1.
         -2   -1    0    0    0  501 -0.00000000000E+00 -0.00000000000E+00 -0.17297218441E+04  0.17297218441E+04  0.00000000000E+00 0.  1.
         23    2    1    2    0    0 -0.63050459346E+03  0.11878199430E+04 -0.20729668379E+03  0.13637826482E+04  0.92081144208E+02 0.  0.
    5000000    2    1    2    0    0  0.63050459346E+03 -0.11878199430E+04 -0.37015443101E+03  0.15182099251E+04  0.59957886438E+03 0.  0.
         23    2    4    4    0    0  0.56653917080E+03 -0.46804960791E+03 -0.23746978507E+03  0.77780265805E+03  0.92455440756E+02 0.  0.
         23    2    4    4    0    0  0.63965422654E+02 -0.71977033510E+03 -0.13268464593E+03  0.74040726709E+03  0.91852029396E+02 0.  0.
          1    1    3    3  502    0 -0.19482478270E+03  0.42552978321E+03 -0.37542920048E+02  0.46951226096E+03  0.00000000000E+00 0. -1.
         -1    1    3    3    0  502 -0.43567981076E+03  0.76229015980E+03 -0.16975376374E+03  0.89427038726E+03  0.00000000000E+00 0.  1.
         15    1    5    5    0    0  0.10217741218E+03 -0.12735172481E+03 -0.32596340094E+02  0.16650634969E+03  0.17770000000E+01 0.  1.
        -15    1    5    5    0    0  0.46436175863E+03 -0.34069788310E+03 -0.20487344498E+03  0.61129630835E+03  0.17770000000E+01 0. -1.
          3    1    6    6  503    0  0.48652260934E+02 -0.17498963863E+03 -0.55861595017E+02  0.19002350886E+03  0.00000000000E+00 0. -1.
         -3    1    6    6    0  503  0.15313161720E+02 -0.54478069647E+03 -0.76823050917E+02  0.55038375823E+03  0.00000000000E+00 0.  1.
<mgrwt>
<rscale>  0 0.14059350E+04</rscale>
<asrwt>0</asrwt>
<pdfrwt beam="1">  1        2 0.17727242E+00 0.14059350E+04</pdfrwt>
<pdfrwt beam="2">  1       -2 0.26611105E+00 0.14059350E+04</pdfrwt>
<totfact> 0.98756434E-01</totfact>
</mgrwt>
</event>
<event>
12    1  0.8033771E-008  0.1008926E+04  0.7818608E-02  0.9298809E-01
         -2   -1    0    0    0  501 -0.00000000000E+00  0.00000000000E+00  0.24055053501E+04  0.24055053501E+04  0.00000000000E+00 0.  1.
          2   -1    0    0  501    0  0.00000000000E+00 -0.00000000000E+00 -0.48318844079E+03  0.48318844079E+03  0.00000000000E+00 0. -1.
         23    2    1    2    0    0 -0.23702850012E+03 -0.96273035617E+03  0.94856387406E+03  0.13750994565E+04  0.89960232946E+02 0.  0.
    5000000    2    1    2    0    0  0.23702850012E+03  0.96273035617E+03  0.97375303520E+03  0.15135943343E+04  0.59978378340E+03 0.  0.
         23    2    4    4    0    0  0.10392845917E+03  0.10308765058E+03  0.47806509567E+03  0.50820066346E+03  0.91068602276E+02 0.  0.
         23    2    4    4    0    0  0.13310004095E+03  0.85964270559E+03  0.49568793953E+03  0.10053936709E+04  0.91698952345E+02 0.  0.
          3    1    3    3  502    0 -0.96867612249E+02 -0.39802731604E+03  0.33141150030E+03  0.52691807821E+03  0.00000000000E+00 0. -1.
         -3    1    3    3    0  502 -0.14016088787E+03 -0.56470304013E+03  0.61715237376E+03  0.84818137828E+03  0.00000000000E+00 0.  1.
         15    1    5    5    0    0  0.65599717493E+02  0.91135206658E+02  0.21980767289E+03  0.24683500485E+03  0.17770000000E+01 0. -1.
        -15    1    5    5    0    0  0.38328741675E+02  0.11952443919E+02  0.25825742278E+03  0.26136565861E+03  0.17770000000E+01 0.  1.
          3    1    6    6  503    0  0.71898964428E+02  0.22310305584E+03  0.15256207335E+03  0.27967770887E+03  0.00000000000E+00 0. -1.
         -3    1    6    6    0  503  0.61201076523E+02  0.63653964976E+03  0.34312586618E+03  0.72571596201E+03  0.00000000000E+00 0.  1.
<mgrwt>
<rscale>  0 0.10089259E+04</rscale>
<asrwt>0</asrwt>
<pdfrwt beam="1">  1        2 0.74336684E-01 0.10089259E+04</pdfrwt>
<pdfrwt beam="2">  1       -2 0.37007774E+00 0.10089259E+04</pdfrwt>
<totfact> 0.75511725E-01</totfact>
</mgrwt>
</event>
<event>
12    1  0.8033771E-008  0.1173970E+04  0.7818608E-02  0.9135951E-01
          2   -1    0    0  501    0  0.00000000000E+00  0.00000000000E+00  0.26128935074E+04  0.26128935074E+04  0.00000000000E+00 0.  1.
         -2   -1    0    0    0  501 -0.00000000000E+00 -0.00000000000E+00 -0.60886953142E+03  0.60886953142E+03  0.00000000000E+00 0. -1.
         23    2    1    2    0    0  0.91110783923E+03  0.72546153919E+03  0.12466554132E+04  0.17084742737E+04  0.91228752370E+02 0.  0.
    5000000    2    1    2    0    0 -0.91110783923E+03 -0.72546153919E+03  0.75736856287E+03  0.15132887651E+04  0.60001983896E+03 0.  0.
         23    2    4    4    0    0 -0.16715108569E+03 -0.57057529196E+02 -0.73495444362E+02  0.20984937920E+03  0.86256214400E+02 0.  0.
         23    2    4    4    0    0 -0.74395675354E+03 -0.66840401000E+03  0.83086400723E+03  0.13034393859E+04  0.91562342773E+02 0.  0.
          4    1    3    3  502    0  0.34323147169E+03  0.32930543521E+03  0.52146680247E+03  0.70581693016E+03  0.00000000000E+00 0. -1.
         -4    1    3    3    0  502  0.56787636754E+03  0.39615610398E+03  0.72518861069E+03  0.10026573436E+04  0.00000000000E+00 0.  1.
         15    1    5    5    0    0 -0.49666026727E+02 -0.18579346925E+02 -0.67783001921E+02  0.86079030091E+02  0.17770000000E+01 0. -1.
        -15    1    5    5    0    0 -0.11748505896E+03 -0.38478182271E+02 -0.57124424415E+01  0.12377034911E+03  0.17770000000E+01 0.  1.
          1    1    6    6  503    0 -0.29308287703E+03 -0.31545798832E+03  0.38718444159E+03  0.57907089981E+03  0.00000000000E+00 0. -1.
         -1    1    6    6    0  503 -0.45087387651E+03 -0.35294602167E+03  0.44367956564E+03  0.72436848613E+03  0.00000000000E+00 0.  1.
<mgrwt>
<rscale>  0 0.11739700E+04</rscale>
<asrwt>0</asrwt>
<pdfrwt beam="1">  1        2 0.40198361E+00 0.11739700E+04</pdfrwt>
<pdfrwt beam="2">  1       -2 0.93672237E-01 0.11739700E+04</pdfrwt>
<totfact> 0.28478615E+00</totfact>
</mgrwt>
</event>
<event>
12    1  0.8033771E-008  0.1654406E+04  0.7818608E-02  0.8787804E-01
         -2   -1    0    0    0  501 -0.00000000000E+00  0.00000000000E+00  0.20332579885E+04  0.20332579885E+04  0.00000000000E+00 0.  1.
          2   -1    0    0  501    0  0.00000000000E+00 -0.00000000000E+00 -0.17568195669E+04  0.17568195669E+04  0.00000000000E+00 0. -1.
         23    2    1    2    0    0 -0.16236999301E+04  0.13975014855E+03 -0.72409766437E+03  0.17858719049E+04  0.95338691267E+02 0.  0.
    5000000    2    1    2    0    0  0.16236999301E+04 -0.13975014855E+03  0.10005360859E+04  0.20042056505E+04  0.59986353708E+03 0.  0.
         23    2    4    4    0    0  0.11286630395E+04  0.87719519299E+02  0.88729671009E+03  0.14412027041E+04  0.90525199703E+02 0.  0.
         23    2    4    4    0    0  0.49503689064E+03 -0.22746966785E+03  0.11323937585E+03  0.56300294641E+03  0.85704075355E+02 0.  0.
          3    1    3    3  502    0 -0.50708192877E+03  0.72374259013E+02 -0.19077053092E+03  0.54659263745E+03  0.00000000000E+00 0. -1.
         -3    1    3    3    0  502 -0.11166180014E+04  0.67375889537E+02 -0.53332713345E+03  0.12392792674E+04  0.00000000000E+00 0.  1.
         15    1    5    5    0    0  0.29227536056E+03  0.42097781713E+02  0.18826299328E+03  0.35020454307E+03  0.17770000000E+01 0.  1.
        -15    1    5    5    0    0  0.83638767892E+03  0.45621737586E+02  0.69903371681E+03  0.10909981610E+04  0.17770000000E+01 0. -1.
          1    1    6    6  503    0  0.28003892254E+03 -0.13703139126E+03  0.10718754255E+03  0.32967949528E+03  0.00000000000E+00 0. -1.
         -1    1    6    6    0  503  0.21499796810E+03 -0.90438276585E+02  0.60518332935E+01  0.23332345113E+03  0.00000000000E+00 0.  1.
<mgrwt>
<rscale>  0 0.16544063E+04</rscale>
<asrwt>0</asrwt>
<pdfrwt beam="1">  1        2 0.27027993E+00 0.16544063E+04</pdfrwt>
<pdfrwt beam="2">  1       -2 0.31280892E+00 0.16544063E+04</pdfrwt>
<totfact> 0.22329892E-01</totfact>
</mgrwt>
</event>
<event>
12    1  0.8033771E-008  0.1175081E+04  0.7818608E-02  0.9134952E-01
          1   -1    0    0  501    0  0.00000000000E+00  0.00000000000E+00  0.24007651217E+04  0.24007651217E+04  0.00000000000E+00 0. -1.
         -1   -1    0    0    0  501 -0.00000000000E+00 -0.00000000000E+00 -0.61664861698E+03  0.61664861698E+03  0.00000000000E+00 0.  1.
         23    2    1    2    0    0  0.87848655351E+03  0.70047219800E+03  0.59438541733E+03  0.12745187742E+04  0.93296069974E+02 0.  0.
    5000000    2    1    2    0    0 -0.87848655351E+03 -0.70047219800E+03  0.11897310874E+04  0.17428949645E+04  0.59985237513E+03 0.  0.
         23    2    4    4    0    0 -0.19441637408E+03 -0.43665965028E+03  0.71761155443E+03  0.86623574330E+03  0.83238472021E+02 0.  0.
         23    2    4    4    0    0 -0.68407017942E+03 -0.26381254772E+03  0.47211953298E+03  0.87665922117E+03  0.89919218885E+02 0.  0.
          4    1    3    3  502    0  0.22953993583E+03  0.13252493329E+03  0.14128733529E+03  0.30035570779E+03  0.00000000000E+00 0. -1.
         -4    1    3    3    0  502  0.64894661768E+03  0.56794726471E+03  0.45309808203E+03  0.97416306644E+03  0.00000000000E+00 0.  1.
         15    1    5    5    0    0 -0.26884266205E+02 -0.15087790175E+03  0.24804633823E+03  0.29157683146E+03  0.17770000000E+01 0.  1.
        -15    1    5    5    0    0 -0.16753210788E+03 -0.28578174853E+03  0.46956521620E+03  0.57465891184E+03  0.17770000000E+01 0. -1.
          3    1    6    6  503    0 -0.53707310455E+03 -0.24388938649E+03  0.38965521850E+03  0.70693757983E+03  0.00000000000E+00 0. -1.
         -3    1    6    6    0  503 -0.14699707488E+03 -0.19923161226E+02  0.82464314483E+02  0.16972164134E+03  0.00000000000E+00 0.  1.
<mgrwt>
<rscale>  0 0.11750808E+04</rscale>
<asrwt>0</asrwt>
<pdfrwt beam="1">  1        1 0.36934848E+00 0.11750808E+04</pdfrwt>
<pdfrwt beam="2">  1       -1 0.94869019E-01 0.11750808E+04</pdfrwt>
<totfact> 0.16920596E+00</totfact>
</mgrwt>
</event>
<event>
12    1  0.8033771E-008  0.7746173E+03  0.7818608E-02  0.9597502E-01
         -2   -1    0    0    0  501 -0.00000000000E+00  0.00000000000E+00  0.75526302409E+03  0.75526302409E+03  0.00000000000E+00 0.  1.
          2   -1    0    0  501    0  0.00000000000E+00 -0.00000000000E+00 -0.13935347706E+04  0.13935347706E+04  0.00000000000E+00 0. -1.
         23    2    1    2    0    0 -0.16756398568E+03  0.74258423513E+03 -0.86243910508E+03  0.11540467747E+04  0.92269782382E+02 0.  0.
    5000000    2    1    2    0    0  0.16756398568E+03 -0.74258423513E+03  0.22416735860E+03  0.99475101993E+03  0.59980792878E+03 0.  0.
         23    2    4    4    0    0 -0.23539726181E+02 -0.26745416000E+03  0.35769823106E+03  0.45613978576E+03  0.89608220867E+02 0.  0.
         23    2    4    4    0    0  0.19110371186E+03 -0.47513007513E+03 -0.13353087246E+03  0.53861123417E+03  0.10001175275E+03 0.  0.
          4    1    3    3  502    0 -0.73230820153E+02  0.51903889429E+03 -0.59265745925E+03  0.79120603563E+03  0.00000000000E+00 0. -1.
         -4    1    3    3    0  502 -0.94333165522E+02  0.22354534083E+03 -0.26978164583E+03  0.36284073910E+03  0.00000000000E+00 0.  1.
         15    1    5    5    0    0 -0.22612543627E+02 -0.14831273979E+03  0.26745774235E+03  0.30666724244E+03  0.17770000000E+01 0. -1.
        -15    1    5    5    0    0 -0.92718255369E+00 -0.11914142021E+03  0.90240488706E+02  0.14947254332E+03  0.17770000000E+01 0.  1.
          3    1    6    6  503    0  0.13515602294E+03 -0.29246325171E+03 -0.13031970476E+03  0.34754155088E+03  0.00000000000E+00 0. -1.
         -3    1    6    6    0  503  0.55947688915E+02 -0.18266682342E+03 -0.32111677033E+01  0.19106968328E+03  0.00000000000E+00 0.  1.
<mgrwt>
<rscale>  0 0.77461734E+03</rscale>
<asrwt>0</asrwt>
<pdfrwt beam="1">  1        2 0.21438996E+00 0.77461734E+03</pdfrwt>
<pdfrwt beam="2">  1       -2 0.11619431E+00 0.77461734E+03</pdfrwt>
<totfact> 0.85556313E+00</totfact>
</mgrwt>
</event>
<event>
12    1  0.8033771E-008  0.6626193E+03  0.7818608E-02  0.9783384E-01
         -2   -1    0    0    0  501 -0.00000000000E+00  0.00000000000E+00  0.32337797585E+03  0.32337797585E+03  0.00000000000E+00 0. -1.
          2   -1    0    0  501    0  0.00000000000E+00 -0.00000000000E+00 -0.22737123584E+04  0.22737123584E+04  0.00000000000E+00 0.  1.
         23    2    1    2    0    0 -0.39173758919E+03  0.48896685942E+03 -0.14808654922E+04  0.16106441281E+04  0.93085837219E+02 0.  0.
    5000000    2    1    2    0    0  0.39173758919E+03 -0.48896685942E+03 -0.46946889033E+03  0.98644620610E+03  0.60010678229E+03 0.  0.
         23    2    4    4    0    0  0.10663093854E+02 -0.17776305981E+03 -0.44346003170E+03  0.48533829973E+03  0.84752925996E+02 0.  0.
         23    2    4    4    0    0  0.38107449533E+03 -0.31120379960E+03 -0.26008858634E+02  0.50110790637E+03  0.91471838393E+02 0.  0.
          1    1    3    3  502    0 -0.24206365387E+03  0.24459527123E+03 -0.73314374611E+03  0.80988975280E+03  0.00000000000E+00 0. -1.
         -1    1    3    3    0  502 -0.14967393531E+03  0.24437158818E+03 -0.74772174607E+03  0.80075437531E+03  0.00000000000E+00 0.  1.
         15    1    5    5    0    0 -0.79158272212E+00  0.93922790509E+01 -0.25410368197E+02  0.27160376468E+02  0.17770000000E+01 0. -1.
        -15    1    5    5    0    0  0.11454676576E+02 -0.18715533886E+03 -0.41804966350E+03  0.45817792326E+03  0.17770000000E+01 0.  1.
          4    1    6    6  503    0  0.92818000381E+02 -0.38023744213E+02  0.16678367204E+02  0.10168163183E+03  0.00000000000E+00 0. -1.
         -4    1    6    6    0  503  0.28825649495E+03 -0.27318005539E+03 -0.42687225838E+02  0.39942627454E+03  0.00000000000E+00 0.  1.
<mgrwt>
<rscale>  0 0.66261935E+03</rscale>
<asrwt>0</asrwt>
<pdfrwt beam="1">  1        2 0.34980190E+00 0.66261935E+03</pdfrwt>
<pdfrwt beam="2">  1       -2 0.49750458E-01 0.66261935E+03</pdfrwt>
<totfact> 0.18924138E+01</totfact>
</mgrwt>
</event>
<event>
12    1  0.8033771E-008  0.9079972E+03  0.7818608E-02  0.9415639E-01
         -2   -1    0    0    0  501 -0.00000000000E+00  0.00000000000E+00  0.12281555029E+04  0.12281555029E+04  0.00000000000E+00 0.  1.
          2   -1    0    0  501    0  0.00000000000E+00 -0.00000000000E+00 -0.81864072327E+03  0.81864072327E+03  0.00000000000E+00 0. -1.
         23    2    1    2    0    0 -0.80273940099E+03 -0.35529304492E+03  0.43367478458E+03  0.98324234365E+03  0.89822012406E+02 0.  0.
    5000000    2    1    2    0    0  0.80273940099E+03  0.35529304492E+03 -0.24160004986E+02  0.10635538825E+04  0.59994954908E+03 0.  0.
         23    2    4    4    0    0  0.29989503384E+02  0.64711216634E+02  0.17471268615E+03  0.20934967413E+03  0.90641334302E+02 0.  0.
         23    2    4    4    0    0  0.77274989760E+03  0.29058182828E+03 -0.19887269114E+03  0.85420420835E+03  0.92381162107E+02 0.  0.
          3    1    3    3  502    0 -0.10708168668E+03 -0.27306861417E+02  0.29353802728E+02  0.11434071032E+03  0.00000000000E+00 0. -1.
         -3    1    3    3    0  502 -0.69565771431E+03 -0.32798618350E+03  0.40432098185E+03  0.86890163333E+03  0.00000000000E+00 0.  1.
         15    1    5    5    0    0 -0.17994238367E+02 -0.10794801600E+02  0.61742502127E+02  0.65235072268E+02  0.17770000000E+01 0. -1.
        -15    1    5    5    0    0  0.47983741750E+02  0.75506018234E+02  0.11297018403E+03  0.14411460186E+03  0.17770000000E+01 0.  1.
          1    1    6    6  503    0  0.64290721295E+03  0.23328216412E+03 -0.19897995708E+03  0.71228033518E+03  0.00000000000E+00 0. -1.
         -1    1    6    6    0  503  0.12984268465E+03  0.57299664161E+02  0.10726594322E+00  0.14192387317E+03  0.00000000000E+00 0.  1.
<mgrwt>
<rscale>  0 0.90799720E+03</rscale>
<asrwt>0</asrwt>
<pdfrwt beam="1">  1        2 0.12594473E+00 0.90799720E+03</pdfrwt>
<pdfrwt beam="2">  1       -2 0.18894700E+00 0.90799720E+03</pdfrwt>
<totfact> 0.52703708E+00</totfact>
</mgrwt>
</event>
<event>
12    1  0.8033771E-008  0.8257657E+03  0.7818608E-02  0.9523453E-01
          2   -1    0    0  501    0  0.00000000000E+00  0.00000000000E+00  0.36753452038E+04  0.36753452038E+04  0.00000000000E+00 0. -1.
         -2   -1    0    0    0  501 -0.00000000000E+00 -0.00000000000E+00 -0.22201865922E+03  0.22201865922E+03  0.00000000000E+00 0.  1.
         23    2    1    2    0    0  0.11650595477E+03  0.77802712703E+03  0.18620322020E+04  0.20234956234E+04  0.92036779264E+02 0.  0.
    5000000    2    1    2    0    0 -0.11650595477E+03 -0.77802712703E+03  0.15912943426E+04  0.18738682396E+04  0.60022049851E+03 0.  0.
         23    2    4    4    0    0  0.60946934761E+02 -0.56085721022E+03  0.55546040572E+03  0.79685506683E+03  0.90368114376E+02 0.  0.
         23    2    4    4    0    0 -0.17745288953E+03 -0.21716991681E+03  0.10358339368E+04  0.10770131728E+04  0.91395453121E+02 0.  0.
          1    1    3    3  502    0  0.36093335630E+02  0.38420834108E+03  0.10165701487E+04  0.10873516659E+04  0.00000000000E+00 0. -1.
         -1    1    3    3    0  502  0.80412619136E+02  0.39381878595E+03  0.84546205330E+03  0.93614395744E+03  0.00000000000E+00 0.  1.
         15    1    5    5    0    0  0.68361198018E+02 -0.29653732217E+03  0.25915268442E+03  0.39971353293E+03  0.17770000000E+01 0. -1.
        -15    1    5    5    0    0 -0.74142632564E+01 -0.26431988805E+03  0.29630772130E+03  0.39714153390E+03  0.17770000000E+01 0.  1.
          2    1    6    6  503    0 -0.11644143507E+03 -0.70592409702E+02  0.47059108216E+03  0.48989576720E+03  0.00000000000E+00 0. -1.
         -2    1    6    6    0  503 -0.61011454455E+02 -0.14657750711E+03  0.56524285467E+03  0.58711740557E+03  0.00000000000E+00 0.  1.
<mgrwt>
<rscale>  0 0.82576573E+03</rscale>
<asrwt>0</asrwt>
<pdfrwt beam="1">  1        2 0.56543768E+00 0.82576573E+03</pdfrwt>
<pdfrwt beam="2">  1       -2 0.34156719E-01 0.82576573E+03</pdfrwt>
<totfact> 0.52456234E+00</totfact>
</mgrwt>
</event>
<event>
12    1  0.8033771E-008  0.7221721E+03  0.7818608E-02  0.9680049E-01
         -2   -1    0    0    0  501 -0.00000000000E+00  0.00000000000E+00  0.12893250212E+04  0.12893250212E+04  0.00000000000E+00 0.  1.
          2   -1    0    0  501    0  0.00000000000E+00 -0.00000000000E+00 -0.67491826259E+03  0.67491826259E+03  0.00000000000E+00 0. -1.
         23    2    1    2    0    0  0.56246309361E+02 -0.61357970008E+03 -0.31508187398E+03  0.69792286134E+03  0.90421443314E+02 0.  0.
    5000000    2    1    2    0    0 -0.56246309361E+02  0.61357970008E+03  0.92948863254E+03  0.12663204224E+04  0.59997883170E+03 0.  0.
         23    2    4    4    0    0 -0.89146456071E+02 -0.74762170433E+02  0.75794265724E+02  0.16561241578E+03  0.90256461182E+02 0.  0.
         23    2    4    4    0    0  0.32900146710E+02  0.68834187051E+03  0.85369436682E+03  0.11007080066E+04  0.88696637738E+02 0.  0.
          3    1    3    3  502    0  0.68897722888E+02 -0.26596890237E+03 -0.14698334050E+03  0.31159341397E+03  0.00000000000E+00 0. -1.
         -3    1    3    3    0  502 -0.12651413526E+02 -0.34761079771E+03 -0.16809853348E+03  0.38632944737E+03  0.00000000000E+00 0.  1.
         15    1    5    5    0    0 -0.97805177729E+00 -0.36401584960E+02  0.56942204651E+02  0.67613640431E+02  0.17770000000E+01 0.  1.
        -15    1    5    5    0    0 -0.88168404294E+02 -0.38360585473E+02  0.18852061073E+02  0.97998775346E+02  0.17770000000E+01 0. -1.
          3    1    6    6  503    0  0.54986214901E+01  0.10452791271E+03  0.83699653310E+02  0.13402220464E+03  0.00000000000E+00 0. -1.
         -3    1    6    6    0  503  0.27401525220E+02  0.58381395780E+03  0.76999471351E+03  0.96668580198E+03  0.00000000000E+00 0.  1.
<mgrwt>
<rscale>  0 0.72217214E+03</rscale>
<asrwt>0</asrwt>
<pdfrwt beam="1">  1        2 0.10383358E+00 0.72217214E+03</pdfrwt>
<pdfrwt beam="2">  1       -2 0.19835769E+00 0.72217214E+03</pdfrwt>
<totfact> 0.59907968E+00</totfact>
</mgrwt>
</event>
<event>
12    1  0.8033771E-008  0.3972484E+03  0.7818608E-02  0.1044737E+00
          2   -1    0    0  501    0  0.00000000000E+00  0.00000000000E+00  0.66754450885E+03  0.66754450885E+03  0.00000000000E+00 0. -1.
         -2   -1    0    0    0  501 -0.00000000000E+00 -0.00000000000E+00 -0.37372027315E+03  0.37372027315E+03  0.00000000000E+00 0.  1.
         23    2    1    2    0    0 -0.13709714416E+03  0.17953265490E+03 -0.13340424518E+03  0.27080052856E+03  0.67146351528E+02 0.  0.
    5000000    2    1    2    0    0  0.13709714416E+03 -0.17953265490E+03  0.42722848088E+03  0.77046425344E+03  0.60005282255E+03 0.  0.
         23    2    4    4    0    0  0.29815187933E+02  0.16721639602E+03 -0.11536757671E+02  0.19215914766E+03  0.89116624272E+02 0.  0.
         23    2    4    4    0    0  0.10728195622E+03 -0.34674905092E+03  0.43876523855E+03  0.57830510579E+03  0.10088378649E+03 0.  0.
          4    1    3    3  502    0 -0.43287886889E+02  0.17135291005E+02 -0.14595808273E+02  0.48790336833E+02  0.00000000000E+00 0. -1.
         -4    1    3    3    0  502 -0.93809257266E+02  0.16239736390E+03 -0.11880843690E+03  0.22201019172E+03  0.00000000000E+00 0.  1.
         15    1    5    5    0    0 -0.26579067093E+02  0.30042512131E+02 -0.17306138436E+02  0.43722528509E+02  0.17770000000E+01 0. -1.
        -15    1    5    5    0    0  0.56394255025E+02  0.13717388389E+03  0.57693807649E+01  0.14843661915E+03  0.17770000000E+01 0.  1.
          2    1    6    6  503    0  0.10500885952E+03 -0.20662634593E+03  0.22741182425E+03  0.32471132598E+03  0.00000000000E+00 0. -1.
         -2    1    6    6    0  503  0.22730967001E+01 -0.14012270499E+03  0.21135341429E+03  0.25359377981E+03  0.00000000000E+00 0.  1.
<mgrwt>
<rscale>  0 0.39724835E+03</rscale>
<asrwt>0</asrwt>
<pdfrwt beam="1">  1        2 0.10269916E+00 0.39724835E+03</pdfrwt>
<pdfrwt beam="2">  1       -2 0.57495426E-01 0.39724835E+03</pdfrwt>
<totfact> 0.12792903E+02</totfact>
</mgrwt>
</event>
<event>
12    1  0.8033771E-008  0.9125467E+03  0.7818608E-02  0.9410032E-01
         -1   -1    0    0    0  501 -0.00000000000E+00  0.00000000000E+00  0.12330484192E+04  0.12330484192E+04  0.00000000000E+00 0.  1.
          1   -1    0    0  501    0  0.00000000000E+00 -0.00000000000E+00 -0.13022865653E+04  0.13022865653E+04  0.00000000000E+00 0. -1.
         23    2    1    2    0    0 -0.85132358969E+03 -0.89411794335E+02 -0.86542315379E+03  0.12213009502E+04  0.99360215989E+02 0.  0.
    5000000    2    1    2    0    0  0.85132358969E+03  0.89411794335E+02  0.79618500774E+03  0.13140340343E+04  0.60002379405E+03 0.  0.
         23    2    4    4    0    0  0.24719983759E+03  0.23014553524E+03  0.74874646993E+02  0.35830725336E+03  0.93290663821E+02 0.  0.
         23    2    4    4    0    0  0.60412375210E+03 -0.14073374090E+03  0.72131036075E+03  0.95572678094E+03  0.91397754932E+02 0.  0.
          1    1    3    3  502    0 -0.39553186367E+03 -0.13254702152E+02 -0.34176528629E+03  0.52290023257E+03  0.00000000000E+00 0. -1.
         -1    1    3    3    0  502 -0.45579172602E+03 -0.76157092184E+02 -0.52365786749E+03  0.69840071763E+03  0.00000000000E+00 0.  1.
         15    1    5    5    0    0  0.66630246637E+02  0.28113450565E+02 -0.12884939394E+02  0.73478808250E+02  0.17770000000E+01 0.  1.
        -15    1    5    5    0    0  0.18056959095E+03  0.20203208467E+03  0.87759586387E+02  0.28482844511E+03  0.17770000000E+01 0. -1.
          3    1    6    6  503    0  0.15629938078E+03 -0.66087783304E+01  0.22369168988E+03  0.27296729567E+03  0.00000000000E+00 0. -1.
         -3    1    6    6    0  503  0.44782437132E+03 -0.13412496257E+03  0.49761867087E+03  0.68275948527E+03  0.00000000000E+00 0.  1.
<mgrwt>
<rscale>  0 0.91254675E+03</rscale>
<asrwt>0</asrwt>
<pdfrwt beam="1">  1        1 0.20035178E+00 0.91254675E+03</pdfrwt>
<pdfrwt beam="2">  1       -1 0.18969976E+00 0.91254675E+03</pdfrwt>
<totfact> 0.16292239E+00</totfact>
</mgrwt>
</event>
<event>
12    1  0.8033771E-008  0.7219430E+03  0.7818608E-02  0.9680426E-01
         -2   -1    0    0    0  501 -0.00000000000E+00  0.00000000000E+00  0.53687146072E+03  0.53687146072E+03  0.00000000000E+00 0.  1.
          2   -1    0    0  501    0  0.00000000000E+00 -0.00000000000E+00 -0.11985721564E+04  0.11985721564E+04  0.00000000000E+00 0. -1.
         23    2    1    2    0    0  0.52472429317E+03 -0.28010372075E+03 -0.65619260374E+03  0.89051494894E+03  0.92921810465E+02 0.  0.
    5000000    2    1    2    0    0 -0.52472429317E+03  0.28010372075E+03 -0.55080919486E+01  0.84492866818E+03  0.60006702711E+03 0.  0.
         23    2    4    4    0    0 -0.46746157791E+03  0.44068227958E+03  0.24905136241E+02  0.64967513984E+03  0.93468300279E+02 0.  0.
         23    2    4    4    0    0 -0.57262715258E+02 -0.16057855882E+03 -0.30413228189E+02  0.19525352835E+03  0.90191373040E+02 0.  0.
          4    1    3    3  502    0  0.20303341424E+03 -0.16045086244E+03 -0.28543088226E+03  0.38527631007E+03  0.00000000000E+00 0.  1.
         -4    1    3    3    0  502  0.32169087893E+03 -0.11965285831E+03 -0.37076172149E+03  0.50523863887E+03  0.00000000000E+00 0. -1.
         15    1    5    5    0    0 -0.29370319653E+03  0.21389161814E+03  0.69702239700E+01  0.36340464185E+03  0.17770000000E+01 0. -1.
        -15    1    5    5    0    0 -0.17375838138E+03  0.22679066143E+03  0.17934912271E+02  0.28627049799E+03  0.17770000000E+01 0.  1.
          3    1    6    6  503    0 -0.64535026797E+02 -0.49018751477E+02 -0.10999508362E+02  0.81783842317E+02  0.00000000000E+00 0. -1.
         -3    1    6    6    0  503  0.72723115386E+01 -0.11155980734E+03 -0.19413719827E+02  0.11346968603E+03  0.00000000000E+00 0.  1.
<mgrwt>
<rscale>  0 0.72194296E+03</rscale>
<asrwt>0</asrwt>
<pdfrwt beam="1">  1        2 0.18439572E+00 0.72194296E+03</pdfrwt>
<pdfrwt beam="2">  1       -2 0.82595610E-01 0.72194296E+03</pdfrwt>
<totfact> 0.24944645E+01</totfact>
</mgrwt>
</event>
<event>
12    1  0.8033771E-008  0.6274136E+03  0.7818608E-02  0.9850109E-01
         -2   -1    0    0    0  501 -0.00000000000E+00  0.00000000000E+00  0.76496580771E+03  0.76496580771E+03  0.00000000000E+00 0.  1.
          2   -1    0    0  501    0  0.00000000000E+00 -0.00000000000E+00 -0.99380080090E+03  0.99380080090E+03  0.00000000000E+00 0. -1.
         23    2    1    2    0    0 -0.43081749359E+03  0.24349367303E+03  0.48815024090E+03  0.70093742303E+03  0.90165024988E+02 0.  0.
    5000000    2    1    2    0    0  0.43081749359E+03 -0.24349367303E+03 -0.71698523408E+03  0.10578291856E+04  0.60003489763E+03 0.  0.
         23    2    4    4    0    0  0.51559876301E+03 -0.27897244382E+02 -0.53388232707E+03  0.74852675318E+03  0.92960316272E+02 0.  0.
         23    2    4    4    0    0 -0.84781269425E+02 -0.21559642865E+03 -0.18310290701E+03  0.30930243240E+03  0.92041493032E+02 0.  0.
          3    1    3    3  502    0 -0.32069920360E+03  0.14332512060E+03  0.30742562761E+03  0.46679822825E+03  0.00000000000E+00 0. -1.
         -3    1    3    3    0  502 -0.11011828999E+03  0.10016855242E+03  0.18072461329E+03  0.23413919478E+03  0.00000000000E+00 0.  1.
         15    1    5    5    0    0  0.29126186024E+03 -0.44414227988E+02 -0.25061349148E+03  0.38680275945E+03  0.17770000000E+01 0. -1.
        -15    1    5    5    0    0  0.22433690278E+03  0.16516983606E+02 -0.28326883558E+03  0.36172399373E+03  0.17770000000E+01 0.  1.
          2    1    6    6  503    0 -0.66184009558E+02 -0.20055215339E+03 -0.19034372118E+03  0.28431007992E+03  0.00000000000E+00 0. -1.
         -2    1    6    6    0  503 -0.18597259868E+02 -0.15044275252E+02  0.72408141672E+01  0.24992352475E+02  0.00000000000E+00 0.  1.
<mgrwt>
<rscale>  0 0.62741359E+03</rscale>
<asrwt>0</asrwt>
<pdfrwt beam="1">  1        2 0.15289243E+00 0.62741359E+03</pdfrwt>
<pdfrwt beam="2">  1       -2 0.11768705E+00 0.62741359E+03</pdfrwt>
<totfact> 0.14619346E+01</totfact>
</mgrwt>
</event>
<event>
12    1  0.8033771E-008  0.5802149E+03  0.7818608E-02  0.9947326E-01
         -1   -1    0    0    0  501 -0.00000000000E+00  0.00000000000E+00  0.51526878467E+03  0.51526878467E+03  0.00000000000E+00 0.  1.
          1   -1    0    0  501    0  0.00000000000E+00 -0.00000000000E+00 -0.42313442394E+04  0.42313442394E+04  0.00000000000E+00 0. -1.
         23    2    1    2    0    0 -0.23761469710E+03 -0.48807710217E+03  0.31611655565E+03  0.63405396080E+03  0.86108922300E+02 0.  0.
    5000000    2    1    2    0    0  0.23761469710E+03  0.48807710217E+03 -0.40321920103E+04  0.41125590632E+04  0.59990802492E+03 0.  0.
         23    2    4    4    0    0  0.95079000379E+02  0.45272981490E+03 -0.14590039608E+04  0.15335771856E+04  0.95718988968E+02 0.  0.
         23    2    4    4    0    0  0.14253569672E+03  0.35347287275E+02 -0.25731880495E+04  0.25789818776E+04  0.91021598929E+02 0.  0.
          1    1    3    3  502    0 -0.21339969388E+03 -0.44126191080E+03  0.25227351126E+03  0.55126529707E+03  0.00000000000E+00 0. -1.
         -1    1    3    3    0  502 -0.24215003223E+02 -0.46815191375E+02  0.63843044392E+02  0.82788663728E+02  0.00000000000E+00 0.  1.
         15    1    5    5    0    0  0.52126069185E+02  0.82244446766E+02 -0.36367727406E+03  0.37649115994E+03  0.17770000000E+01 0. -1.
        -15    1    5    5    0    0  0.42952931195E+02  0.37048536813E+03 -0.10953266868E+04  0.11570860257E+04  0.17770000000E+01 0.  1.
          1    1    6    6  503    0  0.56453497418E+02  0.88653640066E+01 -0.41506499006E+03  0.41898035518E+03  0.00000000000E+00 0. -1.
         -1    1    6    6    0  503  0.86082199305E+02  0.26481923269E+02 -0.21581230595E+04  0.21600015225E+04  0.00000000000E+00 0.  1.
<mgrwt>
<rscale>  0 0.58021486E+03</rscale>
<asrwt>0</asrwt>
<pdfrwt beam="1">  1        1 0.65097604E+00 0.58021486E+03</pdfrwt>
<pdfrwt beam="2">  1       -1 0.79272121E-01 0.58021486E+03</pdfrwt>
<totfact> 0.11236719E-01</totfact>
</mgrwt>
</event>
<event>
12    1  0.8033771E-008  0.5539096E+03  0.7818608E-02  0.1000593E+00
         -2   -1    0    0    0  501 -0.00000000000E+00  0.00000000000E+00  0.27320294944E+03  0.27320294944E+03  0.00000000000E+00 0.  1.
          2   -1    0    0  501    0  0.00000000000E+00 -0.00000000000E+00 -0.13133094681E+04  0.13133094681E+04  0.00000000000E+00 0. -1.
         23    2    1    2    0    0 -0.31913377576E+03 -0.22062692705E+03 -0.67574188706E+03  0.78481557035E+03  0.93732458460E+02 0.  0.
    5000000    2    1    2    0    0  0.31913377576E+03  0.22062692705E+03 -0.36436463162E+03  0.80169684720E+03  0.59952784945E+03 0.  0.
         23    2    4    4    0    0 -0.16268171434E+03  0.36982319554E+02 -0.10146095197E+03  0.21542379584E+03  0.90994806982E+02 0.  0.
         23    2    4    4    0    0  0.48181549010E+03  0.18364460750E+03 -0.26290367965E+03  0.58627305136E+03  0.93414333012E+02 0.  0.
          4    1    3    3  502    0 -0.18671694133E+03 -0.18299219147E+03 -0.43760813967E+03  0.50975508063E+03  0.00000000000E+00 0. -1.
         -4    1    3    3    0  502 -0.13241683442E+03 -0.37634735581E+02 -0.23813374738E+03  0.27506048972E+03  0.00000000000E+00 0.  1.
         15    1    5    5    0    0  0.21612065163E+01  0.20880835100E+02  0.21671724224E+00  0.21068573361E+02  0.17770000000E+01 0. -1.
        -15    1    5    5    0    0 -0.16484292086E+03  0.16101484454E+02 -0.10167766921E+03  0.19435522248E+03  0.17770000000E+01 0.  1.
          2    1    6    6  503    0  0.10861954973E+03  0.79365268056E+02 -0.90669314920E+02  0.16222816347E+03  0.00000000000E+00 0. -1.
         -2    1    6    6    0  503  0.37319594038E+03  0.10427933944E+03 -0.17223436473E+03  0.42404488788E+03  0.00000000000E+00 0.  1.
<mgrwt>
<rscale>  0 0.55390955E+03</rscale>
<asrwt>0</asrwt>
<pdfrwt beam="1">  1        2 0.20204762E+00 0.55390955E+03</pdfrwt>
<pdfrwt beam="2">  1       -2 0.42031221E-01 0.55390955E+03</pdfrwt>
<totfact> 0.90343240E+01</totfact>
</mgrwt>
</event>
<event>
12    1  0.8033771E-008  0.6783907E+03  0.7818608E-02  0.9754918E-01
          2   -1    0    0  501    0  0.00000000000E+00  0.00000000000E+00  0.17877618102E+04  0.17877618102E+04  0.00000000000E+00 0. -1.
         -2   -1    0    0    0  501 -0.00000000000E+00 -0.00000000000E+00 -0.30074053102E+03  0.30074053102E+03  0.00000000000E+00 0.  1.
         23    2    1    2    0    0 -0.41190299513E+03  0.43455619079E+03  0.49083256286E+03  0.78046778437E+03  0.98540333436E+02 0.  0.
    5000000    2    1    2    0    0  0.41190299513E+03 -0.43455619079E+03  0.99618871631E+03  0.13080345568E+04  0.60004940052E+03 0.  0.
         23    2    4    4    0    0 -0.79736629236E+02 -0.19060631374E+03  0.55344876561E+03  0.59723634406E+03  0.87732648589E+02 0.  0.
         23    2    4    4    0    0  0.49163962437E+03 -0.24394987705E+03  0.44273995070E+03  0.71079821279E+03  0.89411255459E+02 0.  0.
          3    1    3    3  502    0 -0.15930235856E+03  0.19530909550E+03  0.26481765696E+03  0.36558347291E+03  0.00000000000E+00 0. -1.
         -3    1    3    3    0  502 -0.25260063657E+03  0.23924709529E+03  0.22601490591E+03  0.41488431146E+03  0.00000000000E+00 0.  1.
         15    1    5    5    0    0 -0.13770596758E+02 -0.54459736613E+02  0.27152765983E+03  0.27728310448E+03  0.17770000000E+01 0.  1.
        -15    1    5    5    0    0 -0.65966032477E+02 -0.13614657713E+03  0.28192110578E+03  0.31995323958E+03  0.17770000000E+01 0. -1.
          4    1    6    6  503    0  0.32325849956E+03 -0.14799399449E+03  0.23217762831E+03  0.42462304581E+03  0.00000000000E+00 0.  1.
         -4    1    6    6    0  503  0.16838112481E+03 -0.95955882563E+02  0.21056232238E+03  0.28617516698E+03  0.00000000000E+00 0. -1.
<mgrwt>
<rscale>  0 0.67839067E+03</rscale>
<asrwt>0</asrwt>
<pdfrwt beam="1">  1        2 0.27504027E+00 0.67839067E+03</pdfrwt>
<pdfrwt beam="2">  1       -2 0.46267775E-01 0.67839067E+03</pdfrwt>
<totfact> 0.40236233E+01</totfact>
</mgrwt>
</event>
<event>
12    1  0.8033771E-008  0.1483014E+04  0.7818608E-02  0.8895827E-01
         -2   -1    0    0    0  501 -0.00000000000E+00  0.00000000000E+00  0.86524331614E+03  0.86524331614E+03  0.00000000000E+00 0.  1.
          2   -1    0    0  501    0  0.00000000000E+00 -0.00000000000E+00 -0.27064681265E+04  0.27064681265E+04  0.00000000000E+00 0. -1.
         23    2    1    2    0    0  0.11451422742E+04  0.84835926719E+03 -0.46600496700E+03  0.15023830869E+04  0.94498869225E+02 0.  0.
    5000000    2    1    2    0    0 -0.11451422742E+04 -0.84835926719E+03 -0.13752198434E+04  0.20693283557E+04  0.59985494242E+03 0.  0.
         23    2    4    4    0    0 -0.27885540923E+03  0.47030075448E+02 -0.25395988854E+03  0.39063616183E+03  0.90159961652E+02 0.  0.
         23    2    4    4    0    0 -0.86628686494E+03 -0.89538934263E+03 -0.11212599548E+04  0.16786921939E+04  0.92782478528E+02 0.  0.
          3    1    3    3  502    0  0.49275585489E+03  0.30844542809E+03 -0.19946969379E+03  0.61460155660E+03  0.00000000000E+00 0. -1.
         -3    1    3    3    0  502  0.65238641928E+03  0.53991383910E+03 -0.26653527321E+03  0.88778153032E+03  0.00000000000E+00 0.  1.
         15    1    5    5    0    0 -0.22024004537E+03  0.61530477847E+01 -0.15869424776E+03  0.27153371721E+03  0.17770000000E+01 0.  1.
        -15    1    5    5    0    0 -0.58615363864E+02  0.40877027664E+02 -0.95265640780E+02  0.11910244462E+03  0.17770000000E+01 0. -1.
          1    1    6    6  503    0 -0.15710880589E+03 -0.17464166113E+03 -0.26068112091E+03  0.35090958022E+03  0.00000000000E+00 0. -1.
         -1    1    6    6    0  503 -0.70917805905E+03 -0.72074768150E+03 -0.86057883391E+03  0.13277826137E+04  0.00000000000E+00 0.  1.
<mgrwt>
<rscale>  0 0.14830142E+04</rscale>
<asrwt>0</asrwt>
<pdfrwt beam="1">  1        2 0.41637972E+00 0.14830142E+04</pdfrwt>
<pdfrwt beam="2">  1       -2 0.13311435E+00 0.14830142E+04</pdfrwt>
<totfact> 0.10225675E+00</totfact>
</mgrwt>
</event>
<event>
12    1  0.8033771E-008  0.5567698E+03  0.7818608E-02  0.9999390E-01
          1   -1    0    0  501    0  0.00000000000E+00  0.00000000000E+00  0.19373996899E+04  0.19373996899E+04  0.00000000000E+00 0. -1.
         -1   -1    0    0    0  501 -0.00000000000E+00 -0.00000000000E+00 -0.20465934473E+03  0.20465934473E+03  0.00000000000E+00 0.  1.
         23    2    1    2    0    0  0.43412794388E+03  0.18667277339E+02  0.31830716005E+03  0.54539565234E+03  0.85565358365E+02 0.  0.
    5000000    2    1    2    0    0 -0.43412794388E+03 -0.18667277339E+02  0.14144331852E+04  0.15966633823E+04  0.59991431246E+03 0.  0.
         23    2    4    4    0    0  0.10232861641E+03 -0.18650920483E+02  0.92968804604E+02  0.16745549851E+03  0.92623662102E+02 0.  0.
         23    2    4    4    0    0 -0.53645656029E+03 -0.16356856265E-01  0.13214643806E+04  0.14292078838E+04  0.92635979730E+02 0.  0.
          3    1    3    3  502    0  0.21765204464E+03  0.67747197847E+00  0.21089812589E+03  0.30306911919E+03  0.00000000000E+00 0. -1.
         -3    1    3    3    0  502  0.21647589924E+03  0.17989805360E+02  0.10740903416E+03  0.24232653315E+03  0.00000000000E+00 0.  1.
         15    1    5    5    0    0  0.62185025717E+02  0.35484293902E+02  0.42977404868E+02  0.83524413169E+02  0.17770000000E+01 0.  1.
        -15    1    5    5    0    0  0.40143590694E+02 -0.54135214385E+02  0.49991399736E+02  0.83931085343E+02  0.17770000000E+01 0. -1.
          3    1    6    6  503    0 -0.23671130692E+03 -0.29010864855E+02  0.67910230397E+03  0.71975955177E+03  0.00000000000E+00 0. -1.
         -3    1    6    6    0  503 -0.29974525337E+03  0.28994507999E+02  0.64236207658E+03  0.70944833205E+03  0.00000000000E+00 0.  1.
<mgrwt>
<rscale>  0 0.55676982E+03</rscale>
<asrwt>0</asrwt>
<pdfrwt beam="1">  1        1 0.29806148E+00 0.55676982E+03</pdfrwt>
<pdfrwt beam="2">  1       -1 0.31486054E-01 0.55676982E+03</pdfrwt>
<totfact> 0.32836099E+01</totfact>
</mgrwt>
</event>
<event>
12    1  0.8033771E-008  0.9427850E+03  0.7818608E-02  0.9373624E-01
          2   -1    0    0  501    0  0.00000000000E+00  0.00000000000E+00  0.10337245074E+04  0.10337245074E+04  0.00000000000E+00 0.  1.
         -2   -1    0    0    0  501 -0.00000000000E+00 -0.00000000000E+00 -0.88320684789E+03  0.88320684789E+03  0.00000000000E+00 0. -1.
         23    2    1    2    0    0  0.66120266341E+03 -0.53999245974E+03  0.16144160430E+03  0.87349505609E+03  0.90274042381E+02 0.  0.
    5000000    2    1    2    0    0 -0.66120266341E+03  0.53999245974E+03 -0.10923944828E+02  0.10434362992E+04  0.59988262116E+03 0.  0.
         23    2    4    4    0    0 -0.16721082085E+03 -0.11123953428E+03  0.10186346345E+01  0.22084673619E+03  0.91861584329E+02 0.  0.
         23    2    4    4    0    0 -0.49399184257E+03  0.65123199402E+03 -0.11942579463E+02  0.82258956298E+03  0.91541866696E+02 0.  0.
          4    1    3    3  502    0  0.37565240082E+03 -0.34484913074E+03  0.62452852911E+02  0.51374702729E+03  0.00000000000E+00 0. -1.
         -4    1    3    3    0  502  0.28555026260E+03 -0.19514332900E+03  0.98988751386E+02  0.35974802879E+03  0.00000000000E+00 0.  1.
         15    1    5    5    0    0 -0.49069022469E+01 -0.21944596680E+02  0.25427897279E+02  0.33990862039E+02  0.17770000000E+01 0. -1.
        -15    1    5    5    0    0 -0.16230391860E+03 -0.89294937599E+02 -0.24409262645E+02  0.18685587415E+03  0.17770000000E+01 0.  1.
          1    1    6    6  503    0 -0.45779476889E+02  0.11056579262E+03 -0.12283820897E+02  0.12029732856E+03  0.00000000000E+00 0. -1.
         -1    1    6    6    0  503 -0.44821236568E+03  0.54066620140E+03  0.34124143394E+00  0.70229223442E+03  0.00000000000E+00 0.  1.
<mgrwt>
<rscale>  0 0.94278498E+03</rscale>
<asrwt>0</asrwt>
<pdfrwt beam="1">  1        2 0.15903454E+00 0.94278498E+03</pdfrwt>
<pdfrwt beam="2">  1       -2 0.13587798E+00 0.94278498E+03</pdfrwt>
<totfact> 0.92730516E+00</totfact>
</mgrwt>
</event>
<event>
12    1  0.8033771E-008  0.3407509E+03  0.7818608E-02  0.1066477E+00
          1   -1    0    0  501    0  0.00000000000E+00  0.00000000000E+00  0.11086939366E+04  0.11086939366E+04  0.00000000000E+00 0. -1.
         -1   -1    0    0    0  501 -0.00000000000E+00 -0.00000000000E+00 -0.16411436229E+03  0.16411436229E+03  0.00000000000E+00 0.  1.
         23    2    1    2    0    0  0.20002748489E+03  0.18022710517E+02  0.24303381690E+03  0.32809881234E+03  0.90816197311E+02 0.  0.
    5000000    2    1    2    0    0 -0.20002748489E+03 -0.18022710517E+02  0.70154575746E+03  0.94470948660E+03  0.59997812582E+03 0.  0.
         23    2    4    4    0    0  0.12877216984E+03  0.15681757327E+02 -0.73929509207E+01  0.15708873051E+03  0.88283771405E+02 0.  0.
         23    2    4    4    0    0 -0.32879965473E+03 -0.33704467843E+02  0.70893870838E+03  0.78762075609E+03  0.92234261966E+02 0.  0.
          3    1    3    3  502    0  0.27317408063E+02  0.34991355251E+01 -0.23908718023E+01  0.27644185658E+02  0.00000000000E+00 0. -1.
         -3    1    3    3    0  502  0.17271007683E+03  0.14523574991E+02  0.24542468870E+03  0.30045462668E+03  0.00000000000E+00 0.  1.
         15    1    5    5    0    0 -0.25978657042E+01  0.17010854050E+02 -0.18380652090E+02  0.25241318547E+02  0.17770000000E+01 0.  1.
        -15    1    5    5    0    0  0.13137003554E+03 -0.13290967227E+01  0.10987701169E+02  0.13184741197E+03  0.17770000000E+01 0. -1.
          3    1    6    6  503    0 -0.12795279697E+03  0.19418157296E+01  0.18120428320E+03  0.22183480599E+03  0.00000000000E+00 0. -1.
         -3    1    6    6    0  503 -0.20084685776E+03 -0.35646283573E+02  0.52773442518E+03  0.56578595010E+03  0.00000000000E+00 0.  1.
<mgrwt>
<rscale>  0 0.34075087E+03</rscale>
<asrwt>0</asrwt>
<pdfrwt beam="1">  1        1 0.17056829E+00 0.34075087E+03</pdfrwt>
<pdfrwt beam="2">  1       -1 0.25248364E-01 0.34075087E+03</pdfrwt>
<totfact> 0.18176831E+02</totfact>
</mgrwt>
</event>
<event>
12    1  0.8033771E-008  0.9624838E+03  0.7818608E-02  0.9350677E-01
         -2   -1    0    0    0  501 -0.00000000000E+00  0.00000000000E+00  0.11289788786E+04  0.11289788786E+04  0.00000000000E+00 0.  1.
          2   -1    0    0  501    0  0.00000000000E+00 -0.00000000000E+00 -0.26129649022E+04  0.26129649022E+04  0.00000000000E+00 0. -1.
         23    2    1    2    0    0 -0.82310096112E+03 -0.30348798643E+03 -0.22597446839E+04  0.24261692205E+04  0.10124672941E+03 0.  0.
    5000000    2    1    2    0    0  0.82310096112E+03  0.30348798643E+03  0.77575866024E+03  0.13157745602E+04  0.59988419239E+03 0.  0.
         23    2    4    4    0    0 -0.78670107047E+01  0.19031077394E+03  0.96476797273E+02  0.23258120776E+03  0.92228874303E+02 0.  0.
         23    2    4    4    0    0  0.83096797182E+03  0.11317721249E+03  0.67928186297E+03  0.10831933525E+04  0.92558834449E+02 0.  0.
          4    1    3    3  502    0 -0.41087244137E+03 -0.17087290793E+03 -0.10152909108E+04  0.11085257540E+04  0.00000000000E+00 0.  1.
         -4    1    3    3    0  502 -0.41222851974E+03 -0.13261507850E+03 -0.12444537730E+04  0.13176434665E+04  0.00000000000E+00 0. -1.
         15    1    5    5    0    0  0.27917368471E+02  0.36231802203E+02 -0.27321071947E+01  0.45855698576E+02  0.17770000000E+01 0. -1.
        -15    1    5    5    0    0 -0.35784379176E+02  0.15407897174E+03  0.99208904468E+02  0.18672550919E+03  0.17770000000E+01 0.  1.
          1    1    6    6  503    0  0.15353339086E+03 -0.12295624450E+02  0.10683354778E+03  0.18744890350E+03  0.00000000000E+00 0. -1.
         -1    1    6    6    0  503  0.67743458096E+03  0.12547283694E+03  0.57244831518E+03  0.89574444896E+03  0.00000000000E+00 0.  1.
<mgrwt>
<rscale>  0 0.96248377E+03</rscale>
<asrwt>0</asrwt>
<pdfrwt beam="1">  1        2 0.40199460E+00 0.96248377E+03</pdfrwt>
<pdfrwt beam="2">  1       -2 0.17368906E+00 0.96248377E+03</pdfrwt>
<totfact> 0.60883286E-01</totfact>
</mgrwt>
</event>
<event>
12    1  0.8033771E-008  0.1270801E+04  0.7818608E-02  0.9053046E-01
          2   -1    0    0  501    0  0.00000000000E+00  0.00000000000E+00  0.11004605870E+04  0.11004605870E+04  0.00000000000E+00 0. -1.
         -2   -1    0    0    0  501 -0.00000000000E+00 -0.00000000000E+00 -0.14971169954E+04  0.14971169954E+04  0.00000000000E+00 0.  1.
         23    2    1    2    0    0 -0.11820895939E+04 -0.26367741793E+03 -0.15577648074E+03  0.12246490837E+04  0.92938031125E+02 0.  0.
    5000000    2    1    2    0    0  0.11820895939E+04  0.26367741793E+03 -0.24087992763E+03  0.13729284987E+04  0.60003994392E+03 0.  0.
         23    2    4    4    0    0 -0.95151898768E+01 -0.57606558458E+02 -0.54093144671E+02  0.12135941846E+03  0.91613239941E+02 0.  0.
         23    2    4    4    0    0  0.11916047837E+04  0.32128397639E+03 -0.18678678296E+03  0.12515690802E+04  0.91599706099E+02 0.  0.
          1    1    3    3  502    0 -0.80098011679E+03 -0.15488621065E+03 -0.67512688989E+02  0.81860665091E+03  0.00000000000E+00 0. -1.
         -1    1    3    3    0  502 -0.38110947708E+03 -0.10879120729E+03 -0.88263791755E+02  0.40604243280E+03  0.00000000000E+00 0.  1.
         15    1    5    5    0    0  0.31163864054E+02 -0.40464363530E+02 -0.57646207666E+02  0.77037615007E+02  0.17770000000E+01 0.  1.
        -15    1    5    5    0    0 -0.40679053931E+02 -0.17142194928E+02  0.35530629946E+01  0.44321803452E+02  0.17770000000E+01 0. -1.
          1    1    6    6  503    0  0.72538709024E+03  0.19320103042E+03 -0.15866801011E+03  0.76726045531E+03  0.00000000000E+00 0. -1.
         -1    1    6    6    0  503  0.46621769350E+03  0.12808294597E+03 -0.28118772848E+02  0.48430862491E+03  0.00000000000E+00 0.  1.
<mgrwt>
<rscale>  0 0.12708009E+04</rscale>
<asrwt>0</asrwt>
<pdfrwt beam="1">  1        2 0.16930163E+00 0.12708009E+04</pdfrwt>
<pdfrwt beam="2">  1       -2 0.23032569E+00 0.12708009E+04</pdfrwt>
<totfact> 0.17887785E+00</totfact>
</mgrwt>
</event>
<event>
12    1  0.8033771E-008  0.5327492E+03  0.7818608E-02  0.1005568E+00
          1   -1    0    0  501    0  0.00000000000E+00  0.00000000000E+00  0.74880376267E+03  0.74880376267E+03  0.00000000000E+00 0. -1.
         -1   -1    0    0    0  501 -0.00000000000E+00 -0.00000000000E+00 -0.69100634963E+03  0.69100634963E+03  0.00000000000E+00 0.  1.
         23    2    1    2    0    0 -0.27697854228E+03 -0.27816552883E+03  0.46513701441E+03  0.61514379215E+03  0.89197917724E+02 0.  0.
    5000000    2    1    2    0    0  0.27697854228E+03  0.27816552883E+03 -0.40733960137E+03  0.82466632016E+03  0.60004651023E+03 0.  0.
         23    2    4    4    0    0 -0.17299217085E+01 -0.15393608609E+03 -0.31708156857E+02  0.18120366090E+03  0.90166780365E+02 0.  0.
         23    2    4    4    0    0  0.27870846399E+03  0.43210161492E+03 -0.37563144452E+03  0.64346265926E+03  0.92493233456E+02 0.  0.
          1    1    3    3  502    0 -0.18745782999E+03 -0.19690034172E+03  0.38014483632E+03  0.46735455404E+03  0.00000000000E+00 0. -1.
         -1    1    3    3    0  502 -0.89520712286E+02 -0.81265187118E+02  0.84992178087E+02  0.14778923811E+03  0.00000000000E+00 0.  1.
         15    1    5    5    0    0 -0.29560573572E+01 -0.15129494669E+03 -0.52463277841E+02  0.16017007342E+03  0.17770000000E+01 0. -1.
        -15    1    5    5    0    0  0.12261356487E+01 -0.26411393976E+01  0.20755120984E+02  0.21033587473E+02  0.17770000000E+01 0.  1.
          3    1    6    6  503    0  0.25325181084E+03  0.41839545722E+03 -0.37168875267E+03  0.61428313275E+03  0.00000000000E+00 0. -1.
         -3    1    6    6    0  503  0.25456653147E+02  0.13706157699E+02 -0.39426918452E+01  0.29179526509E+02  0.00000000000E+00 0.  1.
<mgrwt>
<rscale>  0 0.53274921E+03</rscale>
<asrwt>0</asrwt>
<pdfrwt beam="1">  1        1 0.11520058E+00 0.53274921E+03</pdfrwt>
<pdfrwt beam="2">  1       -1 0.10630867E+00 0.53274921E+03</pdfrwt>
<totfact> 0.21473196E+01</totfact>
</mgrwt>
</event>
<event>
12    1  0.8033771E-008  0.8991354E+03  0.7818608E-02  0.9426663E-01
          2   -1    0    0  501    0  0.00000000000E+00  0.00000000000E+00  0.22603987664E+04  0.22603987664E+04  0.00000000000E+00 0. -1.
         -2   -1    0    0    0  501 -0.00000000000E+00 -0.00000000000E+00 -0.60857864840E+03  0.60857864840E+03  0.00000000000E+00 0.  1.
         23    2    1    2    0    0 -0.82279448815E+03  0.34900674983E+03  0.17737171398E+01  0.89878480306E+03  0.94944694301E+02 0.  0.
    5000000    2    1    2    0    0  0.82279448815E+03 -0.34900674983E+03  0.16500464008E+04  0.19701926117E+04  0.60017440898E+03 0.  0.
         23    2    4    4    0    0  0.63645998288E+03 -0.29528967975E+03  0.16005919430E+04  0.17500917808E+04  0.93001982311E+02 0.  0.
         23    2    4    4    0    0  0.18633450527E+03 -0.53717070076E+02  0.49454457879E+02  0.22010083088E+03  0.91610921178E+02 0.  0.
          1    1    3    3  502    0 -0.45085404012E+03  0.22671645708E+03 -0.32929197459E+02  0.50572131599E+03  0.00000000000E+00 0. -1.
         -1    1    3    3    0  502 -0.37194044803E+03  0.12229029275E+03  0.34702914599E+02  0.39306348706E+03  0.00000000000E+00 0.  1.
         15    1    5    5    0    0  0.28573137773E+03 -0.18052774092E+03  0.80526708366E+03  0.87332177301E+03  0.17770000000E+01 0. -1.
        -15    1    5    5    0    0  0.35072860515E+03 -0.11476193883E+03  0.79532485931E+03  0.87677000783E+03  0.17770000000E+01 0.  1.
          3    1    6    6  503    0  0.17694969847E+03 -0.45759892969E+02  0.70357623453E+02  0.19584524189E+03  0.00000000000E+00 0. -1.
         -3    1    6    6    0  503  0.93848067940E+01 -0.79571771074E+01 -0.20903165574E+02  0.24255588986E+02  0.00000000000E+00 0.  1.
<mgrwt>
<rscale>  0 0.89913535E+03</rscale>
<asrwt>0</asrwt>
<pdfrwt beam="1">  1        2 0.34775365E+00 0.89913535E+03</pdfrwt>
<pdfrwt beam="2">  1       -2 0.93627486E-01 0.89913535E+03</pdfrwt>
<totfact> 0.46893089E+00</totfact>
</mgrwt>
</event>
<event>
12    1  0.8033771E-008  0.1228263E+04  0.7818608E-02  0.9088472E-01
         -1   -1    0    0    0  501 -0.00000000000E+00  0.00000000000E+00  0.10964800567E+04  0.10964800567E+04  0.00000000000E+00 0.  1.
          1   -1    0    0  501    0  0.00000000000E+00 -0.00000000000E+00 -0.15377113557E+04  0.15377113557E+04  0.00000000000E+00 0. -1.
         23    2    1    2    0    0  0.49748395129E+03 -0.11171483358E+04 -0.10358100065E+03  0.12307173471E+04  0.91790406153E+02 0.  0.
    5000000    2    1    2    0    0 -0.49748395129E+03  0.11171483358E+04 -0.33765029828E+03  0.14034740653E+04  0.60018417344E+03 0.  0.
         23    2    4    4    0    0 -0.28718627370E+03  0.77544140197E+03  0.54404141213E+02  0.83390080474E+03  0.92980739210E+02 0.  0.
         23    2    4    4    0    0 -0.21029767758E+03  0.34170693386E+03 -0.39205443949E+03  0.56957326058E+03  0.98581305527E+02 0.  0.
          1    1    3    3  502    0  0.13579402893E+03 -0.25229600012E+03 -0.56925571586E+02  0.29211951436E+03  0.00000000000E+00 0. -1.
         -1    1    3    3    0  502  0.36168992236E+03 -0.86485233572E+03 -0.46655429068E+02  0.93859783272E+03  0.00000000000E+00 0.  1.
         15    1    5    5    0    0 -0.29211688540E+03  0.75377729243E+03  0.60873634466E+02  0.81069182704E+03  0.17770000000E+01 0. -1.
        -15    1    5    5    0    0  0.49306116998E+01  0.21664109542E+02 -0.64694932530E+01  0.23208977702E+02  0.17770000000E+01 0.  1.
          3    1    6    6  503    0 -0.70469395958E+02  0.94774327812E+02 -0.58998167260E+02  0.13201853173E+03  0.00000000000E+00 0.  1.
         -3    1    6    6    0  503 -0.13982828162E+03  0.24693260605E+03 -0.33305627223E+03  0.43755472886E+03  0.00000000000E+00 0. -1.
<mgrwt>
<rscale>  0 0.12282625E+04</rscale>
<asrwt>0</asrwt>
<pdfrwt beam="1">  1        1 0.23657098E+00 0.12282625E+04</pdfrwt>
<pdfrwt beam="2">  1       -1 0.16868924E+00 0.12282625E+04</pdfrwt>
<totfact> 0.15143802E+00</totfact>
</mgrwt>
</event>
<event>
12    1  0.8033771E-008  0.1100391E+04  0.7818608E-02  0.9204810E-01
          1   -1    0    0  501    0  0.00000000000E+00  0.00000000000E+00  0.11225965629E+04  0.11225965629E+04  0.00000000000E+00 0. -1.
         -1   -1    0    0    0  501 -0.00000000000E+00 -0.00000000000E+00 -0.12149724571E+04  0.12149724571E+04  0.00000000000E+00 0.  1.
         23    2    1    2    0    0 -0.21069471421E+03 -0.10601513274E+04 -0.17032524704E+03  0.10982957301E+04  0.94497202646E+02 0.  0.
    5000000    2    1    2    0    0  0.21069471421E+03  0.10601513274E+04  0.77949352812E+02  0.12392732899E+04  0.60117309133E+03 0.  0.
         23    2    4    4    0    0 -0.53238362349E+02  0.28419048619E+03  0.25561910478E+03  0.39574820134E+03  0.87618242764E+02 0.  0.
         23    2    4    4    0    0  0.26393307656E+03  0.77596084124E+03 -0.17766975197E+03  0.84352508854E+03  0.90510431370E+02 0.  0.
          2    1    3    3  502    0 -0.66860921033E+02 -0.57812684899E+03 -0.92221581731E+02  0.58924176399E+03  0.00000000000E+00 0.  1.
         -2    1    3    3    0  502 -0.14383379318E+03 -0.48202447844E+03 -0.78103665306E+02  0.50905396611E+03  0.00000000000E+00 0. -1.
         15    1    5    5    0    0 -0.65745683045E+01  0.13242346689E+03  0.65051027138E+02  0.14769561061E+03  0.17770000000E+01 0.  1.
        -15    1    5    5    0    0 -0.46663794045E+02  0.15176701930E+03  0.19056807764E+03  0.24805259073E+03  0.17770000000E+01 0. -1.
          3    1    6    6  503    0  0.20331354754E+02  0.14665500545E+02 -0.87445805003E+01  0.26550114510E+02  0.00000000000E+00 0. -1.
         -3    1    6    6    0  503  0.24360172181E+03  0.76129534070E+03 -0.16892517147E+03  0.81697497403E+03  0.00000000000E+00 0.  1.
<mgrwt>
<rscale>  0 0.11003914E+04</rscale>
<asrwt>0</asrwt>
<pdfrwt beam="1">  1        1 0.17270716E+00 0.11003914E+04</pdfrwt>
<pdfrwt beam="2">  1       -1 0.18691884E+00 0.11003914E+04</pdfrwt>
<totfact> 0.22459235E+00</totfact>
</mgrwt>
</event>
<event>
12    1  0.8033771E-008  0.4644369E+03  0.7818608E-02  0.1023502E+00
         -1   -1    0    0    0  501 -0.00000000000E+00  0.00000000000E+00  0.21784295858E+03  0.21784295858E+03  0.00000000000E+00 0.  1.
          1   -1    0    0  501    0  0.00000000000E+00 -0.00000000000E+00 -0.13408830171E+04  0.13408830171E+04  0.00000000000E+00 0. -1.
         23    2    1    2    0    0 -0.89492105433E+01 -0.36630951061E+03 -0.40297584813E+03  0.55228677445E+03  0.91478965484E+02 0.  0.
    5000000    2    1    2    0    0  0.89492105433E+01  0.36630951061E+03 -0.72006421043E+03  0.10064392013E+04  0.60013719495E+03 0.  0.
         23    2    4    4    0    0  0.69935403577E+02  0.44425522063E+03 -0.25945631816E+03  0.52667061913E+03  0.88378155093E+02 0.  0.
         23    2    4    4    0    0 -0.60986193034E+02 -0.77945710017E+02 -0.46060789227E+03  0.47976858213E+03  0.90683033261E+02 0.  0.
          1    1    3    3  502    0 -0.32181297240E+02 -0.71775272123E+02 -0.11787772366E+03  0.14171267874E+03  0.00000000000E+00 0. -1.
         -1    1    3    3    0  502  0.23232086697E+02 -0.29453423849E+03 -0.28509812447E+03  0.41057409571E+03  0.00000000000E+00 0.  1.
         15    1    5    5    0    0  0.56533839132E+02  0.30772570495E+03 -0.22449952483E+03  0.38509009184E+03  0.17770000000E+01 0.  1.
        -15    1    5    5    0    0  0.13401564445E+02  0.13652951567E+03 -0.34956793330E+02  0.14158052729E+03  0.17770000000E+01 0. -1.
          3    1    6    6  503    0 -0.59329667186E+02 -0.52605232908E+02 -0.16491357674E+03  0.18298581292E+03  0.00000000000E+00 0. -1.
         -3    1    6    6    0  503 -0.16565258475E+01 -0.25340477109E+02 -0.29569431554E+03  0.29678276921E+03  0.00000000000E+00 0.  1.
<mgrwt>
<rscale>  0 0.46443685E+03</rscale>
<asrwt>0</asrwt>
<pdfrwt beam="1">  1        1 0.20628969E+00 0.46443685E+03</pdfrwt>
<pdfrwt beam="2">  1       -1 0.33514301E-01 0.46443685E+03</pdfrwt>
<totfact> 0.75179211E+01</totfact>
</mgrwt>
</event>
<event>
12    1  0.8033771E-008  0.8244124E+03  0.7818608E-02  0.9525338E-01
         -4   -1    0    0    0  501 -0.00000000000E+00  0.00000000000E+00  0.32573767497E+03  0.32573767497E+03  0.00000000000E+00 0.  1.
          4   -1    0    0  501    0  0.00000000000E+00 -0.00000000000E+00 -0.21412450361E+04  0.21412450361E+04  0.00000000000E+00 0. -1.
         23    2    1    2    0    0  0.64932005676E+03  0.31170679209E+03 -0.68320019974E+03  0.99695095111E+03  0.91493309352E+02 0.  0.
    5000000    2    1    2    0    0 -0.64932005676E+03 -0.31170679209E+03 -0.11323071613E+04  0.14700317599E+04  0.60008016730E+03 0.  0.
         23    2    4    4    0    0  0.89745411199E+02 -0.68626343270E+02 -0.11065212609E+03  0.18259754096E+03  0.91291594004E+02 0.  0.
         23    2    4    4    0    0 -0.73906546796E+03 -0.24308044882E+03 -0.10216550353E+04  0.12874342190E+04  0.91662350716E+02 0.  0.
          2    1    3    3  502    0  0.29115340629E+03  0.12677695870E+03 -0.24138780926E+03  0.39888692347E+03  0.00000000000E+00 0. -1.
         -2    1    3    3    0  502  0.35816665047E+03  0.18492983338E+03 -0.44181239048E+03  0.59806402764E+03  0.00000000000E+00 0.  1.
         15    1    5    5    0    0  0.82664249495E+02 -0.72038520698E+01 -0.70055351544E+02  0.10861023726E+03  0.17770000000E+01 0. -1.
        -15    1    5    5    0    0  0.70811617035E+01 -0.61422491200E+02 -0.40596774541E+02  0.73987303698E+02  0.17770000000E+01 0.  1.
          2    1    6    6  503    0 -0.15409278130E+03 -0.90803744546E+02 -0.22609381104E+03  0.28828513083E+03  0.00000000000E+00 0.  1.
         -2    1    6    6    0  503 -0.58497268666E+03 -0.15227670427E+03 -0.79556122422E+03  0.99914908812E+03  0.00000000000E+00 0. -1.
<mgrwt>
<rscale>  0 0.82441242E+03</rscale>
<asrwt>0</asrwt>
<pdfrwt beam="1">  1        4 0.32942231E+00 0.82441242E+03</pdfrwt>
<pdfrwt beam="2">  1       -4 0.50113489E-01 0.82441242E+03</pdfrwt>
<totfact> 0.15612923E-01</totfact>
</mgrwt>
</event>
<event>
12    1  0.8033771E-008  0.5923688E+03  0.7818608E-02  0.9921366E-01
         -2   -1    0    0    0  501 -0.00000000000E+00  0.00000000000E+00  0.24987921978E+03  0.24987921978E+03  0.00000000000E+00 0.  1.
          2   -1    0    0  501    0  0.00000000000E+00 -0.00000000000E+00 -0.16267447356E+04  0.16267447356E+04  0.00000000000E+00 0. -1.
         23    2    1    2    0    0  0.44858925782E+03  0.10629617700E+03 -0.29175059834E+03  0.55378050601E+03  0.94990724404E+02 0.  0.
    5000000    2    1    2    0    0 -0.44858925782E+03 -0.10629617700E+03 -0.10851149175E+04  0.13228434493E+04  0.59992433515E+03 0.  0.
         23    2    4    4    0    0 -0.50516117867E+03  0.67677158421E+02 -0.93569128341E+03  0.10693109933E+04  0.90220886409E+02 0.  0.
         23    2    4    4    0    0  0.56571920848E+02 -0.17397333542E+03 -0.14942363405E+03  0.25353245604E+03  0.92109609641E+02 0.  0.
          1    1    3    3  502    0  0.18379756809E+03  0.91901031173E+02 -0.12991378608E+03  0.24311507025E+03  0.00000000000E+00 0. -1.
         -1    1    3    3    0  502  0.26479168973E+03  0.14395145827E+02 -0.16183681225E+03  0.31066543576E+03  0.00000000000E+00 0.  1.
         15    1    5    5    0    0 -0.25672691472E+03 -0.10117039580E+02 -0.44568008392E+03  0.51443654434E+03  0.17770000000E+01 0.  1.
        -15    1    5    5    0    0 -0.24843426396E+03  0.77794198001E+02 -0.49001119949E+03  0.55487444896E+03  0.17770000000E+01 0. -1.
          2    1    6    6  503    0  0.57848055218E+02 -0.61936592097E+02 -0.30320135080E+02  0.90010274549E+02  0.00000000000E+00 0. -1.
         -2    1    6    6    0  503 -0.12761343703E+01 -0.11203674332E+03 -0.11910349897E+03  0.16352218149E+03  0.00000000000E+00 0.  1.
<mgrwt>
<rscale>  0 0.59236876E+03</rscale>
<asrwt>0</asrwt>
<pdfrwt beam="1">  1        2 0.25026843E+00 0.59236876E+03</pdfrwt>
<pdfrwt beam="2">  1       -2 0.38442956E-01 0.59236876E+03</pdfrwt>
<totfact> 0.71645982E+01</totfact>
</mgrwt>
</event>
<event>
12    1  0.8033771E-008  0.4465384E+03  0.7818608E-02  0.1028759E+00
          2   -1    0    0  501    0  0.00000000000E+00  0.00000000000E+00  0.95239572064E+03  0.95239572064E+03  0.00000000000E+00 0. -1.
         -2   -1    0    0    0  501 -0.00000000000E+00 -0.00000000000E+00 -0.41864922377E+03  0.41864922377E+03  0.00000000000E+00 0.  1.
         23    2    1    2    0    0 -0.26658841455E+03 -0.48151473598E+02  0.64307100184E+03  0.70363165454E+03  0.90383873996E+02 0.  0.
    5000000    2    1    2    0    0  0.26658841455E+03  0.48151473598E+02 -0.10932450496E+03  0.66741328987E+03  0.60008391490E+03 0.  0.
         23    2    4    4    0    0  0.37172479279E+03  0.19569449420E+03 -0.15891692045E+03  0.45821711422E+03  0.90734114431E+02 0.  0.
         23    2    4    4    0    0 -0.10513637824E+03 -0.14754302060E+03  0.49592415486E+02  0.20919617565E+03  0.92092514756E+02 0.  0.
          3    1    3    3  502    0 -0.11589878926E+03  0.17258181685E+02  0.21046257645E+03  0.24088352013E+03  0.00000000000E+00 0. -1.
         -3    1    3    3    0  502 -0.15068962529E+03 -0.65409655283E+02  0.43260842539E+03  0.46274813441E+03  0.00000000000E+00 0.  1.
         15    1    5    5    0    0  0.30662844515E+03  0.13135344133E+03 -0.95952567392E+02  0.34710918001E+03  0.17770000000E+01 0.  1.
        -15    1    5    5    0    0  0.65096347642E+02  0.64341052867E+02 -0.62964353060E+02  0.11110793421E+03  0.17770000000E+01 0. -1.
          4    1    6    6  503    0 -0.33379196561E+00 -0.26035236599E+02 -0.21427789100E+02  0.33720840849E+02  0.00000000000E+00 0. -1.
         -4    1    6    6    0  503 -0.10480258628E+03 -0.12150778400E+03  0.71020204587E+02  0.17547533480E+03  0.00000000000E+00 0.  1.
<mgrwt>
<rscale>  0 0.44653841E+03</rscale>
<asrwt>0</asrwt>
<pdfrwt beam="1">  1        2 0.14652242E+00 0.44653841E+03</pdfrwt>
<pdfrwt beam="2">  1       -2 0.64407573E-01 0.44653841E+03</pdfrwt>
<totfact> 0.63067365E+01</totfact>
</mgrwt>
</event>
<event>
12    1  0.8033771E-008  0.1397230E+04  0.7818608E-02  0.8955826E-01
          2   -1    0    0  501    0  0.00000000000E+00  0.00000000000E+00  0.22944493410E+04  0.22944493410E+04  0.00000000000E+00 0. -1.
         -2   -1    0    0    0  501 -0.00000000000E+00 -0.00000000000E+00 -0.88995620516E+03  0.88995620516E+03  0.00000000000E+00 0.  1.
         23    2    1    2    0    0  0.74438381485E+03  0.11153606112E+04  0.95259283681E+03  0.16474268133E+04  0.91899050177E+02 0.  0.
    5000000    2    1    2    0    0 -0.74438381485E+03 -0.11153606112E+04  0.45190029901E+03  0.15369787329E+04  0.59996098883E+03 0.  0.
         23    2    4    4    0    0  0.66536305918E+02 -0.21725226478E+03  0.15488268815E+03  0.28791867760E+03  0.85339857417E+02 0.  0.
         23    2    4    4    0    0 -0.81092012077E+03 -0.89810834646E+03  0.29701761086E+03  0.12490600553E+04  0.87985886684E+02 0.  0.
          3    1    3    3  502    0  0.55991084030E+03  0.83843793591E+03  0.66640624868E+03  0.12085427629E+04  0.00000000000E+00 0. -1.
         -3    1    3    3    0  502  0.18447297455E+03  0.27692267534E+03  0.28618658813E+03  0.43888405038E+03  0.00000000000E+00 0.  1.
         15    1    5    5    0    0  0.58742480714E+02 -0.22418945753E+03  0.14467089732E+03  0.27321130681E+03  0.17770000000E+01 0. -1.
        -15    1    5    5    0    0  0.77938252042E+01  0.69371927494E+01  0.10211790834E+02  0.14707370792E+02  0.17770000000E+01 0.  1.
          3    1    6    6  503    0 -0.54489730151E+03 -0.63942481667E+03  0.23943019845E+03  0.87355823235E+03  0.00000000000E+00 0. -1.
         -3    1    6    6    0  503 -0.26602281925E+03 -0.25868352979E+03  0.57587412408E+02  0.37550182292E+03  0.00000000000E+00 0.  1.
<mgrwt>
<rscale>  0 0.13972301E+04</rscale>
<asrwt>0</asrwt>
<pdfrwt beam="1">  1        2 0.35299220E+00 0.13972301E+04</pdfrwt>
<pdfrwt beam="2">  1       -2 0.13691634E+00 0.13972301E+04</pdfrwt>
<totfact> 0.16610486E+00</totfact>
</mgrwt>
</event>
<event>
12    1  0.8033771E-008  0.6975336E+03  0.7818608E-02  0.9721459E-01
          2   -1    0    0  501    0  0.00000000000E+00  0.00000000000E+00  0.68461892390E+03  0.68461892390E+03  0.00000000000E+00 0. -1.
         -2   -1    0    0    0  501 -0.00000000000E+00 -0.00000000000E+00 -0.13918540633E+04  0.13918540633E+04  0.00000000000E+00 0.  1.
         23    2    1    2    0    0 -0.42633209717E+03  0.51403827153E+03  0.29077991061E+03  0.73408237108E+03  0.91266474892E+02 0.  0.
    5000000    2    1    2    0    0  0.42633209717E+03 -0.51403827153E+03 -0.99801504997E+03  0.13423906161E+04  0.59998677025E+03 0.  0.
         23    2    4    4    0    0  0.31472093165E+02 -0.15589230261E+03  0.24803010796E+02  0.18542294098E+03  0.92052023533E+02 0.  0.
         23    2    4    4    0    0  0.39486000400E+03 -0.35814596892E+03 -0.10228180608E+04  0.11569676751E+04  0.90743914192E+02 0.  0.
          1    1    3    3  502    0  0.35362043313E+01  0.13262627986E+02  0.93651771621E+01  0.16616515443E+02  0.00000000000E+00 0. -1.
         -1    1    3    3    0  502 -0.42986830150E+03  0.50077564354E+03  0.28141473345E+03  0.71746585564E+03  0.00000000000E+00 0.  1.
         15    1    5    5    0    0 -0.14390106092E+02 -0.12666836075E+03  0.52435227217E+01  0.12760329552E+03  0.17770000000E+01 0.  1.
        -15    1    5    5    0    0  0.45862199257E+02 -0.29223941861E+02  0.19559488074E+02  0.57819645461E+02  0.17770000000E+01 0. -1.
          1    1    6    6  503    0  0.25523219651E+03 -0.17633095455E+03 -0.54827246526E+03  0.62995140752E+03  0.00000000000E+00 0. -1.
         -1    1    6    6    0  503  0.13962780749E+03 -0.18181501437E+03 -0.47454559550E+03  0.52701626757E+03  0.00000000000E+00 0.  1.
<mgrwt>
<rscale>  0 0.69753363E+03</rscale>
<asrwt>0</asrwt>
<pdfrwt beam="1">  1        2 0.10532599E+00 0.69753363E+03</pdfrwt>
<pdfrwt beam="2">  1       -2 0.21413139E+00 0.69753363E+03</pdfrwt>
<totfact> 0.46783577E+00</totfact>
</mgrwt>
</event>
<event>
12    1  0.8033771E-008  0.9034043E+03  0.7818608E-02  0.9421336E-01
          2   -1    0    0  501    0  0.00000000000E+00  0.00000000000E+00  0.11621481504E+04  0.11621481504E+04  0.00000000000E+00 0. -1.
         -2   -1    0    0    0  501 -0.00000000000E+00 -0.00000000000E+00 -0.10753479988E+04  0.10753479988E+04  0.00000000000E+00 0.  1.
         23    2    1    2    0    0  0.48664003830E+03 -0.64449811193E+03  0.68849764140E+03  0.10651917761E+04  0.91696098949E+02 0.  0.
    5000000    2    1    2    0    0 -0.48664003830E+03  0.64449811193E+03 -0.60169748988E+03  0.11723043731E+04  0.60005110665E+03 0.  0.
         23    2    4    4    0    0 -0.46650396974E+03  0.73278692635E+03 -0.49193819493E+03  0.10023973092E+04  0.90523724191E+02 0.  0.
         23    2    4    4    0    0 -0.20136068561E+02 -0.88288814424E+02 -0.10975929495E+03  0.16990706386E+03  0.92848971510E+02 0.  0.
          4    1    3    3  502    0  0.41332999254E+03 -0.56980237156E+03  0.56029065925E+03  0.89968997339E+03  0.00000000000E+00 0. -1.
         -4    1    3    3    0  502  0.73310045760E+02 -0.74695740366E+02  0.12820698216E+03  0.16550180274E+03  0.00000000000E+00 0.  1.
         15    1    5    5    0    0 -0.10824219698E+03  0.24485438707E+03 -0.16357240424E+03  0.31373417607E+03  0.17770000000E+01 0. -1.
        -15    1    5    5    0    0 -0.35826177276E+03  0.48793253929E+03 -0.32836579069E+03  0.68866313313E+03  0.17770000000E+01 0.  1.
          2    1    6    6  503    0 -0.53565862033E+02 -0.65922023841E+02 -0.94040148755E+02  0.12672239100E+03  0.00000000000E+00 0. -1.
         -2    1    6    6    0  503  0.33429793472E+02 -0.22366790583E+02 -0.15719146196E+02  0.43184672857E+02  0.00000000000E+00 0.  1.
<mgrwt>
<rscale>  0 0.90340432E+03</rscale>
<asrwt>0</asrwt>
<pdfrwt beam="1">  1        2 0.17879202E+00 0.90340432E+03</pdfrwt>
<pdfrwt beam="2">  1       -2 0.16543815E+00 0.90340432E+03</pdfrwt>
<totfact> 0.45964389E+00</totfact>
</mgrwt>
</event>
<event>
12    1  0.8033771E-008  0.5390818E+03  0.7818608E-02  0.1004053E+00
          1   -1    0    0  501    0  0.00000000000E+00  0.00000000000E+00  0.60704541721E+03  0.60704541721E+03  0.00000000000E+00 0. -1.
         -1   -1    0    0    0  501 -0.00000000000E+00 -0.00000000000E+00 -0.52601035534E+03  0.52601035534E+03  0.00000000000E+00 0.  1.
         23    2    1    2    0    0  0.37745586337E+03 -0.48225898589E+02 -0.90104025422E+02  0.40176309706E+03  0.92174750754E+02 0.  0.
    5000000    2    1    2    0    0 -0.37745586337E+03  0.48225898589E+02  0.17113908729E+03  0.73129267549E+03  0.60058448526E+03 0.  0.
         23    2    4    4    0    0 -0.48909638158E+03 -0.91640134358E+02  0.94569428822E+02  0.51460689257E+03  0.90904853058E+02 0.  0.
         23    2    4    4    0    0  0.11164051821E+03  0.13986603295E+03  0.76569658468E+02  0.21668578292E+03  0.95203484403E+02 0.  0.
          4    1    3    3  502    0  0.17157693512E+03  0.16326706389E+01 -0.80986087880E+02  0.18973680905E+03  0.00000000000E+00 0. -1.
         -4    1    3    3    0  502  0.20587892825E+03 -0.49858569228E+02 -0.91179375414E+01  0.21202628801E+03  0.00000000000E+00 0.  1.
         15    1    5    5    0    0 -0.25892024827E+03 -0.35199453636E+02  0.53337077158E+01  0.26136239719E+03  0.17770000000E+01 0. -1.
        -15    1    5    5    0    0 -0.23017613332E+03 -0.56440680722E+02  0.89235721106E+02  0.25324449538E+03  0.17770000000E+01 0.  1.
          2    1    6    6  503    0  0.34922822435E+02 -0.21896062881E+01 -0.57526824323E+01  0.35461123187E+02  0.00000000000E+00 0.  1.
         -2    1    6    6    0  503  0.76717695776E+02  0.14205563923E+03  0.82322340900E+02  0.18122465973E+03  0.00000000000E+00 0. -1.
<mgrwt>
<rscale>  0 0.53908184E+03</rscale>
<asrwt>0</asrwt>
<pdfrwt beam="1">  1        1 0.93391603E-01 0.53908184E+03</pdfrwt>
<pdfrwt beam="2">  1       -1 0.80924670E-01 0.53908184E+03</pdfrwt>
<totfact> 0.53489966E+01</totfact>
</mgrwt>
</event>
<event>
12    1  0.8033771E-008  0.3459144E+03  0.7818608E-02  0.1064305E+00
          1   -1    0    0  501    0  0.00000000000E+00  0.00000000000E+00  0.52273337274E+03  0.52273337274E+03  0.00000000000E+00 0. -1.
         -1   -1    0    0    0  501 -0.00000000000E+00 -0.00000000000E+00 -0.49158519813E+03  0.49158519813E+03  0.00000000000E+00 0.  1.
         23    2    1    2    0    0 -0.28466074980E+03 -0.13867716975E+03  0.69184558517E+02  0.33530787821E+03  0.85917228571E+02 0.  0.
    5000000    2    1    2    0    0  0.28466074980E+03  0.13867716975E+03 -0.38036383913E+02  0.67901069266E+03  0.59945446396E+03 0.  0.
         23    2    4    4    0    0  0.72418442601E+02  0.83575567514E+02 -0.29534393954E+03  0.32867484570E+03  0.92573242667E+02 0.  0.
         23    2    4    4    0    0  0.21224230720E+03  0.55101602232E+02  0.25730755563E+03  0.35033584696E+03  0.91896920210E+02 0.  0.
          1    1    3    3  502    0 -0.11470507445E+03 -0.97532190541E+02  0.53308541053E+02  0.15972345740E+03  0.00000000000E+00 0. -1.
         -1    1    3    3    0  502 -0.16995567536E+03 -0.41144979205E+02  0.15876017464E+02  0.17558442081E+03  0.00000000000E+00 0.  1.
         15    1    5    5    0    0  0.39477689184E+02 -0.95737432936E+01 -0.12831675521E+03  0.13460494753E+03  0.17770000000E+01 0.  1.
        -15    1    5    5    0    0  0.32940753416E+02  0.93149310808E+02 -0.16702718434E+03  0.19406989817E+03  0.17770000000E+01 0. -1.
          1    1    6    6  503    0  0.18802394622E+03  0.67423047174E+02  0.18181835152E+03  0.27010513618E+03  0.00000000000E+00 0. -1.
         -1    1    6    6    0  503  0.24218360979E+02 -0.12321444942E+02  0.75489204112E+02  0.80230710775E+02  0.00000000000E+00 0.  1.
<mgrwt>
<rscale>  0 0.34591435E+03</rscale>
<asrwt>0</asrwt>
<pdfrwt beam="1">  1        1 0.80420519E-01 0.34591435E+03</pdfrwt>
<pdfrwt beam="2">  1       -1 0.75628492E-01 0.34591435E+03</pdfrwt>
<totfact> 0.77908556E+01</totfact>
</mgrwt>
</event>
<event>
12    1  0.8033771E-008  0.1155342E+04  0.7818608E-02  0.9152869E-01
          2   -1    0    0  501    0  0.00000000000E+00  0.00000000000E+00  0.30510104949E+04  0.30510104949E+04  0.00000000000E+00 0. -1.
         -2   -1    0    0    0  501 -0.00000000000E+00 -0.00000000000E+00 -0.46899368863E+03  0.46899368863E+03  0.00000000000E+00 0.  1.
         23    2    1    2    0    0 -0.92644456716E+03 -0.60596579015E+03  0.97122696290E+03  0.14754825517E+04  0.90955329504E+02 0.  0.
    5000000    2    1    2    0    0  0.92644456716E+03  0.60596579015E+03  0.16107898434E+04  0.20445216319E+04  0.59994225459E+03 0.  0.
         23    2    4    4    0    0  0.88959599072E+03  0.65077209269E+03  0.15827791761E+04  0.19309639105E+04  0.92446524304E+02 0.  0.
         23    2    4    4    0    0  0.36848576438E+02 -0.44806302537E+02  0.28010667262E+02  0.11355772141E+03  0.93516502710E+02 0.  0.
          3    1    3    3  502    0 -0.77036341878E+03 -0.48285073855E+03  0.83550989665E+03  0.12347799076E+04  0.00000000000E+00 0. -1.
         -3    1    3    3    0  502 -0.15608114837E+03 -0.12311505161E+03  0.13571706626E+03  0.24070264411E+03  0.00000000000E+00 0.  1.
         15    1    5    5    0    0  0.59912722096E+03  0.38365252311E+03  0.10118217698E+04  0.12369030427E+04  0.17770000000E+01 0.  1.
        -15    1    5    5    0    0  0.29046876975E+03  0.26711956959E+03  0.57095740635E+03  0.69406086783E+03  0.17770000000E+01 0. -1.
          2    1    6    6  503    0 -0.81668006913E+01 -0.50607293084E+02  0.41775712234E+02  0.66128699363E+02  0.00000000000E+00 0. -1.
         -2    1    6    6    0  503  0.45015377129E+02  0.58009905462E+01 -0.13765044972E+02  0.47429022048E+02  0.00000000000E+00 0.  1.
<mgrwt>
<rscale>  0 0.11553420E+04</rscale>
<asrwt>0</asrwt>
<pdfrwt beam="1">  1        2 0.46938622E+00 0.11553420E+04</pdfrwt>
<pdfrwt beam="2">  1       -2 0.72152877E-01 0.11553420E+04</pdfrwt>
<totfact> 0.28159933E+00</totfact>
</mgrwt>
</event>
<event>
12    1  0.8033771E-008  0.1304851E+04  0.7818608E-02  0.9025727E-01
          2   -1    0    0  501    0  0.00000000000E+00  0.00000000000E+00  0.19629835074E+04  0.19629835074E+04  0.00000000000E+00 0.  1.
         -2   -1    0    0    0  501 -0.00000000000E+00 -0.00000000000E+00 -0.10485172585E+04  0.10485172585E+04  0.00000000000E+00 0. -1.
         23    2    1    2    0    0  0.12459196003E+04 -0.64271685279E+02 -0.15763209758E+03  0.12606745078E+04  0.89475340125E+02 0.  0.
    5000000    2    1    2    0    0 -0.12459196003E+04  0.64271685279E+02  0.10720983465E+04  0.17508262580E+04  0.59962590107E+03 0.  0.
         23    2    4    4    0    0 -0.53289565359E+03  0.29332402581E+03  0.35429100454E+03  0.70946869949E+03  0.88356991414E+02 0.  0.
         23    2    4    4    0    0 -0.71302394675E+03 -0.22905234053E+03  0.71780734195E+03  0.10413575585E+04  0.91159537251E+02 0.  0.
          1    1    3    3  502    0  0.16973023027E+03 -0.38101298222E+01 -0.52338362227E+02  0.17765745781E+03  0.00000000000E+00 0. -1.
         -1    1    3    3    0  502  0.10761893701E+04 -0.60461555457E+02 -0.10529373536E+03  0.10830170500E+04  0.00000000000E+00 0.  1.
         15    1    5    5    0    0 -0.18815583848E+03  0.92276246368E+02  0.75966565978E+02  0.22291613237E+03  0.17770000000E+01 0. -1.
        -15    1    5    5    0    0 -0.34473981512E+03  0.20104777944E+03  0.27832443856E+03  0.48655256712E+03  0.17770000000E+01 0.  1.
          3    1    6    6  503    0 -0.20775482471E+03 -0.10651455206E+03  0.24828958926E+03  0.34081540037E+03  0.00000000000E+00 0. -1.
         -3    1    6    6    0  503 -0.50526912204E+03 -0.12253778847E+03  0.46951775269E+03  0.70054215818E+03  0.00000000000E+00 0.  1.
<mgrwt>
<rscale>  0 0.13048506E+04</rscale>
<asrwt>0</asrwt>
<pdfrwt beam="1">  1        2 0.30199746E+00 0.13048506E+04</pdfrwt>
<pdfrwt beam="2">  1       -2 0.16131035E+00 0.13048506E+04</pdfrwt>
<totfact> 0.16589527E+00</totfact>
</mgrwt>
</event>
<event>
12    1  0.8033771E-008  0.6996150E+03  0.7818608E-02  0.9717891E-01
          2   -1    0    0  501    0  0.00000000000E+00  0.00000000000E+00  0.11173530009E+04  0.11173530009E+04  0.00000000000E+00 0.  1.
         -2   -1    0    0    0  501 -0.00000000000E+00 -0.00000000000E+00 -0.47263328616E+03  0.47263328616E+03  0.00000000000E+00 0. -1.
         23    2    1    2    0    0  0.41093676401E+03  0.40194488666E+03  0.81063711438E+02  0.58601441542E+03  0.80080296183E+02 0.  0.
    5000000    2    1    2    0    0 -0.41093676401E+03 -0.40194488666E+03  0.56365600332E+03  0.10039718717E+04  0.59985224269E+03 0.  0.
         23    2    4    4    0    0 -0.10647688173E+03  0.14410060783E+03  0.14833947543E+03  0.24816511984E+03  0.86481299804E+02 0.  0.
         23    2    4    4    0    0 -0.30445988228E+03 -0.54604549449E+03  0.41531652789E+03  0.75580675181E+03  0.88851143848E+02 0.  0.
          1    1    3    3  502    0  0.36591541513E+03  0.35485892770E+03  0.97177637034E+02  0.51890504212E+03  0.00000000000E+00 0. -1.
         -1    1    3    3    0  502  0.45021348881E+02  0.47085958959E+02 -0.16113925596E+02  0.67109373296E+02  0.00000000000E+00 0.  1.
         15    1    5    5    0    0 -0.16059480225E+02  0.93355668171E+02  0.61988454312E+02  0.11322064247E+03  0.17770000000E+01 0.  1.
        -15    1    5    5    0    0 -0.90417401507E+02  0.50744939664E+02  0.86351021113E+02  0.13494447737E+03  0.17770000000E+01 0. -1.
          1    1    6    6  503    0 -0.38868570078E+02 -0.50965259151E+02  0.14642421352E+02  0.65746664427E+02  0.00000000000E+00 0. -1.
         -1    1    6    6    0  503 -0.26559131220E+03 -0.49508023534E+03  0.40067410654E+03  0.69006008738E+03  0.00000000000E+00 0.  1.
<mgrwt>
<rscale>  0 0.69961495E+03</rscale>
<asrwt>0</asrwt>
<pdfrwt beam="1">  1        2 0.17190046E+00 0.69961495E+03</pdfrwt>
<pdfrwt beam="2">  1       -2 0.72712813E-01 0.69961495E+03</pdfrwt>
<totfact> 0.37165390E+01</totfact>
</mgrwt>
</event>
<event>
12    1  0.8033771E-008  0.4025918E+03  0.7818608E-02  0.1042886E+00
         -1   -1    0    0    0  501 -0.00000000000E+00  0.00000000000E+00  0.35015924735E+03  0.35015924735E+03  0.00000000000E+00 0.  1.
          1   -1    0    0  501    0  0.00000000000E+00 -0.00000000000E+00 -0.72718513614E+03  0.72718513614E+03  0.00000000000E+00 0. -1.
         23    2    1    2    0    0  0.17379326858E+03 -0.43138999943E+02  0.15682009692E+03  0.25469260651E+03  0.90612954338E+02 0.  0.
    5000000    2    1    2    0    0 -0.17379326858E+03  0.43138999943E+02 -0.53384598571E+03  0.82265177699E+03  0.59974939450E+03 0.  0.
         23    2    4    4    0    0 -0.38811595986E+02 -0.26076873553E+03 -0.28177997744E+03  0.39573694599E+03  0.87755919008E+02 0.  0.
         23    2    4    4    0    0 -0.13498167259E+03  0.30390773547E+03 -0.25206600827E+03  0.42691483100E+03  0.90216610378E+02 0.  0.
          4    1    3    3  502    0  0.74781510213E+02  0.15439892345E+02  0.26423057755E+02  0.80801253248E+02  0.00000000000E+00 0. -1.
         -4    1    3    3    0  502  0.99011758363E+02 -0.58578892288E+02  0.13039703916E+03  0.17389135326E+03  0.00000000000E+00 0.  1.
         15    1    5    5    0    0 -0.28271823831E+01 -0.23116394474E+03 -0.23707169363E+03  0.33113578477E+03  0.17770000000E+01 0.  1.
        -15    1    5    5    0    0 -0.35984413602E+02 -0.29604790790E+02 -0.44708283807E+02  0.64601161213E+02  0.17770000000E+01 0. -1.
          1    1    6    6  503    0 -0.80368352302E+02  0.12248279628E+03 -0.63701305991E+02  0.15974656122E+03  0.00000000000E+00 0. -1.
         -1    1    6    6    0  503 -0.54613320288E+02  0.18142493920E+03 -0.18836470228E+03  0.26716826978E+03  0.00000000000E+00 0.  1.
<mgrwt>
<rscale>  0 0.40259181E+03</rscale>
<asrwt>0</asrwt>
<pdfrwt beam="1">  1        1 0.11187464E+00 0.40259181E+03</pdfrwt>
<pdfrwt beam="2">  1       -1 0.53870653E-01 0.40259181E+03</pdfrwt>
<totfact> 0.94335525E+01</totfact>
</mgrwt>
</event>
<event>
12    1  0.8033771E-008  0.5867697E+03  0.7818608E-02  0.9933241E-01
          2   -1    0    0  501    0  0.00000000000E+00  0.00000000000E+00  0.82297832939E+03  0.82297832939E+03  0.00000000000E+00 0. -1.
         -2   -1    0    0    0  501 -0.00000000000E+00 -0.00000000000E+00 -0.79160429456E+03  0.79160429456E+03  0.00000000000E+00 0.  1.
         23    2    1    2    0    0  0.39052773955E+03  0.19867489755E+03 -0.52253594442E+03  0.68814842474E+03  0.92308238977E+02 0.  0.
    5000000    2    1    2    0    0 -0.39052773955E+03 -0.19867489755E+03  0.55390997925E+03  0.92643419921E+03  0.59956686873E+03 0.  0.
         23    2    4    4    0    0 -0.15793858094E+03  0.19671920429E+03  0.26845904052E+03  0.37942919953E+03  0.90847236229E+02 0.  0.
         23    2    4    4    0    0 -0.23258915861E+03 -0.39539410184E+03  0.28545093873E+03  0.54700499968E+03  0.85428442464E+02 0.  0.
          4    1    3    3  502    0  0.33502211437E+03  0.19245941385E+03 -0.48817944812E+03  0.62257498878E+03  0.00000000000E+00 0. -1.
         -4    1    3    3    0  502  0.55505625184E+02  0.62154837050E+01 -0.34356496299E+02  0.65573435954E+02  0.00000000000E+00 0.  1.
         15    1    5    5    0    0 -0.15854196043E+03  0.14950180931E+03  0.19704380480E+03  0.29379544405E+03  0.17770000000E+01 0. -1.
        -15    1    5    5    0    0  0.60337948899E+00  0.47217394984E+02  0.71415235721E+02  0.85633755482E+02  0.17770000000E+01 0.  1.
          4    1    6    6  503    0 -0.20430171811E+03 -0.27567017298E+03  0.22085647792E+03  0.40805737358E+03  0.00000000000E+00 0. -1.
         -4    1    6    6    0  503 -0.28287440499E+02 -0.11972392887E+03  0.64594460812E+02  0.13894762611E+03  0.00000000000E+00 0.  1.
<mgrwt>
<rscale>  0 0.58676972E+03</rscale>
<asrwt>0</asrwt>
<pdfrwt beam="1">  1        2 0.12661205E+00 0.58676972E+03</pdfrwt>
<pdfrwt beam="2">  1       -2 0.12178528E+00 0.58676972E+03</pdfrwt>
<totfact> 0.17551819E+01</totfact>
</mgrwt>
</event>
<event>
12    1  0.8033771E-008  0.2006147E+04  0.7818608E-02  0.8603752E-01
         -1   -1    0    0    0  501 -0.00000000000E+00  0.00000000000E+00  0.11149604614E+04  0.11149604614E+04  0.00000000000E+00 0.  1.
          1   -1    0    0  501    0  0.00000000000E+00 -0.00000000000E+00 -0.36909743266E+04  0.36909743266E+04  0.00000000000E+00 0. -1.
         23    2    1    2    0    0  0.19673085405E+04 -0.15033897287E+03 -0.14956788210E+04  0.24777869133E+04  0.97304428066E+02 0.  0.
    5000000    2    1    2    0    0 -0.19673085405E+04  0.15033897287E+03 -0.10803350442E+04  0.23281478747E+04  0.60020331424E+03 0.  0.
         23    2    4    4    0    0 -0.87733497243E+03 -0.18076525430E+03 -0.63433920890E+03  0.11014512659E+04  0.91738368047E+02 0.  0.
         23    2    4    4    0    0 -0.10899735681E+04  0.33110422716E+03 -0.44599583531E+03  0.12266966088E+04  0.90553280501E+02 0.  0.
          3    1    3    3  502    0  0.17268173850E+04 -0.14119805052E+03 -0.12737142355E+04  0.21503913887E+04  0.00000000000E+00 0. -1.
         -3    1    3    3    0  502  0.24049115548E+03 -0.91409223432E+01 -0.22196458551E+03  0.32739552463E+03  0.00000000000E+00 0.  1.
         15    1    5    5    0    0 -0.64192824172E+03 -0.97290578086E+02 -0.43002528535E+03  0.77875684772E+03  0.17770000000E+01 0. -1.
        -15    1    5    5    0    0 -0.23540673071E+03 -0.83474676210E+02 -0.20431392355E+03  0.32269441817E+03  0.17770000000E+01 0.  1.
          3    1    6    6  503    0 -0.99343030303E+03  0.28839560826E+03 -0.37912446725E+03  0.11017309815E+04  0.00000000000E+00 0. -1.
         -3    1    6    6    0  503 -0.96543265073E+02  0.42708618900E+02 -0.66871368057E+02  0.12496562737E+03  0.00000000000E+00 0.  1.
<mgrwt>
<rscale>  0 0.20061473E+04</rscale>
<asrwt>0</asrwt>
<pdfrwt beam="1">  1        1 0.56784220E+00 0.20061473E+04</pdfrwt>
<pdfrwt beam="2">  1       -1 0.17153238E+00 0.20061473E+04</pdfrwt>
<totfact> 0.37807359E-02</totfact>
</mgrwt>
</event>
<event>
12    1  0.8033771E-008  0.7866281E+03  0.7818608E-02  0.9579577E-01
         -2   -1    0    0    0  501 -0.00000000000E+00  0.00000000000E+00  0.17302067723E+03  0.17302067723E+03  0.00000000000E+00 0. -1.
          2   -1    0    0  501    0  0.00000000000E+00 -0.00000000000E+00 -0.38711406242E+04  0.38711406242E+04  0.00000000000E+00 0.  1.
         23    2    1    2    0    0  0.63158533165E+03 -0.26509459851E+03 -0.20181123644E+04  0.21332854220E+04  0.94625573682E+02 0.  0.
    5000000    2    1    2    0    0 -0.63158533165E+03  0.26509459851E+03 -0.16800075826E+04  0.19108758794E+04  0.59987162931E+03 0.  0.
         23    2    4    4    0    0 -0.50256461037E+03 -0.72885631338E+02 -0.76767333683E+03  0.92498576895E+03  0.91612323549E+02 0.  0.
         23    2    4    4    0    0 -0.12902072128E+03  0.33798022985E+03 -0.91233424572E+03  0.98589011043E+03  0.93533692569E+02 0.  0.
          1    1    3    3  502    0  0.18044074742E+03 -0.35112369356E+02 -0.59616294555E+03  0.62386056091E+03  0.00000000000E+00 0. -1.
         -1    1    3    3    0  502  0.45114458423E+03 -0.22998222915E+03 -0.14219494188E+04  0.15094248611E+04  0.00000000000E+00 0.  1.
         15    1    5    5    0    0 -0.24428154956E+03 -0.57175548772E+02 -0.45044985693E+03  0.51560716652E+03  0.17770000000E+01 0. -1.
        -15    1    5    5    0    0 -0.25828306081E+03 -0.15710082566E+02 -0.31722347991E+03  0.40937860243E+03  0.17770000000E+01 0.  1.
          1    1    6    6  503    0 -0.14246136588E+03  0.28353898279E+03 -0.78832258365E+03  0.84978943946E+03  0.00000000000E+00 0. -1.
         -1    1    6    6    0  503  0.13440644604E+02  0.54441247056E+02 -0.12401166207E+03  0.13610067096E+03  0.00000000000E+00 0.  1.
<mgrwt>
<rscale>  0 0.78662809E+03</rscale>
<asrwt>0</asrwt>
<pdfrwt beam="1">  1        2 0.59556007E+00 0.78662809E+03</pdfrwt>
<pdfrwt beam="2">  1       -2 0.26618567E-01 0.78662809E+03</pdfrwt>
<totfact> 0.60309176E+00</totfact>
</mgrwt>
</event>
<event>
12    1  0.8033771E-008  0.7466977E+03  0.7818608E-02  0.9640545E-01
          1   -1    0    0  501    0  0.00000000000E+00  0.00000000000E+00  0.10733774536E+04  0.10733774536E+04  0.00000000000E+00 0. -1.
         -1   -1    0    0    0  501 -0.00000000000E+00 -0.00000000000E+00 -0.76273046048E+03  0.76273046048E+03  0.00000000000E+00 0.  1.
         23    2    1    2    0    0  0.57340999136E+03 -0.34526514141E+03 -0.31104216992E+03  0.74296668568E+03  0.85118907994E+02 0.  0.
    5000000    2    1    2    0    0 -0.57340999136E+03  0.34526514141E+03  0.62168916308E+03  0.10931412284E+04  0.60037762597E+03 0.  0.
         23    2    4    4    0    0 -0.65921476228E+03  0.31179894357E+03  0.40005610850E+03  0.83685049549E+03  0.92147587271E+02 0.  0.
         23    2    4    4    0    0  0.85804770917E+02  0.33466197845E+02  0.22163305458E+03  0.25629073295E+03  0.89895961008E+02 0.  0.
          1    1    3    3  502    0  0.36450981646E+02 -0.34915941123E+02 -0.46774637202E+02  0.68816158660E+02  0.00000000000E+00 0. -1.
         -1    1    3    3    0  502  0.53695900972E+03 -0.31034920029E+03 -0.26426753272E+03  0.67415052702E+03  0.00000000000E+00 0.  1.
         15    1    5    5    0    0 -0.33112849970E+03  0.13584157409E+03  0.24398520650E+03  0.43316388964E+03  0.17770000000E+01 0.  1.
        -15    1    5    5    0    0 -0.32808626258E+03  0.17595736948E+03  0.15607090200E+03  0.40368660586E+03  0.17770000000E+01 0. -1.
          1    1    6    6  503    0  0.51714422591E+02  0.15542646005E+02  0.31964101801E+02  0.62750770137E+02  0.00000000000E+00 0. -1.
         -1    1    6    6    0  503  0.34090348326E+02  0.17923551841E+02  0.18966895277E+03  0.19353996281E+03  0.00000000000E+00 0.  1.
<mgrwt>
<rscale>  0 0.74669767E+03</rscale>
<asrwt>0</asrwt>
<pdfrwt beam="1">  1        1 0.16513499E+00 0.74669767E+03</pdfrwt>
<pdfrwt beam="2">  1       -1 0.11734315E+00 0.74669767E+03</pdfrwt>
<totfact> 0.89815791E+00</totfact>
</mgrwt>
</event>
<event>
12    1  0.8033771E-008  0.1247262E+04  0.7818608E-02  0.9072465E-01
          2   -1    0    0  501    0  0.00000000000E+00  0.00000000000E+00  0.23337615158E+04  0.23337615158E+04  0.00000000000E+00 0. -1.
         -2   -1    0    0    0  501 -0.00000000000E+00 -0.00000000000E+00 -0.73148139596E+03  0.73148139596E+03  0.00000000000E+00 0.  1.
         23    2    1    2    0    0 -0.84782746343E+03 -0.88876467995E+03  0.91869975323E+03  0.15366839575E+04  0.93135838603E+02 0.  0.
    5000000    2    1    2    0    0  0.84782746343E+03  0.88876467995E+03  0.68358036657E+03  0.15285589543E+04  0.60041343673E+03 0.  0.
         23    2    4    4    0    0  0.52574612256E+03  0.73855074130E+03  0.71648578363E+03  0.11589532439E+04  0.89188342888E+02 0.  0.
         23    2    4    4    0    0  0.32208134088E+03  0.15021393866E+03 -0.32905417061E+02  0.36960571038E+03  0.96046848802E+02 0.  0.
          1    1    3    3  502    0 -0.41555604202E+03 -0.43079563398E+03  0.38982330373E+03  0.71430659416E+03  0.00000000000E+00 0. -1.
         -1    1    3    3    0  502 -0.43227142141E+03 -0.45796904597E+03  0.52887644950E+03  0.82237736330E+03  0.00000000000E+00 0.  1.
         15    1    5    5    0    0  0.71917020046E+02  0.56178536342E+02  0.78424942440E+02  0.12033999769E+03  0.17770000000E+01 0. -1.
        -15    1    5    5    0    0  0.45382910251E+03  0.68237220495E+03  0.63806084119E+03  0.10386132462E+04  0.17770000000E+01 0.  1.
          4    1    6    6  503    0  0.21330741365E+03  0.96837646773E+02  0.24487059685E+02  0.23553598163E+03  0.00000000000E+00 0. -1.
         -4    1    6    6    0  503  0.10877392723E+03  0.53376291885E+02 -0.57392476746E+02  0.13406972875E+03  0.00000000000E+00 0.  1.
<mgrwt>
<rscale>  0 0.12472622E+04</rscale>
<asrwt>0</asrwt>
<pdfrwt beam="1">  1        2 0.35904023E+00 0.12472622E+04</pdfrwt>
<pdfrwt beam="2">  1       -2 0.11253560E+00 0.12472622E+04</pdfrwt>
<totfact> 0.26282278E+00</totfact>
</mgrwt>
</event>
<event>
12    1  0.8033771E-008  0.1204746E+04  0.7818608E-02  0.9108712E-01
          2   -1    0    0  501    0  0.00000000000E+00  0.00000000000E+00  0.86859277597E+03  0.86859277597E+03  0.00000000000E+00 0. -1.
         -2   -1    0    0    0  501 -0.00000000000E+00 -0.00000000000E+00 -0.17298247735E+04  0.17298247735E+04  0.00000000000E+00 0.  1.
         23    2    1    2    0    0  0.99222011684E+03  0.57147681149E+03 -0.28897641714E+03  0.11846804104E+04  0.94200842388E+02 0.  0.
    5000000    2    1    2    0    0 -0.99222011684E+03 -0.57147681149E+03 -0.57225558035E+03  0.14137371391E+04  0.60007478096E+03 0.  0.
         23    2    4    4    0    0 -0.45471299249E+03  0.13733933673E+02 -0.67873420545E+02  0.46805141873E+03  0.86676426387E+02 0.  0.
         23    2    4    4    0    0 -0.53750712436E+03 -0.58521074517E+03 -0.50438215980E+03  0.94568572032E+03  0.92382863628E+02 0.  0.
          3    1    3    3  502    0  0.53951150307E+03  0.36434996570E+03 -0.16839641710E+03  0.67244398484E+03  0.00000000000E+00 0. -1.
         -3    1    3    3    0  502  0.45270861377E+03  0.20712684579E+03 -0.12058000004E+03  0.51223642553E+03  0.00000000000E+00 0.  1.
         15    1    5    5    0    0 -0.99681073225E+02 -0.30919570086E+02 -0.32679247290E+01  0.10443262534E+03  0.17770000000E+01 0.  1.
        -15    1    5    5    0    0 -0.35503191926E+03  0.44653503759E+02 -0.64605495816E+02  0.36361879340E+03  0.17770000000E+01 0. -1.
          1    1    6    6  503    0 -0.28563440300E+03 -0.36783415853E+03 -0.32288467339E+03  0.56669523791E+03  0.00000000000E+00 0. -1.
         -1    1    6    6    0  503 -0.25187272136E+03 -0.21737658663E+03 -0.18149748642E+03  0.37899048241E+03  0.00000000000E+00 0.  1.
<mgrwt>
<rscale>  0 0.12047462E+04</rscale>
<asrwt>0</asrwt>
<pdfrwt beam="1">  1        2 0.13362966E+00 0.12047462E+04</pdfrwt>
<pdfrwt beam="2">  1       -2 0.26612689E+00 0.12047462E+04</pdfrwt>
<totfact> 0.15395137E+00</totfact>
</mgrwt>
</event>
<event>
12    1  0.8033771E-008  0.1846991E+04  0.7818608E-02  0.8681702E-01
          2   -1    0    0  501    0  0.00000000000E+00  0.00000000000E+00  0.49496350452E+04  0.49496350452E+04  0.00000000000E+00 0. -1.
         -2   -1    0    0    0  501 -0.00000000000E+00 -0.00000000000E+00 -0.14290843822E+04  0.14290843822E+04  0.00000000000E+00 0.  1.
         23    2    1    2    0    0 -0.13846594946E+04 -0.11934165582E+04 -0.52056163173E+03  0.19029687691E+04  0.93705528573E+02 0.  0.
    5000000    2    1    2    0    0  0.13846594946E+04  0.11934165582E+04  0.40411122947E+04  0.44757506583E+04  0.60019195252E+03 0.  0.
         23    2    4    4    0    0  0.10269813172E+04  0.10626781945E+04  0.27055288670E+04  0.30839780783E+04  0.84016465660E+02 0.  0.
         23    2    4    4    0    0  0.35767817746E+03  0.13073836371E+03  0.13355834277E+04  0.13917725800E+04  0.90673170271E+02 0.  0.
          3    1    3    3  502    0 -0.64192195917E+03 -0.59092115599E+03 -0.28694023969E+03  0.91846955062E+03  0.00000000000E+00 0. -1.
         -3    1    3    3    0  502 -0.74273753548E+03 -0.60249540221E+03 -0.23362139204E+03  0.98449921844E+03  0.00000000000E+00 0.  1.
         15    1    5    5    0    0  0.64324804058E+03  0.69764042720E+03  0.16656794849E+04  0.19170189127E+04  0.17770000000E+01 0. -1.
        -15    1    5    5    0    0  0.38373327660E+03  0.36503776728E+03  0.10398493821E+04  0.11669591656E+04  0.17770000000E+01 0.  1.
          1    1    6    6  503    0  0.21456433161E+03  0.11251462688E+03  0.93939411346E+03  0.97013333829E+03  0.00000000000E+00 0. -1.
         -1    1    6    6    0  503  0.14311384585E+03  0.18223736832E+02  0.39618931424E+03  0.42163924174E+03  0.00000000000E+00 0.  1.
<mgrwt>
<rscale>  0 0.18469913E+04</rscale>
<asrwt>0</asrwt>
<pdfrwt beam="1">  1        2 0.76148231E+00 0.18469913E+04</pdfrwt>
<pdfrwt beam="2">  1       -2 0.21985914E+00 0.18469913E+04</pdfrwt>
<totfact> 0.36246298E-03</totfact>
</mgrwt>
</event>
<event>
12    1  0.8033771E-008  0.1138862E+04  0.7818608E-02  0.9168121E-01
          2   -1    0    0  501    0  0.00000000000E+00  0.00000000000E+00  0.13835513592E+04  0.13835513592E+04  0.00000000000E+00 0. -1.
         -2   -1    0    0    0  501 -0.00000000000E+00 -0.00000000000E+00 -0.11092667624E+04  0.11092667624E+04  0.00000000000E+00 0.  1.
         23    2    1    2    0    0 -0.70823919820E+02  0.11206276977E+04 -0.17962545452E+03  0.11408791535E+04  0.92290164644E+02 0.  0.
    5000000    2    1    2    0    0  0.70823919820E+02 -0.11206276977E+04  0.45391005133E+03  0.13519389681E+04  0.60073469539E+03 0.  0.
         23    2    4    4    0    0 -0.62581900516E+02 -0.79227992560E+03  0.55123856096E+03  0.97144161468E+03  0.90613932996E+02 0.  0.
         23    2    4    4    0    0  0.13340582034E+03 -0.32834777212E+03 -0.97328509631E+02  0.38049735342E+03  0.98468395013E+02 0.  0.
          3    1    3    3  502    0 -0.50860872822E+02  0.97196500431E+03 -0.12520470738E+03  0.98131494268E+03  0.00000000000E+00 0. -1.
         -3    1    3    3    0  502 -0.19963046997E+02  0.14866269341E+03 -0.54420747140E+02  0.15956421083E+03  0.00000000000E+00 0.  1.
         15    1    5    5    0    0 -0.85298860138E+02 -0.55696391204E+03  0.39140082353E+03  0.68606301259E+03  0.17770000000E+01 0.  1.
        -15    1    5    5    0    0  0.22716959622E+02 -0.23531601357E+03  0.15983773744E+03  0.28537860209E+03  0.17770000000E+01 0. -1.
          3    1    6    6  503    0  0.94266483313E+02 -0.24370364653E+03 -0.11516269598E+03  0.28555224348E+03  0.00000000000E+00 0. -1.
         -3    1    6    6    0  503  0.39139337022E+02 -0.84644125587E+02  0.17834186350E+02  0.94945109941E+02  0.00000000000E+00 0.  1.
<mgrwt>
<rscale>  0 0.11388621E+04</rscale>
<asrwt>0</asrwt>
<pdfrwt beam="1">  1        2 0.21285406E+00 0.11388621E+04</pdfrwt>
<pdfrwt beam="2">  1       -2 0.17065642E+00 0.11388621E+04</pdfrwt>
<totfact> 0.30463085E+00</totfact>
</mgrwt>
</event>
<event>
12    1  0.8033771E-008  0.2462098E+04  0.7818608E-02  0.8416614E-01
          1   -1    0    0  501    0  0.00000000000E+00  0.00000000000E+00  0.20839288233E+04  0.20839288233E+04  0.00000000000E+00 0. -1.
         -1   -1    0    0    0  501 -0.00000000000E+00 -0.00000000000E+00 -0.30594918979E+04  0.30594918979E+04  0.00000000000E+00 0.  1.
         23    2    1    2    0    0 -0.24577383810E+04 -0.82619362514E+02 -0.86999605179E+03  0.26099675504E+04  0.87940749759E+02 0.  0.
    5000000    2    1    2    0    0  0.24577383810E+04  0.82619362514E+02 -0.10556702287E+03  0.25334531708E+04  0.59994721724E+03 0.  0.
         23    2    4    4    0    0  0.61388120159E+03  0.76439852209E+02  0.20840253312E+03  0.66082999205E+03  0.10281771201E+03 0.  0.
         23    2    4    4    0    0  0.18438571794E+04  0.61795103057E+01 -0.31396955600E+03  0.18726231787E+04  0.91067023954E+02 0.  0.
          2    1    3    3  502    0 -0.76540055799E+03 -0.65424678478E+02 -0.26176002588E+03  0.81156436213E+03  0.00000000000E+00 0. -1.
         -2    1    3    3    0  502 -0.16923378230E+04 -0.17194684037E+02 -0.60823602592E+03  0.17984031883E+04  0.00000000000E+00 0.  1.
         15    1    5    5    0    0  0.37593419605E+02 -0.39277389839E+01  0.40046807199E+02  0.55096250571E+02  0.17770000000E+01 0.  1.
        -15    1    5    5    0    0  0.57628778199E+03  0.80367591193E+02  0.16835572592E+03  0.60573374148E+03  0.17770000000E+01 0. -1.
          3    1    6    6  503    0  0.15370832302E+04  0.65162696100E+01 -0.22707087759E+03  0.15537787815E+04  0.00000000000E+00 0. -1.
         -3    1    6    6    0  503  0.30677394924E+03 -0.33675930437E+00 -0.86898678409E+02  0.31884439724E+03  0.00000000000E+00 0.  1.
<mgrwt>
<rscale>  0 0.24620976E+04</rscale>
<asrwt>0</asrwt>
<pdfrwt beam="1">  1        1 0.32060444E+00 0.24620976E+04</pdfrwt>
<pdfrwt beam="2">  1       -1 0.47069106E+00 0.24620976E+04</pdfrwt>
<totfact> 0.51333846E-03</totfact>
</mgrwt>
</event>
<event>
12    1  0.8033771E-008  0.5813134E+03  0.7818608E-02  0.9944952E-01
          1   -1    0    0  501    0  0.00000000000E+00  0.00000000000E+00  0.34395716725E+03  0.34395716725E+03  0.00000000000E+00 0. -1.
         -1   -1    0    0    0  501 -0.00000000000E+00 -0.00000000000E+00 -0.13539973542E+04  0.13539973542E+04  0.00000000000E+00 0.  1.
         23    2    1    2    0    0  0.14508956704E+03  0.52490219841E+03 -0.46125747237E+03  0.71944123894E+03  0.90906216003E+02 0.  0.
    5000000    2    1    2    0    0 -0.14508956704E+03 -0.52490219841E+03 -0.54878271462E+03  0.97851328254E+03  0.59979369443E+03 0.  0.
         23    2    4    4    0    0 -0.14319825659E+02 -0.45652379869E+03 -0.63310333203E+03  0.78580069225E+03  0.89687584053E+02 0.  0.
         23    2    4    4    0    0 -0.13076974138E+03 -0.68378399723E+02  0.84320617414E+02  0.19271259029E+03  0.90839667136E+02 0.  0.
          3    1    3    3  502    0  0.19243667612E+02  0.42965203689E+02 -0.77410168737E+02  0.90601664968E+02  0.00000000000E+00 0. -1.
         -3    1    3    3    0  502  0.12584589943E+03  0.48193699473E+03 -0.38384730364E+03  0.62883957398E+03  0.00000000000E+00 0.  1.
         15    1    5    5    0    0 -0.11703214846E+02 -0.24562373315E+02 -0.76662005113E+02  0.81366431515E+02  0.17770000000E+01 0.  1.
        -15    1    5    5    0    0 -0.26166108130E+01 -0.43196142538E+03 -0.55644132692E+03  0.70443426074E+03  0.17770000000E+01 0. -1.
          1    1    6    6  503    0 -0.12520409131E+03 -0.77701298663E+02  0.96696240309E+02  0.17624902605E+03  0.00000000000E+00 0. -1.
         -1    1    6    6    0  503 -0.55656500751E+01  0.93228989402E+01 -0.12375622895E+02  0.16463564239E+02  0.00000000000E+00 0.  1.
<mgrwt>
<rscale>  0 0.58131338E+03</rscale>
<asrwt>0</asrwt>
<pdfrwt beam="1">  1        1 0.52916487E-01 0.58131338E+03</pdfrwt>
<pdfrwt beam="2">  1       -1 0.20830729E+00 0.58131338E+03</pdfrwt>
<totfact> 0.10215747E+01</totfact>
</mgrwt>
</event>
<event>
12    1  0.8033771E-008  0.5218963E+03  0.7818608E-02  0.1008217E+00
          2   -1    0    0  501    0  0.00000000000E+00  0.00000000000E+00  0.59461755780E+03  0.59461755780E+03  0.00000000000E+00 0. -1.
         -2   -1    0    0    0  501 -0.00000000000E+00 -0.00000000000E+00 -0.59622190831E+03  0.59622190831E+03  0.00000000000E+00 0.  1.
         23    2    1    2    0    0  0.43100403800E+03 -0.51111458003E+02 -0.61408793497E+02  0.44784316153E+03  0.91736554861E+02 0.  0.
    5000000    2    1    2    0    0 -0.43100403800E+03  0.51111458003E+02  0.59804442991E+02  0.74299630458E+03  0.60007505806E+03 0.  0.
         23    2    4    4    0    0 -0.32606259911E+03 -0.15453932062E+03  0.23402956048E+03  0.43995942646E+03  0.92710525817E+02 0.  0.
         23    2    4    4    0    0 -0.10494143889E+03  0.20565077863E+03 -0.17422511749E+03  0.30303687812E+03  0.90399168090E+02 0.  0.
          1    1    3    3  502    0  0.53855117885E+02 -0.17942524757E+02 -0.38412602519E+02  0.68540761225E+02  0.00000000000E+00 0.  1.
         -1    1    3    3    0  502  0.37714892011E+03 -0.33168933247E+02 -0.22996190978E+02  0.37930240030E+03  0.00000000000E+00 0. -1.
         15    1    5    5    0    0 -0.77405156830E+02 -0.34041624981E+02  0.10547417773E+03  0.13519744980E+03  0.17770000000E+01 0.  1.
        -15    1    5    5    0    0 -0.24865744228E+03 -0.12049769564E+03  0.12855538275E+03  0.30476197666E+03  0.17770000000E+01 0. -1.
          2    1    6    6  503    0 -0.12132992508E+03  0.18288152408E+03 -0.15987014211E+03  0.27152359917E+03  0.00000000000E+00 0. -1.
         -2    1    6    6    0  503  0.16388486185E+02  0.22769254543E+02 -0.14354975377E+02  0.31513278947E+02  0.00000000000E+00 0.  1.
<mgrwt>
<rscale>  0 0.52189632E+03</rscale>
<asrwt>0</asrwt>
<pdfrwt beam="1">  1        2 0.91479625E-01 0.52189632E+03</pdfrwt>
<pdfrwt beam="2">  1       -2 0.91726447E-01 0.52189632E+03</pdfrwt>
<totfact> 0.52312720E+01</totfact>
</mgrwt>
</event>
<event>
12    1  0.8033771E-008  0.1666725E+04  0.7818608E-02  0.8780573E-01
         -1   -1    0    0    0  501 -0.00000000000E+00  0.00000000000E+00  0.10213156355E+04  0.10213156355E+04  0.00000000000E+00 0.  1.
          1   -1    0    0  501    0  0.00000000000E+00 -0.00000000000E+00 -0.28456583740E+04  0.28456583740E+04  0.00000000000E+00 0. -1.
         23    2    1    2    0    0  0.38757805862E+03  0.15900905060E+04 -0.11261466224E+04  0.19892034460E+04  0.10059605057E+03 0.  0.
    5000000    2    1    2    0    0 -0.38757805862E+03 -0.15900905060E+04 -0.69819611612E+03  0.18777705635E+04  0.59994991749E+03 0.  0.
         23    2    4    4    0    0  0.15625395273E+02 -0.82536877628E+03 -0.13376154892E+03  0.84126882125E+03  0.91451122524E+02 0.  0.
         23    2    4    4    0    0 -0.40320345390E+03 -0.76472172976E+03 -0.56443456721E+03  0.10365017422E+04  0.91526672267E+02 0.  0.
          2    1    3    3  502    0  0.32278868352E+03  0.11573387525E+04 -0.80055234793E+03  0.14437830807E+04  0.00000000000E+00 0. -1.
         -2    1    3    3    0  502  0.64789375097E+02  0.43275175355E+03 -0.32559427446E+03  0.54542036531E+03  0.00000000000E+00 0.  1.
         15    1    5    5    0    0 -0.20742192077E+02 -0.61193052771E+03 -0.12274714469E+03  0.62446715569E+03  0.17770000000E+01 0.  1.
        -15    1    5    5    0    0  0.36367587351E+02 -0.21343824857E+03 -0.11014404223E+02  0.21680166556E+03  0.17770000000E+01 0. -1.
          1    1    6    6  503    0 -0.35876931096E+03 -0.64838303763E+03 -0.51551581065E+03  0.90270290406E+03  0.00000000000E+00 0. -1.
         -1    1    6    6    0  503 -0.44434142936E+02 -0.11633869214E+03 -0.48918756557E+02  0.13379883815E+03  0.00000000000E+00 0.  1.
<mgrwt>
<rscale>  0 0.16667249E+04</rscale>
<asrwt>0</asrwt>
<pdfrwt beam="1">  1        1 0.43779359E+00 0.16667249E+04</pdfrwt>
<pdfrwt beam="2">  1       -1 0.15712548E+00 0.16667249E+04</pdfrwt>
<totfact> 0.22152521E-01</totfact>
</mgrwt>
</event>
<event>
12    1  0.8033771E-008  0.8312391E+03  0.7818608E-02  0.9515869E-01
          1   -1    0    0  501    0  0.00000000000E+00  0.00000000000E+00  0.19489043208E+04  0.19489043208E+04  0.00000000000E+00 0. -1.
         -1   -1    0    0    0  501 -0.00000000000E+00 -0.00000000000E+00 -0.46715906862E+03  0.46715906862E+03  0.00000000000E+00 0.  1.
         23    2    1    2    0    0  0.56199648637E+03  0.48589095129E+03  0.12107783524E+04  0.14234919163E+04  0.91733036300E+02 0.  0.
    5000000    2    1    2    0    0 -0.56199648637E+03 -0.48589095129E+03  0.27096689980E+03  0.99257147312E+03  0.59987082045E+03 0.  0.
         23    2    4    4    0    0  0.26270025572E+02  0.64407182532E+02 -0.44706380582E+02  0.12323531573E+03  0.91377695164E+02 0.  0.
         23    2    4    4    0    0 -0.58826651194E+03 -0.55029813383E+03  0.31567328038E+03  0.86933615739E+03  0.84912952071E+02 0.  0.
          1    1    3    3  502    0  0.20751211627E+03  0.21925007828E+03  0.55490320754E+03  0.63170360531E+03  0.00000000000E+00 0. -1.
         -1    1    3    3    0  502  0.35448437010E+03  0.26664087301E+03  0.65587514487E+03  0.79178831102E+03  0.00000000000E+00 0.  1.
         15    1    5    5    0    0  0.11313980542E+01  0.78461185299E+02 -0.51129293836E+02  0.93673902861E+02  0.17770000000E+01 0.  1.
        -15    1    5    5    0    0  0.25138627518E+02 -0.14054002767E+02  0.64229132531E+01  0.29561412871E+02  0.17770000000E+01 0. -1.
          4    1    6    6  503    0 -0.26197427376E+03 -0.19018400228E+03  0.13814959744E+03  0.35197412705E+03  0.00000000000E+00 0. -1.
         -4    1    6    6    0  503 -0.32629223818E+03 -0.36011413154E+03  0.17752368294E+03  0.51736203034E+03  0.00000000000E+00 0.  1.
<mgrwt>
<rscale>  0 0.83123908E+03</rscale>
<asrwt>0</asrwt>
<pdfrwt beam="1">  1        1 0.29983143E+00 0.83123908E+03</pdfrwt>
<pdfrwt beam="2">  1       -1 0.71870627E-01 0.83123908E+03</pdfrwt>
<totfact> 0.65220055E+00</totfact>
</mgrwt>
</event>
<event>
12    1  0.8033771E-008  0.7071874E+03  0.7818608E-02  0.9705019E-01
          1   -1    0    0  501    0  0.00000000000E+00  0.00000000000E+00  0.41453395338E+03  0.41453395338E+03  0.00000000000E+00 0. -1.
         -1   -1    0    0    0  501 -0.00000000000E+00 -0.00000000000E+00 -0.18573971907E+04  0.18573971907E+04  0.00000000000E+00 0.  1.
         23    2    1    2    0    0 -0.47701431339E+03  0.49922958756E+03 -0.10852524428E+04  0.12897986026E+04  0.95051220521E+02 0.  0.
    5000000    2    1    2    0    0  0.47701431339E+03 -0.49922958756E+03 -0.35761079459E+03  0.98213254150E+03  0.59993834048E+03 0.  0.
         23    2    4    4    0    0  0.36734423669E+03 -0.40381305650E+03 -0.51017344232E+03  0.75256863142E+03  0.89865627048E+02 0.  0.
         23    2    4    4    0    0  0.10967007671E+03 -0.95416531064E+02  0.15256264773E+03  0.22956391007E+03  0.91062545544E+02 0.  0.
          4    1    3    3  502    0 -0.10418723900E+03  0.17094334086E+03 -0.31847237619E+03  0.37616653353E+03  0.00000000000E+00 0.  1.
         -4    1    3    3    0  502 -0.37282707439E+03  0.32828624671E+03 -0.76678006658E+03  0.91363206910E+03  0.00000000000E+00 0. -1.
         15    1    5    5    0    0  0.23730087817E+03 -0.19513126837E+03 -0.27542175296E+03  0.41261146180E+03  0.17770000000E+01 0. -1.
        -15    1    5    5    0    0  0.13004335852E+03 -0.20868178813E+03 -0.23475168936E+03  0.33995716962E+03  0.17770000000E+01 0.  1.
          2    1    6    6  503    0  0.50810696100E+02  0.15866710678E+01  0.80313554825E+02  0.95050047090E+02  0.00000000000E+00 0. -1.
         -2    1    6    6    0  503  0.58859380606E+02 -0.97003202132E+02  0.72249092907E+02  0.13451386298E+03  0.00000000000E+00 0.  1.
<mgrwt>
<rscale>  0 0.70718737E+03</rscale>
<asrwt>0</asrwt>
<pdfrwt beam="1">  1        1 0.63774455E-01 0.70718737E+03</pdfrwt>
<pdfrwt beam="2">  1       -1 0.28575341E+00 0.70718737E+03</pdfrwt>
<totfact> 0.24670053E+00</totfact>
</mgrwt>
</event>
<event>
12    1  0.8033771E-008  0.5280945E+03  0.7818608E-02  0.1006695E+00
         -2   -1    0    0    0  501 -0.00000000000E+00  0.00000000000E+00  0.17691761662E+03  0.17691761662E+03  0.00000000000E+00 0. -1.
          2   -1    0    0  501    0  0.00000000000E+00 -0.00000000000E+00 -0.23176744666E+04  0.23176744666E+04  0.00000000000E+00 0.  1.
         23    2    1    2    0    0 -0.43615703156E+02  0.39084789217E+03 -0.14252849284E+04  0.14812823249E+04  0.89976633855E+02 0.  0.
    5000000    2    1    2    0    0  0.43615703156E+02 -0.39084789217E+03 -0.71547192159E+03  0.10133097583E+04  0.60019346159E+03 0.  0.
         23    2    4    4    0    0 -0.15974758992E+03 -0.39527647778E+03 -0.64124819419E+03  0.77562733025E+03  0.92928588227E+02 0.  0.
         23    2    4    4    0    0  0.20336329307E+03  0.44285856103E+01 -0.74223727403E+02  0.23768242807E+03  0.98018026718E+02 0.  0.
          3    1    3    3  502    0 -0.35768455599E+02  0.10521990274E+03 -0.52921324831E+03  0.54075620434E+03  0.00000000000E+00 0. -1.
         -3    1    3    3    0  502 -0.78472475571E+01  0.28562798943E+03 -0.89607168009E+03  0.94052612058E+03  0.00000000000E+00 0.  1.
         15    1    5    5    0    0 -0.39991406166E+02 -0.22264328529E+03 -0.33631898501E+03  0.40531834706E+03  0.17770000000E+01 0. -1.
        -15    1    5    5    0    0 -0.11975618375E+03 -0.17263319249E+03 -0.30492920918E+03  0.37030898320E+03  0.17770000000E+01 0.  1.
          1    1    6    6  503    0  0.12409112014E+03  0.47386737986E+02 -0.25712774084E+02  0.13529691714E+03  0.00000000000E+00 0. -1.
         -1    1    6    6    0  503  0.79272172930E+02 -0.42958152376E+02 -0.48510953318E+02  0.10238551093E+03  0.00000000000E+00 0.  1.
<mgrwt>
<rscale>  0 0.52809446E+03</rscale>
<asrwt>0</asrwt>
<pdfrwt beam="1">  1        2 0.35656527E+00 0.52809446E+03</pdfrwt>
<pdfrwt beam="2">  1       -2 0.27218097E-01 0.52809446E+03</pdfrwt>
<totfact> 0.58232012E+01</totfact>
</mgrwt>
</event>
<event>
12    1  0.8033771E-008  0.1212838E+04  0.7818608E-02  0.9101693E-01
         -1   -1    0    0    0  501 -0.00000000000E+00  0.00000000000E+00  0.23376510302E+04  0.23376510302E+04  0.00000000000E+00 0.  1.
          1   -1    0    0  501    0  0.00000000000E+00 -0.00000000000E+00 -0.12983008267E+04  0.12983008267E+04  0.00000000000E+00 0. -1.
         23    2    1    2    0    0 -0.69389982961E+03  0.91727556189E+03  0.17953596452E+04  0.21344533434E+04  0.98404214721E+02 0.  0.
    5000000    2    1    2    0    0  0.69389982961E+03 -0.91727556189E+03 -0.75600944182E+03  0.15014985135E+04  0.60004673144E+03 0.  0.
         23    2    4    4    0    0  0.18646726506E+01  0.47667514268E+02 -0.71927801495E+02  0.12807526554E+03  0.94625557300E+02 0.  0.
         23    2    4    4    0    0  0.69203515696E+03 -0.96494307616E+03 -0.68408164032E+03  0.13734232479E+04  0.91081988797E+02 0.  0.
          3    1    3    3  502    0 -0.36822158258E+03  0.54722842198E+03  0.96744262190E+03  0.11708933796E+04  0.00000000000E+00 0. -1.
         -3    1    3    3    0  502 -0.32567824703E+03  0.37004713991E+03  0.82791702334E+03  0.96355996383E+03  0.00000000000E+00 0.  1.
         15    1    5    5    0    0  0.33308474327E+02  0.41327640610E+02 -0.78988429078E+02  0.95182761032E+02  0.17770000000E+01 0. -1.
        -15    1    5    5    0    0 -0.31443801677E+02  0.63398736580E+01  0.70606275828E+01  0.32892504507E+02  0.17770000000E+01 0.  1.
          3    1    6    6  503    0  0.48605152394E+03 -0.65128283892E+03 -0.42185048554E+03  0.91562724531E+03  0.00000000000E+00 0. -1.
         -3    1    6    6    0  503  0.20598363302E+03 -0.31366023724E+03 -0.26223115478E+03  0.45779600264E+03  0.00000000000E+00 0.  1.
<mgrwt>
<rscale>  0 0.12128377E+04</rscale>
<asrwt>0</asrwt>
<pdfrwt beam="1">  1        1 0.19973859E+00 0.12128377E+04</pdfrwt>
<pdfrwt beam="2">  1       -1 0.35963862E+00 0.12128377E+04</pdfrwt>
<totfact> 0.11997946E-01</totfact>
</mgrwt>
</event>
<event>
12    1  0.8033771E-008  0.5956691E+03  0.7818608E-02  0.9914432E-01
          2   -1    0    0  501    0  0.00000000000E+00  0.00000000000E+00  0.26592785658E+04  0.26592785658E+04  0.00000000000E+00 0.  1.
         -2   -1    0    0    0  501 -0.00000000000E+00 -0.00000000000E+00 -0.21880640762E+03  0.21880640762E+03  0.00000000000E+00 0. -1.
         23    2    1    2    0    0  0.25095395184E+03 -0.47097289774E+03  0.36601936504E+03  0.65353370496E+03  0.91338773657E+02 0.  0.
    5000000    2    1    2    0    0 -0.25095395184E+03  0.47097289774E+03  0.20744527932E+04  0.22245512685E+04  0.60040036536E+03 0.  0.
         23    2    4    4    0    0 -0.23895269331E+02 -0.41500312370E+02  0.38956013182E+02  0.11110209075E+03  0.92373393257E+02 0.  0.
         23    2    4    4    0    0 -0.22705868251E+03  0.51247321011E+03  0.20354967800E+04  0.21134491777E+04  0.96103325693E+02 0.  0.
          1    1    3    3  502    0  0.14489844298E+03 -0.17648168770E+03  0.14922373034E+03  0.27278025326E+03  0.00000000000E+00 0. -1.
         -1    1    3    3    0  502  0.10605550886E+03 -0.29449121005E+03  0.21679563470E+03  0.38075345170E+03  0.00000000000E+00 0.  1.
         15    1    5    5    0    0 -0.49566195128E+02 -0.24096406807E+02  0.53473919729E+02  0.76811863281E+02  0.17770000000E+01 0. -1.
        -15    1    5    5    0    0  0.25670925797E+02 -0.17403905563E+02 -0.14517906547E+02  0.34290227465E+02  0.17770000000E+01 0.  1.
          4    1    6    6  503    0 -0.23854036425E+02  0.11418392785E+03  0.31855439204E+03  0.33924015847E+03  0.00000000000E+00 0.  1.
         -4    1    6    6    0  503 -0.20320464608E+03  0.39828928227E+03  0.17169423879E+04  0.17742090193E+04  0.00000000000E+00 0. -1.
<mgrwt>
<rscale>  0 0.59566911E+03</rscale>
<asrwt>0</asrwt>
<pdfrwt beam="1">  1        2 0.40911976E+00 0.59566911E+03</pdfrwt>
<pdfrwt beam="2">  1       -2 0.33662526E-01 0.59566911E+03</pdfrwt>
<totfact> 0.24947470E+01</totfact>
</mgrwt>
</event>
<event>
12    1  0.8033771E-008  0.7757797E+03  0.7818608E-02  0.9595752E-01
          2   -1    0    0  501    0  0.00000000000E+00  0.00000000000E+00  0.78389860396E+03  0.78389860396E+03  0.00000000000E+00 0. -1.
         -2   -1    0    0    0  501 -0.00000000000E+00 -0.00000000000E+00 -0.90058160426E+03  0.90058160426E+03  0.00000000000E+00 0.  1.
         23    2    1    2    0    0  0.10999579266E+03  0.70910173186E+03  0.81932297722E+02  0.72796535475E+03  0.91084113768E+02 0.  0.
    5000000    2    1    2    0    0 -0.10999579266E+03 -0.70910173186E+03 -0.19861529802E+03  0.95651485347E+03  0.60045673264E+03 0.  0.
         23    2    4    4    0    0  0.61496368857E+02 -0.62722479470E+03  0.41309035622E+02  0.63763930793E+03  0.87662444191E+02 0.  0.
         23    2    4    4    0    0 -0.17149216151E+03 -0.81876937157E+02 -0.23992433364E+03  0.31887554554E+03  0.89468057813E+02 0.  0.
          1    1    3    3  502    0  0.99218537092E+02  0.57071472532E+03  0.10048189746E+03  0.58792535880E+03  0.00000000000E+00 0. -1.
         -1    1    3    3    0  502  0.10777255565E+02  0.13838700653E+03 -0.18549599740E+02  0.14003999595E+03  0.00000000000E+00 0.  1.
         15    1    5    5    0    0  0.66679829272E+01 -0.32582659263E+03 -0.14613690377E+02  0.32622714193E+03  0.17770000000E+01 0. -1.
        -15    1    5    5    0    0  0.54828385930E+02 -0.30139820208E+03  0.55922725999E+02  0.31141216600E+03  0.17770000000E+01 0.  1.
          2    1    6    6  503    0 -0.58475950599E+02 -0.64198630736E+02 -0.15019313075E+03  0.17349028074E+03  0.00000000000E+00 0. -1.
         -2    1    6    6    0  503 -0.11301621092E+03 -0.17678306421E+02 -0.89731202893E+02  0.14538526480E+03  0.00000000000E+00 0.  1.
<mgrwt>
<rscale>  0 0.77577970E+03</rscale>
<asrwt>0</asrwt>
<pdfrwt beam="1">  1        2 0.12059978E+00 0.77577970E+03</pdfrwt>
<pdfrwt beam="2">  1       -2 0.13855102E+00 0.77577970E+03</pdfrwt>
<totfact> 0.13222528E+01</totfact>
</mgrwt>
</event>
<event>
12    1  0.8033771E-008  0.2208437E+04  0.7818608E-02  0.8514925E-01
          2   -1    0    0  501    0  0.00000000000E+00  0.00000000000E+00  0.30634250501E+04  0.30634250501E+04  0.00000000000E+00 0. -1.
         -2   -1    0    0    0  501 -0.00000000000E+00 -0.00000000000E+00 -0.16254490208E+04  0.16254490208E+04  0.00000000000E+00 0.  1.
         23    2    1    2    0    0 -0.21491602164E+04  0.40414344652E+03  0.83171977413E+03  0.23415788848E+04  0.94933291436E+02 0.  0.
    5000000    2    1    2    0    0  0.21491602164E+04 -0.40414344652E+03  0.60625625521E+03  0.23472951862E+04  0.60002206871E+03 0.  0.
         23    2    4    4    0    0  0.41985753713E+03  0.78193392984E+02 -0.36686617814E+02  0.43813637754E+03  0.90680864610E+02 0.  0.
         23    2    4    4    0    0  0.17293026792E+04 -0.48233683950E+03  0.64294287302E+03  0.19091588086E+04  0.91516311901E+02 0.  0.
          4    1    3    3  502    0 -0.16590188755E+04  0.28573180554E+03  0.60708428972E+03  0.17895635302E+04  0.00000000000E+00 0. -1.
         -4    1    3    3    0  502 -0.49014134090E+03  0.11841164099E+03  0.22463548442E+03  0.55201535453E+03  0.00000000000E+00 0.  1.
         15    1    5    5    0    0  0.25958643620E+03  0.83773570818E+02  0.35097061896E+01  0.27279773605E+03  0.17770000000E+01 0.  1.
        -15    1    5    5    0    0  0.16027110093E+03 -0.55801778341E+01 -0.40196324004E+02  0.16533864150E+03  0.17770000000E+01 0. -1.
          4    1    6    6  503    0  0.14255673069E+04 -0.37733613292E+03  0.49657285054E+03  0.15560235536E+04  0.00000000000E+00 0. -1.
         -4    1    6    6    0  503  0.30373537238E+03 -0.10500070659E+03  0.14637002248E+03  0.35313525497E+03  0.00000000000E+00 0.  1.
<mgrwt>
<rscale>  0 0.22084366E+04</rscale>
<asrwt>0</asrwt>
<pdfrwt beam="1">  1        2 0.47129616E+00 0.22084366E+04</pdfrwt>
<pdfrwt beam="2">  1       -2 0.25006908E+00 0.22084366E+04</pdfrwt>
<totfact> 0.88739195E-02</totfact>
</mgrwt>
</event>
<event>
12    1  0.8033771E-008  0.1249368E+04  0.7818608E-02  0.9070709E-01
         -1   -1    0    0    0  501 -0.00000000000E+00  0.00000000000E+00  0.12506430961E+04  0.12506430961E+04  0.00000000000E+00 0.  1.
          1   -1    0    0  501    0  0.00000000000E+00 -0.00000000000E+00 -0.13898935440E+04  0.13898935440E+04  0.00000000000E+00 0. -1.
         23    2    1    2    0    0  0.11631845171E+04  0.43494708252E+03 -0.19451080328E+03  0.12601929599E+04  0.89859101582E+02 0.  0.
    5000000    2    1    2    0    0 -0.11631845171E+04 -0.43494708252E+03  0.55260355425E+02  0.13803436802E+04  0.60009814445E+03 0.  0.
         23    2    4    4    0    0 -0.90563433304E+03 -0.26751353718E+03  0.27942287402E+03  0.98893504686E+03  0.90434211633E+02 0.  0.
         23    2    4    4    0    0 -0.25755018411E+03 -0.16743354534E+03 -0.22416251859E+03  0.39140863331E+03  0.92659559926E+02 0.  0.
          3    1    3    3  502    0  0.28231424792E+03  0.12605472576E+03 -0.14381687831E+02  0.30951245760E+03  0.00000000000E+00 0. -1.
         -3    1    3    3    0  502  0.88087026923E+03  0.30889235676E+03 -0.18012911545E+03  0.95068050233E+03  0.00000000000E+00 0.  1.
         15    1    5    5    0    0 -0.77094657855E+03 -0.20921497268E+03  0.20674389753E+03  0.82515194277E+03  0.17770000000E+01 0. -1.
        -15    1    5    5    0    0 -0.13468775449E+03 -0.58298564495E+02  0.72678976487E+02  0.16378310409E+03  0.17770000000E+01 0.  1.
          3    1    6    6  503    0 -0.21057708739E+03 -0.11439394149E+03 -0.12716874315E+03  0.27129425504E+03  0.00000000000E+00 0. -1.
         -3    1    6    6    0  503 -0.46973096722E+02 -0.53039603852E+02 -0.96993775444E+02  0.12011437827E+03  0.00000000000E+00 0.  1.
<mgrwt>
<rscale>  0 0.12493683E+04</rscale>
<asrwt>0</asrwt>
<pdfrwt beam="1">  1        1 0.21382978E+00 0.12493683E+04</pdfrwt>
<pdfrwt beam="2">  1       -1 0.19240663E+00 0.12493683E+04</pdfrwt>
<totfact> 0.12931100E+00</totfact>
</mgrwt>
</event>
<event>
12    1  0.8033771E-008  0.4277370E+03  0.7818608E-02  0.1034577E+00
         -2   -1    0    0    0  501 -0.00000000000E+00  0.00000000000E+00  0.88010147379E+03  0.88010147379E+03  0.00000000000E+00 0. -1.
          2   -1    0    0  501    0  0.00000000000E+00 -0.00000000000E+00 -0.44209866325E+03  0.44209866325E+03  0.00000000000E+00 0.  1.
         23    2    1    2    0    0  0.36855631580E+03 -0.38693157707E+02 -0.14378478096E+03  0.40795080920E+03  0.91754461056E+02 0.  0.
    5000000    2    1    2    0    0 -0.36855631580E+03  0.38693157707E+02  0.58178759150E+03  0.91424932784E+03  0.60003676010E+03 0.  0.
         23    2    4    4    0    0 -0.27710942863E+03 -0.75414181208E+02 -0.39609552983E+01  0.30258862740E+03  0.95222130328E+02 0.  0.
         23    2    4    4    0    0 -0.91446887167E+02  0.11410733892E+03  0.58574854680E+03  0.61166070044E+03  0.98206081384E+02 0.  0.
          3    1    3    3  502    0  0.11069437608E+03 -0.53704252973E+02 -0.55597747403E+02  0.13501296678E+03  0.00000000000E+00 0. -1.
         -3    1    3    3    0  502  0.25786193972E+03  0.15011095266E+02 -0.88187033553E+02  0.27293784242E+03  0.00000000000E+00 0.  1.
         15    1    5    5    0    0 -0.13044949627E+02 -0.29754312549E+02 -0.11456638258E+02  0.34494957823E+02  0.17770000000E+01 0.  1.
        -15    1    5    5    0    0 -0.26406447900E+03 -0.45659868659E+02  0.74956829601E+01  0.26809366958E+03  0.17770000000E+01 0. -1.
          3    1    6    6  503    0 -0.80091150712E+02  0.13083195560E+03  0.54494086908E+03  0.56612025562E+03  0.00000000000E+00 0. -1.
         -3    1    6    6    0  503 -0.11355736455E+02 -0.16724616687E+02  0.40807677717E+02  0.45540444820E+02  0.00000000000E+00 0.  1.
<mgrwt>
<rscale>  0 0.42773696E+03</rscale>
<asrwt>0</asrwt>
<pdfrwt beam="1">  1        2 0.68015179E-01 0.42773696E+03</pdfrwt>
<pdfrwt beam="2">  1       -2 0.13540023E+00 0.42773696E+03</pdfrwt>
<totfact> 0.29047917E+01</totfact>
</mgrwt>
</event>
<event>
12    1  0.8033771E-008  0.1409617E+04  0.7818608E-02  0.8946887E-01
         -1   -1    0    0    0  501 -0.00000000000E+00  0.00000000000E+00  0.12334268577E+04  0.12334268577E+04  0.00000000000E+00 0.  1.
          1   -1    0    0  501    0  0.00000000000E+00 -0.00000000000E+00 -0.17867545744E+04  0.17867545744E+04  0.00000000000E+00 0. -1.
         23    2    1    2    0    0 -0.72190014616E+03  0.11678612014E+04  0.11278843730E+03  0.13804321418E+04  0.88498925299E+02 0.  0.
    5000000    2    1    2    0    0  0.72190014616E+03 -0.11678612014E+04 -0.66611615400E+03  0.16397492903E+04  0.60002283103E+03 0.  0.
         23    2    4    4    0    0 -0.23408745655E+02 -0.20564783574E+03 -0.28200228556E+03  0.36081885567E+03  0.88464432554E+02 0.  0.
         23    2    4    4    0    0  0.74530889182E+03 -0.96221336566E+03 -0.38411386844E+03  0.12789304347E+04  0.82338857769E+02 0.  0.
          2    1    3    3  502    0 -0.19292484160E+03  0.39036025186E+03  0.35247569807E+02  0.43685639737E+03  0.00000000000E+00 0. -1.
         -2    1    3    3    0  502 -0.52897530456E+03  0.77750094953E+03  0.77540867489E+02  0.94357574443E+03  0.00000000000E+00 0.  1.
         15    1    5    5    0    0  0.25809267904E+02 -0.14308699219E+03 -0.17817206411E+03  0.22997488516E+03  0.17770000000E+01 0.  1.
        -15    1    5    5    0    0 -0.49218013559E+02 -0.62560843549E+02 -0.10383022145E+03  0.13084397051E+03  0.17770000000E+01 0. -1.
          3    1    6    6  503    0  0.67924571972E+02 -0.11630677433E+03 -0.22938752492E+02  0.13662796053E+03  0.00000000000E+00 0. -1.
         -3    1    6    6    0  503  0.67738431985E+03 -0.84590659133E+03 -0.36117511595E+03  0.11423024741E+04  0.00000000000E+00 0.  1.
<mgrwt>
<rscale>  0 0.14096166E+04</rscale>
<asrwt>0</asrwt>
<pdfrwt beam="1">  1        1 0.27488532E+00 0.14096166E+04</pdfrwt>
<pdfrwt beam="2">  1       -1 0.18975798E+00 0.14096166E+04</pdfrwt>
<totfact> 0.70546627E-01</totfact>
</mgrwt>
</event>
<event>
12    1  0.8033771E-008  0.1042299E+04  0.7818608E-02  0.9263331E-01
          3   -1    0    0  501    0  0.00000000000E+00  0.00000000000E+00  0.18571969738E+04  0.18571969738E+04  0.00000000000E+00 0. -1.
         -3   -1    0    0    0  501 -0.00000000000E+00 -0.00000000000E+00 -0.65515829411E+03  0.65515829411E+03  0.00000000000E+00 0.  1.
         23    2    1    2    0    0  0.51946995982E+03  0.87380067670E+03  0.47298332521E+03  0.11249396756E+04  0.91648164327E+02 0.  0.
    5000000    2    1    2    0    0 -0.51946995982E+03 -0.87380067670E+03  0.72905535451E+03  0.13874155924E+04  0.60001971151E+03 0.  0.
         23    2    4    4    0    0 -0.50219597331E+03 -0.64146565016E+03  0.77971309319E+03  0.11314365542E+04  0.92288637491E+02 0.  0.
         23    2    4    4    0    0 -0.17273986509E+02 -0.23233502655E+03 -0.50657738680E+02  0.25597903812E+03  0.93172454625E+02 0.  0.
          4    1    3    3  502    0  0.35999539021E+03  0.51900316430E+03  0.28727530924E+03  0.69389341315E+03  0.00000000000E+00 0. -1.
         -4    1    3    3    0  502  0.15947456961E+03  0.35479751241E+03  0.18570801597E+03  0.43104626243E+03  0.00000000000E+00 0.  1.
         15    1    5    5    0    0 -0.33453275187E+03 -0.36980793381E+03  0.43675422183E+03  0.66289326290E+03  0.17770000000E+01 0. -1.
        -15    1    5    5    0    0 -0.16766322144E+03 -0.27165771635E+03  0.34295887136E+03  0.46854329133E+03  0.17770000000E+01 0.  1.
          3    1    6    6  503    0 -0.48728748628E+02 -0.12314584745E+03 -0.22167438708E+01  0.13245491551E+03  0.00000000000E+00 0. -1.
         -3    1    6    6    0  503  0.31454762119E+02 -0.10918917909E+03 -0.48440994809E+02  0.12352412262E+03  0.00000000000E+00 0.  1.
<mgrwt>
<rscale>  0 0.10422989E+04</rscale>
<asrwt>0</asrwt>
<pdfrwt beam="1">  1        3 0.28572261E+00 0.10422989E+04</pdfrwt>
<pdfrwt beam="2">  1       -3 0.10079358E+00 0.10422989E+04</pdfrwt>
<totfact> 0.10159751E-01</totfact>
</mgrwt>
</event>
<event>
12    1  0.8033771E-008  0.1514334E+04  0.7818608E-02  0.8874977E-01
         -1   -1    0    0    0  501 -0.00000000000E+00  0.00000000000E+00  0.17568393671E+04  0.17568393671E+04  0.00000000000E+00 0.  1.
          1   -1    0    0  501    0  0.00000000000E+00 -0.00000000000E+00 -0.13254441665E+04  0.13254441665E+04  0.00000000000E+00 0. -1.
         23    2    1    2    0    0  0.89904908017E+03  0.11526061221E+04  0.31430685241E+03  0.14978452613E+04  0.89227283198E+02 0.  0.
    5000000    2    1    2    0    0 -0.89904908017E+03 -0.11526061221E+04  0.11708834823E+03  0.15844382723E+04  0.59995402848E+03 0.  0.
         23    2    4    4    0    0 -0.46453201468E+03 -0.17561068479E+03  0.80487309027E+02  0.51096443444E+03  0.89315962045E+02 0.  0.
         23    2    4    4    0    0 -0.43451706550E+03 -0.97699543731E+03  0.36601039204E+02  0.10734738379E+04  0.87642910970E+02 0.  0.
          4    1    3    3  502    0  0.31911791395E+03  0.41062638405E+03  0.15567418598E+03  0.54284871048E+03  0.00000000000E+00 0. -1.
         -4    1    3    3    0  502  0.57993116622E+03  0.74197973805E+03  0.15863266643E+03  0.95499655083E+03  0.00000000000E+00 0.  1.
         15    1    5    5    0    0 -0.13606668207E+03 -0.46092501416E+02  0.64590396861E+02  0.15752376885E+03  0.17770000000E+01 0.  1.
        -15    1    5    5    0    0 -0.32846533261E+03 -0.12951818338E+03  0.15896912167E+02  0.35344066559E+03  0.17770000000E+01 0. -1.
          3    1    6    6  503    0 -0.22578737847E+03 -0.56031558234E+03  0.58498290981E+02  0.60692301170E+03  0.00000000000E+00 0. -1.
         -3    1    6    6    0  503 -0.20872968702E+03 -0.41667985498E+03 -0.21897251778E+02  0.46655082620E+03  0.00000000000E+00 0.  1.
<mgrwt>
<rscale>  0 0.15143336E+04</rscale>
<asrwt>0</asrwt>
<pdfrwt beam="1">  1        1 0.20391449E+00 0.15143336E+04</pdfrwt>
<pdfrwt beam="2">  1       -1 0.27028298E+00 0.15143336E+04</pdfrwt>
<totfact> 0.42208883E-01</totfact>
</mgrwt>
</event>
<event>
12    1  0.8033771E-008  0.5869445E+03  0.7818608E-02  0.9932868E-01
          1   -1    0    0  501    0  0.00000000000E+00  0.00000000000E+00  0.53320368500E+03  0.53320368500E+03  0.00000000000E+00 0. -1.
         -1   -1    0    0    0  501 -0.00000000000E+00 -0.00000000000E+00 -0.89733240528E+03  0.89733240528E+03  0.00000000000E+00 0.  1.
         23    2    1    2    0    0 -0.41885510091E+03 -0.14326889013E+03 -0.49895635617E+03  0.67281890824E+03  0.88103731423E+02 0.  0.
    5000000    2    1    2    0    0  0.41885510091E+03  0.14326889013E+03  0.13482763588E+03  0.75771718204E+03  0.59999272173E+03 0.  0.
         23    2    4    4    0    0  0.54415481584E+03  0.17127131855E+03  0.15148346273E+03  0.59717053433E+03  0.90703249268E+02 0.  0.
         23    2    4    4    0    0 -0.12529971493E+03 -0.28002428414E+02 -0.16655826848E+02  0.16054664772E+03  0.94940270513E+02 0.  0.
          3    1    3    3  502    0 -0.22680727929E+03 -0.12268779820E+03 -0.27209818814E+03  0.37487499483E+03  0.00000000000E+00 0. -1.
         -3    1    3    3    0  502 -0.19204782162E+03 -0.20581091936E+02 -0.22685816803E+03  0.29794391341E+03  0.00000000000E+00 0.  1.
         15    1    5    5    0    0  0.16830584762E+03  0.92946680512E+02  0.70527972737E+02  0.20480062605E+03  0.17770000000E+01 0. -1.
        -15    1    5    5    0    0  0.37584896822E+03  0.78324638036E+02  0.80955489995E+02  0.39236990828E+03  0.17770000000E+01 0.  1.
          3    1    6    6  503    0 -0.36571584870E+02 -0.43258732272E+02  0.24300197908E+02  0.61638448683E+02  0.00000000000E+00 0. -1.
         -3    1    6    6    0  503 -0.88728130065E+02  0.15256303858E+02 -0.40956024756E+02  0.98908199033E+02  0.00000000000E+00 0.  1.
<mgrwt>
<rscale>  0 0.58694448E+03</rscale>
<asrwt>0</asrwt>
<pdfrwt beam="1">  1        1 0.82031336E-01 0.58694448E+03</pdfrwt>
<pdfrwt beam="2">  1       -1 0.13805114E+00 0.58694448E+03</pdfrwt>
<totfact> 0.18461647E+01</totfact>
</mgrwt>
</event>
<event>
12    1  0.8033771E-008  0.7759233E+03  0.7818608E-02  0.9595536E-01
         -2   -1    0    0    0  501 -0.00000000000E+00  0.00000000000E+00  0.25311861901E+03  0.25311861901E+03  0.00000000000E+00 0.  1.
          2   -1    0    0  501    0  0.00000000000E+00 -0.00000000000E+00 -0.26173972109E+04  0.26173972109E+04  0.00000000000E+00 0. -1.
         23    2    1    2    0    0 -0.32387706314E+03  0.62031285736E+03 -0.10479045895E+04  0.12632420086E+04  0.89397710179E+02 0.  0.
    5000000    2    1    2    0    0  0.32387706314E+03 -0.62031285736E+03 -0.13163740024E+04  0.16072738213E+04  0.60066981732E+03 0.  0.
         23    2    4    4    0    0 -0.32978889694E+02 -0.45279225829E+03 -0.42456162613E+03  0.62786230704E+03  0.88600597545E+02 0.  0.
         23    2    4    4    0    0  0.35685595283E+03 -0.16752059908E+03 -0.89181237626E+03  0.97941151426E+03  0.92240325453E+02 0.  0.
          3    1    3    3  502    0 -0.20719172160E+03  0.33305027240E+03 -0.52534372899E+03  0.65561949867E+03  0.00000000000E+00 0. -1.
         -3    1    3    3    0  502 -0.11668534154E+03  0.28726258496E+03 -0.52256086054E+03  0.60762250996E+03  0.00000000000E+00 0.  1.
         15    1    5    5    0    0 -0.22594103838E+02 -0.11519562841E+03 -0.16191556070E+03  0.20000083215E+03  0.17770000000E+01 0.  1.
        -15    1    5    5    0    0 -0.10384785856E+02 -0.33759662988E+03 -0.26264606543E+03  0.42786147489E+03  0.17770000000E+01 0. -1.
          3    1    6    6  503    0  0.31279655114E+03 -0.14260548249E+03 -0.68406191216E+03  0.76558389854E+03  0.00000000000E+00 0. -1.
         -3    1    6    6    0  503  0.44059401694E+02 -0.24915116588E+02 -0.20775046410E+03  0.21382761572E+03  0.00000000000E+00 0.  1.
<mgrwt>
<rscale>  0 0.77592326E+03</rscale>
<asrwt>0</asrwt>
<pdfrwt beam="1">  1        2 0.40267649E+00 0.77592326E+03</pdfrwt>
<pdfrwt beam="2">  1       -2 0.38941327E-01 0.77592326E+03</pdfrwt>
<totfact> 0.19354556E+01</totfact>
</mgrwt>
</event>
<event>
12    1  0.8033771E-008  0.3925530E+03  0.7818608E-02  0.1046389E+00
         -2   -1    0    0    0  501 -0.00000000000E+00  0.00000000000E+00  0.15292497268E+03  0.15292497268E+03  0.00000000000E+00 0.  1.
          2   -1    0    0  501    0  0.00000000000E+00 -0.00000000000E+00 -0.14416096816E+04  0.14416096816E+04  0.00000000000E+00 0. -1.
         23    2    1    2    0    0  0.27516139628E+02 -0.25963186408E+03 -0.48265041086E+03  0.55631845848E+03  0.91503908961E+02 0.  0.
    5000000    2    1    2    0    0 -0.27516139628E+02  0.25963186408E+03 -0.80603429810E+03  0.10382161958E+04  0.60002977994E+03 0.  0.
         23    2    4    4    0    0 -0.16387515550E+03 -0.51311033564E+02 -0.60009365612E+03  0.63079751359E+03  0.91132970293E+02 0.  0.
         23    2    4    4    0    0  0.13635901588E+03  0.31094289765E+03 -0.20594064198E+03  0.40741868226E+03  0.91099768545E+02 0.  0.
          1    1    3    3  502    0 -0.21086931876E+02 -0.60760498040E+02 -0.17807063101E+03  0.18932946534E+03  0.00000000000E+00 0. -1.
         -1    1    3    3    0  502  0.48603071505E+02 -0.19887136604E+03 -0.30457977985E+03  0.36698899313E+03  0.00000000000E+00 0.  1.
         15    1    5    5    0    0 -0.62873816930E+02 -0.69546024167E+00 -0.10031098375E+03  0.11840207646E+03  0.17770000000E+01 0. -1.
        -15    1    5    5    0    0 -0.10100133857E+03 -0.50615573322E+02 -0.49978267237E+03  0.51239543713E+03  0.17770000000E+01 0.  1.
          4    1    6    6  503    0  0.99317903036E+02  0.20176794694E+03 -0.18284852144E+03  0.28984121872E+03  0.00000000000E+00 0.  1.
         -4    1    6    6    0  503  0.37041112840E+02  0.10917495071E+03 -0.23092120543E+02  0.11757746355E+03  0.00000000000E+00 0. -1.
<mgrwt>
<rscale>  0 0.39255302E+03</rscale>
<asrwt>0</asrwt>
<pdfrwt beam="1">  1        2 0.22178610E+00 0.39255302E+03</pdfrwt>
<pdfrwt beam="2">  1       -2 0.23526919E-01 0.39255302E+03</pdfrwt>
<totfact> 0.22978035E+02</totfact>
</mgrwt>
</event>
<event>
12    1  0.8033771E-008  0.8733713E+03  0.7818608E-02  0.9459495E-01
          1   -1    0    0  501    0  0.00000000000E+00  0.00000000000E+00  0.30457985286E+04  0.30457985286E+04  0.00000000000E+00 0. -1.
         -1   -1    0    0    0  501 -0.00000000000E+00 -0.00000000000E+00 -0.30587780092E+03  0.30587780092E+03  0.00000000000E+00 0.  1.
         23    2    1    2    0    0  0.79374873768E+03  0.30444932814E+03  0.15587882863E+04  0.17778805171E+04  0.91168853356E+02 0.  0.
    5000000    2    1    2    0    0 -0.79374873768E+03 -0.30444932814E+03  0.11811324414E+04  0.15737958124E+04  0.59919359388E+03 0.  0.
         23    2    4    4    0    0 -0.28613388779E+03 -0.27424242714E+01  0.65664405090E+02  0.30882916025E+03  0.95830650081E+02 0.  0.
         23    2    4    4    0    0 -0.50761484989E+03 -0.30170690387E+03  0.11154680363E+04  0.12649666521E+04  0.84686476428E+02 0.  0.
          3    1    3    3  502    0  0.18739312103E+03  0.70574064523E+02  0.45242099968E+03  0.49475412211E+03  0.00000000000E+00 0. -1.
         -3    1    3    3    0  502  0.60635561665E+03  0.23387526361E+03  0.11063672866E+04  0.12831263950E+04  0.00000000000E+00 0.  1.
         15    1    5    5    0    0 -0.12973828436E+03  0.44234995846E+02  0.15320812752E+02  0.13793709552E+03  0.17770000000E+01 0.  1.
        -15    1    5    5    0    0 -0.15639560342E+03 -0.46977420117E+02  0.50343592338E+02  0.17089206473E+03  0.17770000000E+01 0. -1.
          2    1    6    6  503    0 -0.13288293795E+03 -0.12291274220E+03  0.31935051281E+03  0.36708332491E+03  0.00000000000E+00 0.  1.
         -2    1    6    6    0  503 -0.37473191194E+03 -0.17879416167E+03  0.79611752348E+03  0.89788332720E+03  0.00000000000E+00 0. -1.
<mgrwt>
<rscale>  0 0.87337129E+03</rscale>
<asrwt>0</asrwt>
<pdfrwt beam="1">  1        1 0.46858437E+00 0.87337129E+03</pdfrwt>
<pdfrwt beam="2">  1       -1 0.47058125E-01 0.87337129E+03</pdfrwt>
<totfact> 0.26144881E+00</totfact>
</mgrwt>
</event>
<event>
12    1  0.8033771E-008  0.8315503E+03  0.7818608E-02  0.9515440E-01
         -2   -1    0    0    0  501 -0.00000000000E+00  0.00000000000E+00  0.20511899519E+04  0.20511899519E+04  0.00000000000E+00 0.  1.
          2   -1    0    0  501    0  0.00000000000E+00 -0.00000000000E+00 -0.36881513989E+03  0.36881513989E+03  0.00000000000E+00 0. -1.
         23    2    1    2    0    0 -0.24735304824E+03 -0.69629208898E+03  0.47705841038E+03  0.88418849313E+03  0.90544800058E+02 0.  0.
    5000000    2    1    2    0    0  0.24735304824E+03  0.69629208898E+03  0.12053164017E+04  0.15358165987E+04  0.59994899201E+03 0.  0.
         23    2    4    4    0    0 -0.11111227762E+03  0.46235381493E+03  0.44027275600E+03  0.65451432729E+03  0.91825467722E+02 0.  0.
         23    2    4    4    0    0  0.35846532587E+03  0.23393827405E+03  0.76504364567E+03  0.88130227140E+03  0.90429021263E+02 0.  0.
          1    1    3    3  502    0 -0.92547375225E+02 -0.37877650988E+03  0.22430789150E+03  0.44983407084E+03  0.00000000000E+00 0. -1.
         -1    1    3    3    0  502 -0.15480567302E+03 -0.31751557910E+03  0.25275051888E+03  0.43435442229E+03  0.00000000000E+00 0.  1.
         15    1    5    5    0    0 -0.11121774783E+03  0.28562456151E+03  0.25829711532E+03  0.40083829044E+03  0.17770000000E+01 0. -1.
        -15    1    5    5    0    0  0.10547020675E+00  0.17672925343E+03  0.18197564069E+03  0.25367603685E+03  0.17770000000E+01 0.  1.
          3    1    6    6  503    0  0.10047073705E+03  0.22130438348E+02  0.15817257449E+03  0.18868674735E+03  0.00000000000E+00 0. -1.
         -3    1    6    6    0  503  0.25799458882E+03  0.21180783570E+03  0.60687107118E+03  0.69261552405E+03  0.00000000000E+00 0.  1.
<mgrwt>
<rscale>  0 0.83155035E+03</rscale>
<asrwt>0</asrwt>
<pdfrwt beam="1">  1        2 0.56740792E-01 0.83155035E+03</pdfrwt>
<pdfrwt beam="2">  1       -2 0.31556768E+00 0.83155035E+03</pdfrwt>
<totfact> 0.22936623E+00</totfact>
</mgrwt>
</event>
<event>
12    1  0.8033771E-008  0.4209333E+03  0.7818608E-02  0.1036763E+00
         -1   -1    0    0    0  501 -0.00000000000E+00  0.00000000000E+00  0.27371381160E+03  0.27371381160E+03  0.00000000000E+00 0.  1.
          1   -1    0    0  501    0  0.00000000000E+00 -0.00000000000E+00 -0.73857312301E+03  0.73857312301E+03  0.00000000000E+00 0. -1.
         23    2    1    2    0    0  0.22619224310E+03 -0.25603352289E+02 -0.20229261073E+03  0.31895324850E+03  0.94817782536E+02 0.  0.
    5000000    2    1    2    0    0 -0.22619224310E+03  0.25603352289E+02 -0.26256670068E+03  0.69333368612E+03  0.59995988659E+03 0.  0.
         23    2    4    4    0    0  0.10630378815E+03  0.18379301883E+03  0.16267251315E+01  0.23119464903E+03  0.91476501692E+02 0.  0.
         23    2    4    4    0    0 -0.33249603125E+03 -0.15818966654E+03 -0.26419342581E+03  0.46213903709E+03  0.90535860106E+02 0.  0.
          2    1    3    3  502    0  0.73389042849E+02  0.33802089044E+02 -0.85657765789E+02  0.11775307076E+03  0.00000000000E+00 0. -1.
         -2    1    3    3    0  502  0.15280320025E+03 -0.59405441333E+02 -0.11663484494E+03  0.20120017774E+03  0.00000000000E+00 0.  1.
         15    1    5    5    0    0  0.32883431346E+02  0.10863911725E+03 -0.36757740585E+02  0.11932337188E+03  0.17770000000E+01 0. -1.
        -15    1    5    5    0    0  0.73420356800E+02  0.75153901579E+02  0.38384465716E+02  0.11187127716E+03  0.17770000000E+01 0.  1.
          4    1    6    6  503    0 -0.18713651499E+03 -0.40444807212E+02 -0.14718740109E+03  0.24149531819E+03  0.00000000000E+00 0. -1.
         -4    1    6    6    0  503 -0.14535951626E+03 -0.11774485933E+03 -0.11700602472E+03  0.22064371889E+03  0.00000000000E+00 0.  1.
<mgrwt>
<rscale>  0 0.42093330E+03</rscale>
<asrwt>0</asrwt>
<pdfrwt beam="1">  1        1 0.11362663E+00 0.42093330E+03</pdfrwt>
<pdfrwt beam="2">  1       -1 0.42109817E-01 0.42093330E+03</pdfrwt>
<totfact> 0.14519543E+02</totfact>
</mgrwt>
</event>
<event>
12    1  0.8033771E-008  0.6488933E+03  0.7818608E-02  0.9808858E-01
         -2   -1    0    0    0  501 -0.00000000000E+00  0.00000000000E+00  0.31402597944E+03  0.31402597944E+03  0.00000000000E+00 0.  1.
          2   -1    0    0  501    0  0.00000000000E+00 -0.00000000000E+00 -0.24994272117E+04  0.24994272117E+04  0.00000000000E+00 0. -1.
         23    2    1    2    0    0 -0.13724889201E+03  0.49486903652E+03 -0.19059122789E+04  0.19757148857E+04  0.84941585747E+02 0.  0.
    5000000    2    1    2    0    0  0.13724889201E+03 -0.49486903652E+03 -0.27948895337E+03  0.83773830546E+03  0.59996564211E+03 0.  0.
         23    2    4    4    0    0  0.34596123488E+03 -0.19999199488E+03 -0.19984804331E+03  0.45552819319E+03  0.88773421205E+02 0.  0.
         23    2    4    4    0    0 -0.20871234287E+03 -0.29487704164E+03 -0.79640910059E+02  0.38221011227E+03  0.96065517315E+02 0.  0.
          1    1    3    3  502    0 -0.19861516515E+01  0.10551194163E+03 -0.31171578987E+03  0.32909489252E+03  0.00000000000E+00 0. -1.
         -1    1    3    3    0  502 -0.13526274036E+03  0.38935709489E+03 -0.15941964890E+04  0.16466199932E+04  0.00000000000E+00 0.  1.
         15    1    5    5    0    0  0.59867349891E+02 -0.76078282660E+02 -0.35877671143E+02  0.10325875116E+03  0.17770000000E+01 0. -1.
        -15    1    5    5    0    0  0.28609388499E+03 -0.12391371222E+03 -0.16397037217E+03  0.35226944203E+03  0.17770000000E+01 0.  1.
          4    1    6    6  503    0 -0.53617170165E+02 -0.22748197587E+02  0.28295431772E+01  0.58311986285E+02  0.00000000000E+00 0.  1.
         -4    1    6    6    0  503 -0.15509517270E+03 -0.27212884405E+03 -0.82470453236E+02  0.32389812599E+03  0.00000000000E+00 0. -1.
<mgrwt>
<rscale>  0 0.64889330E+03</rscale>
<asrwt>0</asrwt>
<pdfrwt beam="1">  1        2 0.38452726E+00 0.64889330E+03</pdfrwt>
<pdfrwt beam="2">  1       -2 0.48311690E-01 0.64889330E+03</pdfrwt>
<totfact> 0.15064092E+01</totfact>
</mgrwt>
</event>
<event>
12    1  0.8033771E-008  0.5815758E+03  0.7818608E-02  0.9944385E-01
         -1   -1    0    0    0  501 -0.00000000000E+00  0.00000000000E+00  0.59769599395E+03  0.59769599395E+03  0.00000000000E+00 0.  1.
          1   -1    0    0  501    0  0.00000000000E+00 -0.00000000000E+00 -0.97664553608E+03  0.97664553608E+03  0.00000000000E+00 0. -1.
         23    2    1    2    0    0  0.93729222317E+02  0.44420947213E+03  0.30720089361E+03  0.55603381894E+03  0.93241602933E+02 0.  0.
    5000000    2    1    2    0    0 -0.93729222317E+02 -0.44420947213E+03 -0.68615043574E+03  0.10183077111E+04  0.60003412551E+03 0.  0.
         23    2    4    4    0    0 -0.29456599766E+03 -0.16040202991E+03 -0.16548806486E+03  0.38558947683E+03  0.93781697856E+02 0.  0.
         23    2    4    4    0    0  0.20083677534E+03 -0.28380744222E+03 -0.52066237087E+03  0.63271823427E+03  0.91438421590E+02 0.  0.
          2    1    3    3  502    0  0.64284974002E+02  0.41517812548E+03  0.29342969440E+03  0.51245138240E+03  0.00000000000E+00 0. -1.
         -2    1    3    3    0  502  0.29444248315E+02  0.29031346651E+02  0.13771199203E+02  0.43582436539E+02  0.00000000000E+00 0.  1.
         15    1    5    5    0    0 -0.16637354159E+03 -0.41470310945E+02 -0.10217242526E+03  0.19960537128E+03  0.17770000000E+01 0. -1.
        -15    1    5    5    0    0 -0.12819245607E+03 -0.11893171897E+03 -0.63315639597E+02  0.18598410555E+03  0.17770000000E+01 0.  1.
          1    1    6    6  503    0  0.16210567506E+03 -0.16906204090E+03 -0.38692716964E+03  0.45229731169E+03  0.00000000000E+00 0. -1.
         -1    1    6    6    0  503  0.38731100284E+02 -0.11474540133E+03 -0.13373520123E+03  0.18042092258E+03  0.00000000000E+00 0.  1.
<mgrwt>
<rscale>  0 0.58157578E+03</rscale>
<asrwt>0</asrwt>
<pdfrwt beam="1">  1        1 0.15025316E+00 0.58157578E+03</pdfrwt>
<pdfrwt beam="2">  1       -1 0.91953230E-01 0.58157578E+03</pdfrwt>
<totfact> 0.19154649E+01</totfact>
</mgrwt>
</event>
<event>
12    1  0.8033771E-008  0.9066565E+03  0.7818608E-02  0.9417299E-01
         -2   -1    0    0    0  501 -0.00000000000E+00  0.00000000000E+00  0.53725152767E+03  0.53725152767E+03  0.00000000000E+00 0.  1.
          2   -1    0    0  501    0  0.00000000000E+00 -0.00000000000E+00 -0.37533572213E+04  0.37533572213E+04  0.00000000000E+00 0. -1.
         23    2    1    2    0    0 -0.51823042958E+03 -0.64253221468E+03  0.85786062971E+02  0.83458579744E+03  0.88112312620E+02 0.  0.
    5000000    2    1    2    0    0  0.51823042958E+03  0.64253221468E+03 -0.33018917566E+04  0.34560229516E+04  0.60016251484E+03 0.  0.
         23    2    4    4    0    0  0.51125676687E+03  0.22310892112E+03 -0.22492756374E+04  0.23193112684E+04  0.93823209394E+02 0.  0.
         23    2    4    4    0    0  0.69736627174E+01  0.41942329356E+03 -0.10526161193E+04  0.11367116832E+04  0.90267518632E+02 0.  0.
          2    1    3    3  502    0 -0.32104252366E+02 -0.31060761706E+02  0.24683353679E+02  0.51036476040E+02  0.00000000000E+00 0. -1.
         -2    1    3    3    0  502 -0.48612617722E+03 -0.61147145297E+03  0.61102709292E+02  0.78354932140E+03  0.00000000000E+00 0.  1.
         15    1    5    5    0    0  0.13943828552E+03  0.26100376389E+02 -0.46939193445E+03  0.49036334587E+03  0.17770000000E+01 0.  1.
        -15    1    5    5    0    0  0.37181848135E+03  0.19700854473E+03 -0.17798837029E+04  0.18289479225E+04  0.17770000000E+01 0. -1.
          1    1    6    6  503    0 -0.28901222085E+02  0.12965160009E+03 -0.40727884191E+03  0.42839336259E+03  0.00000000000E+00 0. -1.
         -1    1    6    6    0  503  0.35874884802E+02  0.28977169347E+03 -0.64533727736E+03  0.70831832057E+03  0.00000000000E+00 0.  1.
<mgrwt>
<rscale>  0 0.90665650E+03</rscale>
<asrwt>0</asrwt>
<pdfrwt beam="1">  1        2 0.57743955E+00 0.90665650E+03</pdfrwt>
<pdfrwt beam="2">  1       -2 0.82654085E-01 0.90665650E+03</pdfrwt>
<totfact> 0.72663542E-01</totfact>
</mgrwt>
</event>
<event>
12    1  0.8033771E-008  0.1088669E+04  0.7818608E-02  0.9216306E-01
         -2   -1    0    0    0  501 -0.00000000000E+00  0.00000000000E+00  0.90892199206E+03  0.90892199206E+03  0.00000000000E+00 0.  1.
          2   -1    0    0  501    0  0.00000000000E+00 -0.00000000000E+00 -0.16645089577E+04  0.16645089577E+04  0.00000000000E+00 0. -1.
         23    2    1    2    0    0 -0.10294031102E+04 -0.19756578897E+03 -0.86314903865E+03  0.13608478937E+04  0.90430762586E+02 0.  0.
    5000000    2    1    2    0    0  0.10294031102E+04  0.19756578897E+03  0.10756207300E+03  0.12125830560E+04  0.60007088250E+03 0.  0.
         23    2    4    4    0    0  0.58938710065E+03 -0.82980025324E+02 -0.15539848299E+03  0.62163427452E+03  0.89541296180E+02 0.  0.
         23    2    4    4    0    0  0.44001600951E+03  0.28054581430E+03  0.26296055599E+03  0.59094878150E+03  0.88046384418E+02 0.  0.
          1    1    3    3  502    0 -0.12536065227E+03 -0.26311260766E+01 -0.13062580671E+03  0.18106716251E+03  0.00000000000E+00 0. -1.
         -1    1    3    3    0  502 -0.90404245789E+03 -0.19493466290E+03 -0.73252323194E+03  0.11797807312E+04  0.00000000000E+00 0.  1.
         15    1    5    5    0    0  0.12862918385E+03  0.14767150188E+02 -0.51132606118E+02  0.13921651052E+03  0.17770000000E+01 0.  1.
        -15    1    5    5    0    0  0.46075791680E+03 -0.97747175513E+02 -0.10426587688E+03  0.48241776400E+03  0.17770000000E+01 0. -1.
          1    1    6    6  503    0  0.17566055218E+03  0.71699811067E+02  0.12314233567E+03  0.22618914062E+03  0.00000000000E+00 0. -1.
         -1    1    6    6    0  503  0.26435545733E+03  0.20884600323E+03  0.13981822032E+03  0.36475964089E+03  0.00000000000E+00 0.  1.
<mgrwt>
<rscale>  0 0.10886692E+04</rscale>
<asrwt>0</asrwt>
<pdfrwt beam="1">  1        2 0.25607830E+00 0.10886692E+04</pdfrwt>
<pdfrwt beam="2">  1       -2 0.13983415E+00 0.10886692E+04</pdfrwt>
<totfact> 0.36395266E+00</totfact>
</mgrwt>
</event>
<event>
12    1  0.8033771E-008  0.7112329E+03  0.7818608E-02  0.9698213E-01
         -2   -1    0    0    0  501 -0.00000000000E+00  0.00000000000E+00  0.50071941395E+03  0.50071941395E+03  0.00000000000E+00 0.  1.
          2   -1    0    0  501    0  0.00000000000E+00 -0.00000000000E+00 -0.21122252150E+04  0.21122252150E+04  0.00000000000E+00 0. -1.
         23    2    1    2    0    0 -0.90309664563E+02 -0.67489330318E+03 -0.15591532026E+04  0.17038044737E+04  0.91401143942E+02 0.  0.
    5000000    2    1    2    0    0  0.90309664563E+02  0.67489330318E+03 -0.52352598381E+02  0.90914015521E+03  0.60013183641E+03 0.  0.
         23    2    4    4    0    0  0.12023681179E+03  0.99125798411E+02 -0.23699321773E+03  0.29705734693E+03  0.88286280343E+02 0.  0.
         23    2    4    4    0    0 -0.29927147223E+02  0.57576750477E+03  0.18464061935E+03  0.61208280828E+03  0.90273762465E+02 0.  0.
          3    1    3    3  502    0  0.18932208433E+02 -0.10507947575E+03 -0.25012992416E+03  0.27196526194E+03  0.00000000000E+00 0. -1.
         -3    1    3    3    0  502 -0.10924187300E+03 -0.56981382743E+03 -0.13090232785E+04  0.14318392117E+04  0.00000000000E+00 0.  1.
         15    1    5    5    0    0  0.60994165207E+02  0.69383914358E+02 -0.20188241447E+03  0.22202270776E+03  0.17770000000E+01 0.  1.
        -15    1    5    5    0    0  0.59242646579E+02  0.29741884053E+02 -0.35110803260E+02  0.75034639169E+02  0.17770000000E+01 0. -1.
          1    1    6    6  503    0 -0.17532162674E+02  0.46537886624E+03  0.11083409081E+03  0.47871605526E+03  0.00000000000E+00 0. -1.
         -1    1    6    6    0  503 -0.12394984549E+02  0.11038863853E+03  0.73806528538E+02  0.13336675303E+03  0.00000000000E+00 0.  1.
<mgrwt>
<rscale>  0 0.71123290E+03</rscale>
<asrwt>0</asrwt>
<pdfrwt beam="1">  1        2 0.32495772E+00 0.71123290E+03</pdfrwt>
<pdfrwt beam="2">  1       -2 0.77033757E-01 0.71123290E+03</pdfrwt>
<totfact> 0.90918417E+00</totfact>
</mgrwt>
</event>
<event>
12    1  0.8033771E-008  0.5053377E+03  0.7818608E-02  0.1012395E+00
         -2   -1    0    0    0  501 -0.00000000000E+00  0.00000000000E+00  0.18278742196E+03  0.18278742196E+03  0.00000000000E+00 0.  1.
          2   -1    0    0  501    0  0.00000000000E+00 -0.00000000000E+00 -0.24936449509E+04  0.24936449509E+04  0.00000000000E+00 0. -1.
         23    2    1    2    0    0 -0.38052229078E+03 -0.11262490432E+03 -0.16503065820E+04  0.16997891244E+04  0.91047625596E+02 0.  0.
    5000000    2    1    2    0    0  0.38052229078E+03  0.11262490432E+03 -0.66055094693E+03  0.97664324841E+03  0.60001908163E+03 0.  0.
         23    2    4    4    0    0  0.36861328311E+03 -0.10483371734E+03 -0.62340910248E+03  0.73740608860E+03  0.90900878221E+02 0.  0.
         23    2    4    4    0    0  0.11909007672E+02  0.21745862166E+03 -0.37141844446E+02  0.23923715981E+03  0.91786847791E+02 0.  0.
          3    1    3    3  502    0 -0.23906438408E+03 -0.48581393548E+02 -0.83855500768E+03  0.87331920421E+03  0.00000000000E+00 0. -1.
         -3    1    3    3    0  502 -0.14145790670E+03 -0.64043510777E+02 -0.81175157431E+03  0.82646992023E+03  0.00000000000E+00 0.  1.
         15    1    5    5    0    0  0.24592567226E+03 -0.11265954598E+03 -0.44387685419E+03  0.51980903128E+03  0.17770000000E+01 0.  1.
        -15    1    5    5    0    0  0.12268761085E+03  0.78258286362E+01 -0.17953224829E+03  0.21759705732E+03  0.17770000000E+01 0. -1.
          2    1    6    6  503    0 -0.16251292634E+01  0.23970381176E+02 -0.38371304480E+02  0.45272256696E+02  0.00000000000E+00 0. -1.
         -2    1    6    6    0  503  0.13534136936E+02  0.19348824049E+03  0.12294600338E+01  0.19396490312E+03  0.00000000000E+00 0.  1.
<mgrwt>
<rscale>  0 0.50533767E+03</rscale>
<asrwt>0</asrwt>
<pdfrwt beam="1">  1        2 0.38363766E+00 0.50533767E+03</pdfrwt>
<pdfrwt beam="2">  1       -2 0.28121144E-01 0.50533767E+03</pdfrwt>
<totfact> 0.44019830E+01</totfact>
</mgrwt>
</event>
<event>
12    1  0.8033771E-008  0.5143169E+03  0.7818608E-02  0.1010108E+00
          2   -1    0    0  501    0  0.00000000000E+00  0.00000000000E+00  0.32182045617E+03  0.32182045617E+03  0.00000000000E+00 0. -1.
         -2   -1    0    0    0  501 -0.00000000000E+00 -0.00000000000E+00 -0.86211422028E+03  0.86211422028E+03  0.00000000000E+00 0.  1.
         23    2    1    2    0    0  0.35927626384E+02 -0.34462826742E+03 -0.21956214223E+03  0.41936946623E+03  0.87199643727E+02 0.  0.
    5000000    2    1    2    0    0 -0.35927626384E+02  0.34462826742E+03 -0.32073162188E+03  0.76456521021E+03  0.60135825458E+03 0.  0.
         23    2    4    4    0    0 -0.30434471446E+03  0.20611766308E+03 -0.17020641648E+03  0.41457821199E+03  0.88287447520E+02 0.  0.
         23    2    4    4    0    0  0.26841708808E+03  0.13851060434E+03 -0.15052520540E+03  0.34998699822E+03  0.92736943986E+02 0.  0.
          2    1    3    3  502    0 -0.13279318447E+02 -0.21742223820E+03 -0.10783341347E+03  0.24305722582E+03  0.00000000000E+00 0. -1.
         -2    1    3    3    0  502  0.49206944830E+02 -0.12720602922E+03 -0.11172872876E+03  0.17631224042E+03  0.00000000000E+00 0.  1.
         15    1    5    5    0    0 -0.14589974123E+03  0.13379620975E+03 -0.54027332983E+02  0.20520787186E+03  0.17770000000E+01 0. -1.
        -15    1    5    5    0    0 -0.15844497323E+03  0.72321453328E+02 -0.11617908350E+03  0.20937034013E+03  0.17770000000E+01 0.  1.
          3    1    6    6  503    0  0.12114221545E+03  0.56073494068E+02 -0.11786619658E+03  0.17807895271E+03  0.00000000000E+00 0.  1.
         -3    1    6    6    0  503  0.14727487263E+03  0.82437110272E+02 -0.32659008823E+02  0.17190804552E+03  0.00000000000E+00 0. -1.
<mgrwt>
<rscale>  0 0.51431689E+03</rscale>
<asrwt>0</asrwt>
<pdfrwt beam="1">  1        2 0.49510840E-01 0.51431689E+03</pdfrwt>
<pdfrwt beam="2">  1       -2 0.13263296E+00 0.51431689E+03</pdfrwt>
<totfact> 0.43114502E+01</totfact>
</mgrwt>
</event>
<event>
12    1  0.8033771E-008  0.3724086E+03  0.7818608E-02  0.1053776E+00
          1   -1    0    0  501    0  0.00000000000E+00  0.00000000000E+00  0.71820544328E+03  0.71820544328E+03  0.00000000000E+00 0. -1.
         -1   -1    0    0    0  501 -0.00000000000E+00 -0.00000000000E+00 -0.39470815857E+03  0.39470815857E+03  0.00000000000E+00 0.  1.
         23    2    1    2    0    0 -0.25152581301E+03  0.47696219383E+02  0.36944945409E+03  0.45895065782E+03  0.92750435196E+02 0.  0.
    5000000    2    1    2    0    0  0.25152581301E+03 -0.47696219383E+02 -0.45952169383E+02  0.65396294404E+03  0.60001313848E+03 0.  0.
         23    2    4    4    0    0 -0.90641867805E+02 -0.54353336414E+02  0.18326548988E+03  0.23166824126E+03  0.94412397766E+02 0.  0.
         23    2    4    4    0    0  0.34216768081E+03  0.66571170315E+01 -0.22921765926E+03  0.42229470277E+03  0.93107688570E+02 0.  0.
          2    1    3    3  502    0 -0.88720622354E+02  0.62566953360E+02  0.13795601944E+03  0.17555009480E+03  0.00000000000E+00 0. -1.
         -2    1    3    3    0  502 -0.16280519066E+03 -0.14870733977E+02  0.23149343465E+03  0.28340056302E+03  0.00000000000E+00 0.  1.
         15    1    5    5    0    0 -0.50760422774E+02 -0.61848233240E+02  0.54956458133E+02  0.97083440888E+02  0.17770000000E+01 0. -1.
        -15    1    5    5    0    0 -0.39881445031E+02  0.74948968257E+01  0.12830903174E+03  0.13458480038E+03  0.17770000000E+01 0.  1.
          3    1    6    6  503    0  0.25634090336E+03 -0.31359391945E+02 -0.18974239361E+03  0.32046255028E+03  0.00000000000E+00 0. -1.
         -3    1    6    6    0  503  0.85826777456E+02  0.38016508977E+02 -0.39475265650E+02  0.10183215249E+03  0.00000000000E+00 0.  1.
<mgrwt>
<rscale>  0 0.37240863E+03</rscale>
<asrwt>0</asrwt>
<pdfrwt beam="1">  1        1 0.11049314E+00 0.37240863E+03</pdfrwt>
<pdfrwt beam="2">  1       -1 0.60724332E-01 0.37240863E+03</pdfrwt>
<totfact> 0.76678926E+01</totfact>
</mgrwt>
</event>
<event>
12    1  0.8033771E-008  0.1082159E+04  0.7818608E-02  0.9222757E-01
          2   -1    0    0  501    0  0.00000000000E+00  0.00000000000E+00  0.19554065345E+04  0.19554065345E+04  0.00000000000E+00 0. -1.
         -2   -1    0    0    0  501 -0.00000000000E+00 -0.00000000000E+00 -0.91276140963E+03  0.91276140963E+03  0.00000000000E+00 0.  1.
         23    2    1    2    0    0 -0.76006968608E+03  0.72768638301E+03 -0.26196767994E+03  0.10879436798E+04  0.88096454245E+02 0.  0.
    5000000    2    1    2    0    0  0.76006968608E+03 -0.72768638301E+03  0.13046128048E+04  0.17802242643E+04  0.59995871627E+03 0.  0.
         23    2    4    4    0    0 -0.24633094347E+02 -0.86961092086E+02  0.39370146595E+03  0.41480623145E+03  0.94309832353E+02 0.  0.
         23    2    4    4    0    0  0.78470278043E+03 -0.64072529093E+03  0.91091133881E+03  0.13654180329E+04  0.91211760795E+02 0.  0.
          2    1    3    3  502    0 -0.45533467715E+03  0.49426523256E+03 -0.17127815540E+03  0.69351567743E+03  0.00000000000E+00 0. -1.
         -2    1    3    3    0  502 -0.30473500893E+03  0.23342115045E+03 -0.90689524543E+02  0.39442800232E+03  0.00000000000E+00 0.  1.
         15    1    5    5    0    0 -0.14086117175E+02 -0.94280555485E+01  0.42458583353E+01  0.17563939492E+02  0.17770000000E+01 0.  1.
        -15    1    5    5    0    0 -0.10546977172E+02 -0.77533036538E+02  0.38945560762E+03  0.39724229195E+03  0.17770000000E+01 0. -1.
          4    1    6    6  503    0  0.55567323782E+03 -0.44737757378E+03  0.69548311579E+03  0.99630126222E+03  0.00000000000E+00 0. -1.
         -4    1    6    6    0  503  0.22902954261E+03 -0.19334771714E+03  0.21542822303E+03  0.36911677067E+03  0.00000000000E+00 0.  1.
<mgrwt>
<rscale>  0 0.10821595E+04</rscale>
<asrwt>0</asrwt>
<pdfrwt beam="1">  1        2 0.30083177E+00 0.10821595E+04</pdfrwt>
<pdfrwt beam="2">  1       -2 0.14042483E+00 0.10821595E+04</pdfrwt>
<totfact> 0.24882665E+00</totfact>
</mgrwt>
</event>
<event>
12    1  0.8033771E-008  0.1193466E+04  0.7818608E-02  0.9118595E-01
          2   -1    0    0  501    0  0.00000000000E+00  0.00000000000E+00  0.15990247887E+04  0.15990247887E+04  0.00000000000E+00 0. -1.
         -2   -1    0    0    0  501 -0.00000000000E+00 -0.00000000000E+00 -0.10185370613E+04  0.10185370613E+04  0.00000000000E+00 0.  1.
         23    2    1    2    0    0 -0.92013182026E+03 -0.71459729920E+03 -0.35295308022E+02  0.11691892225E+04  0.92009850041E+02 0.  0.
    5000000    2    1    2    0    0  0.92013182026E+03  0.71459729920E+03  0.61578303548E+03  0.14483726275E+04  0.60108456526E+03 0.  0.
         23    2    4    4    0    0  0.53337813493E+03  0.20647911385E+03  0.34549340624E+02  0.58023541407E+03  0.91398137394E+02 0.  0.
         23    2    4    4    0    0  0.38675368532E+03  0.50811818535E+03  0.58123369486E+03  0.86813721342E+03  0.89817091309E+02 0.  0.
          3    1    3    3  502    0 -0.23502387750E+03 -0.23035761558E+03 -0.26822431562E+02  0.33018221771E+03  0.00000000000E+00 0. -1.
         -3    1    3    3    0  502 -0.68510794275E+03 -0.48423968362E+03 -0.84728764603E+01  0.83900700477E+03  0.00000000000E+00 0.  1.
         15    1    5    5    0    0  0.89161827264E+02  0.64284727478E+01  0.25452412225E+02  0.92963109458E+02  0.17770000000E+01 0.  1.
        -15    1    5    5    0    0  0.44421630767E+03  0.20005064110E+03  0.90969283991E+01  0.48727230461E+03  0.17770000000E+01 0. -1.
          2    1    6    6  503    0  0.67095190044E+02  0.13646518116E+03  0.17179215557E+03  0.22942766815E+03  0.00000000000E+00 0. -1.
         -2    1    6    6    0  503  0.31965849528E+03  0.37165300419E+03  0.40944153929E+03  0.63870954527E+03  0.00000000000E+00 0.  1.
<mgrwt>
<rscale>  0 0.11934663E+04</rscale>
<asrwt>0</asrwt>
<pdfrwt beam="1">  1        2 0.24600381E+00 0.11934663E+04</pdfrwt>
<pdfrwt beam="2">  1       -2 0.15669801E+00 0.11934663E+04</pdfrwt>
<totfact> 0.28936885E+00</totfact>
</mgrwt>
</event>
<event>
12    1  0.8033771E-008  0.5592661E+03  0.7818608E-02  0.9993717E-01
         -1   -1    0    0    0  501 -0.00000000000E+00  0.00000000000E+00  0.27334676775E+03  0.27334676775E+03  0.00000000000E+00 0.  1.
          1   -1    0    0  501    0  0.00000000000E+00 -0.00000000000E+00 -0.14023632738E+04  0.14023632738E+04  0.00000000000E+00 0. -1.
         23    2    1    2    0    0  0.31183426698E+03 -0.34389406497E+03 -0.51447712366E+03  0.69953198431E+03  0.95679403839E+02 0.  0.
    5000000    2    1    2    0    0 -0.31183426698E+03  0.34389406497E+03 -0.61453938239E+03  0.97617805724E+03  0.59980097444E+03 0.  0.
         23    2    4    4    0    0 -0.27735536042E+02 -0.84789400797E+02 -0.38545128372E+03  0.40597315622E+03  0.91011037829E+02 0.  0.
         23    2    4    4    0    0 -0.28409873094E+03  0.42868346577E+03 -0.22908809867E+03  0.57020490102E+03  0.90391755406E+02 0.  0.
          4    1    3    3  502    0  0.29303616695E+01 -0.40523117785E+02 -0.36517901058E+02  0.54628446731E+02  0.00000000000E+00 0. -1.
         -4    1    3    3    0  502  0.30890390531E+03 -0.30337094719E+03 -0.47795922260E+03  0.64490353758E+03  0.00000000000E+00 0.  1.
         15    1    5    5    0    0 -0.53696443211E+02 -0.19500603912E+02 -0.17435095624E+03  0.18348023119E+03  0.17770000000E+01 0.  1.
        -15    1    5    5    0    0  0.25960907170E+02 -0.65288796884E+02 -0.21110032748E+03  0.22249292503E+03  0.17770000000E+01 0. -1.
          1    1    6    6  503    0 -0.10254019958E+03  0.10754581655E+03 -0.32197377430E+02  0.15204363289E+03  0.00000000000E+00 0. -1.
         -1    1    6    6    0  503 -0.18155853136E+03  0.32113764921E+03 -0.19689072124E+03  0.41816126813E+03  0.00000000000E+00 0.  1.
<mgrwt>
<rscale>  0 0.55926610E+03</rscale>
<asrwt>0</asrwt>
<pdfrwt beam="1">  1        1 0.21574820E+00 0.55926610E+03</pdfrwt>
<pdfrwt beam="2">  1       -1 0.42053349E-01 0.55926610E+03</pdfrwt>
<totfact> 0.44789795E+01</totfact>
</mgrwt>
</event>
<event>
12    1  0.8033771E-008  0.6545746E+03  0.7818608E-02  0.9798233E-01
         -2   -1    0    0    0  501 -0.00000000000E+00  0.00000000000E+00  0.19124772620E+04  0.19124772620E+04  0.00000000000E+00 0.  1.
          2   -1    0    0  501    0  0.00000000000E+00 -0.00000000000E+00 -0.40797896860E+03  0.40797896860E+03  0.00000000000E+00 0. -1.
         23    2    1    2    0    0 -0.44747500110E+03  0.35620086981E+03  0.13616977367E+04  0.14789039821E+04  0.76310719911E+02 0.  0.
    5000000    2    1    2    0    0  0.44747500110E+03 -0.35620086981E+03  0.14280055673E+03  0.84155224849E+03  0.60058742217E+03 0.  0.
         23    2    4    4    0    0  0.21179082505E+03 -0.42013639401E+03  0.27074415998E+03  0.55079660105E+03  0.93298190802E+02 0.  0.
         23    2    4    4    0    0  0.23568417605E+03  0.63935524201E+02 -0.12794360326E+03  0.29075564744E+03  0.92382351190E+02 0.  0.
          3    1    3    3  502    0 -0.27562627429E+03  0.17354786117E+03  0.79990144951E+03  0.86367298912E+03  0.00000000000E+00 0. -1.
         -3    1    3    3    0  502 -0.17184872681E+03  0.18265300865E+03  0.56179628718E+03  0.61523099301E+03  0.00000000000E+00 0.  1.
         15    1    5    5    0    0  0.95736007496E+02 -0.22632082355E+03  0.90813030608E+02  0.26198599688E+03  0.17770000000E+01 0.  1.
        -15    1    5    5    0    0  0.11605481756E+03 -0.19381557047E+03  0.17993112937E+03  0.28881060417E+03  0.17770000000E+01 0. -1.
          4    1    6    6  503    0  0.98031975448E+02 -0.19608026415E+02 -0.52894403439E+02  0.11310420339E+03  0.00000000000E+00 0. -1.
         -4    1    6    6    0  503  0.13765220060E+03  0.83543550616E+02 -0.75049199816E+02  0.17765144405E+03  0.00000000000E+00 0.  1.
<mgrwt>
<rscale>  0 0.65457465E+03</rscale>
<asrwt>0</asrwt>
<pdfrwt beam="1">  1        2 0.62765997E-01 0.65457465E+03</pdfrwt>
<pdfrwt beam="2">  1       -2 0.29422726E+00 0.65457465E+03</pdfrwt>
<totfact> 0.28281373E+00</totfact>
</mgrwt>
</event>
<event>
12    1  0.8033771E-008  0.1068633E+04  0.7818608E-02  0.9236316E-01
          2   -1    0    0  501    0  0.00000000000E+00  0.00000000000E+00  0.24154669474E+04  0.24154669474E+04  0.00000000000E+00 0. -1.
         -2   -1    0    0    0  501 -0.00000000000E+00 -0.00000000000E+00 -0.59569469982E+03  0.59569469982E+03  0.00000000000E+00 0.  1.
         23    2    1    2    0    0  0.85442707485E+03 -0.49178898466E+03  0.18040620226E+03  0.10063739766E+04  0.91324428387E+02 0.  0.
    5000000    2    1    2    0    0 -0.85442707485E+03  0.49178898466E+03  0.16393660454E+04  0.20047876707E+04  0.59979208248E+03 0.  0.
         23    2    4    4    0    0 -0.82561693115E+03  0.21080129909E+03  0.12402087647E+04  0.15072409319E+04  0.87045632678E+02 0.  0.
         23    2    4    4    0    0 -0.28810143698E+02  0.28098768557E+03  0.39915728068E+03  0.49754673877E+03  0.91881003036E+02 0.  0.
          2    1    3    3  502    0  0.38837380848E+03 -0.23199959561E+03  0.37184530517E+02  0.45391708140E+03  0.00000000000E+00 0. -1.
         -2    1    3    3    0  502  0.46605326637E+03 -0.25978938905E+03  0.14322167174E+03  0.55245689516E+03  0.00000000000E+00 0.  1.
         15    1    5    5    0    0 -0.15116258422E+03  0.63984951068E+02  0.19825950641E+03  0.25739889364E+03  0.17770000000E+01 0. -1.
        -15    1    5    5    0    0 -0.67445434693E+03  0.14681634802E+03  0.10419492583E+04  0.12498420383E+04  0.17770000000E+01 0.  1.
          3    1    6    6  503    0 -0.52258451117E+02  0.86939086236E+02  0.14347520275E+03  0.17571136626E+03  0.00000000000E+00 0. -1.
         -3    1    6    6    0  503  0.23448307419E+02  0.19404859933E+03  0.25568207793E+03  0.32183537251E+03  0.00000000000E+00 0.  1.
<mgrwt>
<rscale>  0 0.10686326E+04</rscale>
<asrwt>0</asrwt>
<pdfrwt beam="1">  1        2 0.37161029E+00 0.10686326E+04</pdfrwt>
<pdfrwt beam="2">  1       -2 0.91645340E-01 0.10686326E+04</pdfrwt>
<totfact> 0.39426075E+00</totfact>
</mgrwt>
</event>
<event>
12    1  0.8033771E-008  0.1066084E+04  0.7818608E-02  0.9238894E-01
          2   -1    0    0  501    0  0.00000000000E+00  0.00000000000E+00  0.49855625920E+03  0.49855625920E+03  0.00000000000E+00 0. -1.
         -2   -1    0    0    0  501 -0.00000000000E+00 -0.00000000000E+00 -0.25129623782E+04  0.25129623782E+04  0.00000000000E+00 0.  1.
         23    2    1    2    0    0 -0.55196543504E+02  0.10261263230E+04 -0.75031684636E+03  0.12754408560E+04  0.88272973957E+02 0.  0.
    5000000    2    1    2    0    0  0.55196543504E+02 -0.10261263230E+04 -0.12640892727E+04  0.17360777815E+04  0.60005206844E+03 0.  0.
         23    2    4    4    0    0  0.32909774642E+02 -0.10324086394E+04 -0.12737883247E+04  0.16425983769E+04  0.92962785754E+02 0.  0.
         23    2    4    4    0    0  0.22286768862E+02  0.62823164389E+01  0.96990520116E+01  0.93479404593E+02  0.90045321405E+02 0.  0.
          2    1    3    3  502    0 -0.21226105654E+02  0.53327465229E+03 -0.33578253311E+03  0.63054128483E+03  0.00000000000E+00 0. -1.
         -2    1    3    3    0  502 -0.33970437851E+02  0.49285167072E+03 -0.41453431324E+03  0.64489957112E+03  0.00000000000E+00 0.  1.
         15    1    5    5    0    0 -0.63657163892E+00 -0.54021576732E+03 -0.59775049442E+03  0.80569367119E+03  0.17770000000E+01 0. -1.
        -15    1    5    5    0    0  0.33546346281E+02 -0.49219287213E+03 -0.67603783027E+03  0.83690470569E+03  0.17770000000E+01 0.  1.
          3    1    6    6  503    0 -0.92090009568E+01  0.30054540670E+02 -0.25596517064E+02  0.40537177989E+02  0.00000000000E+00 0. -1.
         -3    1    6    6    0  503  0.31495769819E+02 -0.23772224231E+02  0.35295569076E+02  0.52942226604E+02  0.00000000000E+00 0.  1.
<mgrwt>
<rscale>  0 0.10660844E+04</rscale>
<asrwt>0</asrwt>
<pdfrwt beam="1">  1        2 0.76700964E-01 0.10660844E+04</pdfrwt>
<pdfrwt beam="2">  1       -2 0.38660959E+00 0.10660844E+04</pdfrwt>
<totfact> 0.56618086E-01</totfact>
</mgrwt>
</event>
<event>
12    1  0.8033771E-008  0.5426820E+03  0.7818608E-02  0.1003202E+00
         -2   -1    0    0    0  501 -0.00000000000E+00  0.00000000000E+00  0.20529631892E+03  0.20529631892E+03  0.00000000000E+00 0.  1.
          2   -1    0    0  501    0  0.00000000000E+00 -0.00000000000E+00 -0.20957007890E+04  0.20957007890E+04  0.00000000000E+00 0. -1.
         23    2    1    2    0    0 -0.43832018868E+02  0.37291849765E+03 -0.13619415366E+04  0.14176537590E+04  0.11776238632E+03 0.  0.
    5000000    2    1    2    0    0  0.43832018868E+02 -0.37291849765E+03 -0.52846293353E+03  0.88334334892E+03  0.60002745621E+03 0.  0.
         23    2    4    4    0    0  0.18547785140E+03  0.80032890351E+02 -0.14512428402E+03  0.26519602161E+03  0.91981384893E+02 0.  0.
         23    2    4    4    0    0 -0.14164583254E+03 -0.45295138800E+03 -0.38333864951E+03  0.61814732731E+03  0.99644850792E+02 0.  0.
          3    1    3    3  502    0  0.31806879074E+02  0.17935259475E+03 -0.54217884284E+03  0.57195885204E+03  0.00000000000E+00 0. -1.
         -3    1    3    3    0  502 -0.75638897942E+02  0.19356590290E+03 -0.81976269375E+03  0.84569490699E+03  0.00000000000E+00 0.  1.
         15    1    5    5    0    0  0.10082858952E+03  0.10401305384E+02 -0.11112610835E+03  0.15042194422E+03  0.17770000000E+01 0.  1.
        -15    1    5    5    0    0  0.84649261888E+02  0.69631584967E+02 -0.33998175674E+02  0.11477407739E+03  0.17770000000E+01 0. -1.
          4    1    6    6  503    0  0.11456049818E+02 -0.86314132339E+02 -0.57976811909E+02  0.10460727144E+03  0.00000000000E+00 0.  1.
         -4    1    6    6    0  503 -0.15310188235E+03 -0.36663725566E+03 -0.32536183760E+03  0.51354005587E+03  0.00000000000E+00 0. -1.
<mgrwt>
<rscale>  0 0.54268198E+03</rscale>
<asrwt>0</asrwt>
<pdfrwt beam="1">  1        2 0.32241550E+00 0.54268198E+03</pdfrwt>
<pdfrwt beam="2">  1       -2 0.31584049E-01 0.54268198E+03</pdfrwt>
<totfact> 0.58390968E+01</totfact>
</mgrwt>
</event>
<event>
12    1  0.8033771E-008  0.6098201E+03  0.7818608E-02  0.9885239E-01
          1   -1    0    0  501    0  0.00000000000E+00  0.00000000000E+00  0.19165242736E+04  0.19165242736E+04  0.00000000000E+00 0.  1.
         -1   -1    0    0    0  501 -0.00000000000E+00 -0.00000000000E+00 -0.27288594978E+03  0.27288594978E+03  0.00000000000E+00 0. -1.
         23    2    1    2    0    0 -0.36923870793E+03  0.28512308086E+03  0.12412460513E+04  0.13294379869E+04  0.95295363428E+02 0.  0.
    5000000    2    1    2    0    0  0.36923870793E+03 -0.28512308086E+03  0.40239227249E+03  0.85997223652E+03  0.60000025997E+03 0.  0.
         23    2    4    4    0    0  0.49127779538E+03 -0.10666336717E+03  0.34411982365E+03  0.61607353624E+03  0.91636253221E+02 0.  0.
         23    2    4    4    0    0 -0.12203908745E+03 -0.17845971369E+03  0.58272448839E+02  0.24389870028E+03  0.96692757889E+02 0.  0.
          2    1    3    3  502    0 -0.24123798161E+03  0.23321111170E+03  0.81488797538E+03  0.88126363752E+03  0.00000000000E+00 0. -1.
         -2    1    3    3    0  502 -0.12800072632E+03  0.51911969158E+02  0.42635807595E+03  0.44817434934E+03  0.00000000000E+00 0.  1.
         15    1    5    5    0    0  0.46145281360E+02  0.15621973148E+02  0.42217603113E+02  0.64489664121E+02  0.17770000000E+01 0. -1.
        -15    1    5    5    0    0  0.44513251402E+03 -0.12228534031E+03  0.30190222053E+03  0.55158387212E+03  0.17770000000E+01 0.  1.
          3    1    6    6  503    0 -0.39575482512E+02 -0.62836906763E+00  0.65757468642E+00  0.39585932706E+02  0.00000000000E+00 0. -1.
         -3    1    6    6    0  503 -0.82463604937E+02 -0.17783134462E+03  0.57614874152E+02  0.20431276757E+03  0.00000000000E+00 0.  1.
<mgrwt>
<rscale>  0 0.60982010E+03</rscale>
<asrwt>0</asrwt>
<pdfrwt beam="1">  1        1 0.29484988E+00 0.60982010E+03</pdfrwt>
<pdfrwt beam="2">  1       -1 0.41982455E-01 0.60982010E+03</pdfrwt>
<totfact> 0.20105441E+01</totfact>
</mgrwt>
</event>
<event>
12    1  0.8033771E-008  0.4824426E+03  0.7818608E-02  0.1018466E+00
          2   -1    0    0  501    0  0.00000000000E+00  0.00000000000E+00  0.15322126900E+04  0.15322126900E+04  0.00000000000E+00 0. -1.
         -2   -1    0    0    0  501 -0.00000000000E+00 -0.00000000000E+00 -0.65285719405E+03  0.65285719405E+03  0.00000000000E+00 0.  1.
         23    2    1    2    0    0  0.27567926581E+03  0.16886570205E+03  0.13276146695E+04  0.13694278695E+04  0.90869666182E+02 0.  0.
    5000000    2    1    2    0    0 -0.27567926581E+03 -0.16886570205E+03 -0.44825917357E+03  0.81564201451E+03  0.59985075328E+03 0.  0.
         23    2    4    4    0    0 -0.39842402677E+03  0.18528108647E+02 -0.16322789545E+03  0.44191027074E+03  0.97756563048E+02 0.  0.
         23    2    4    4    0    0  0.12274476096E+03 -0.18739381070E+03 -0.28503127812E+03  0.37373174376E+03  0.90828795881E+02 0.  0.
          1    1    3    3  502    0  0.16716259945E+03  0.90579842509E+02  0.59322952973E+03  0.62295209885E+03  0.00000000000E+00 0. -1.
         -1    1    3    3    0  502  0.10851666636E+03  0.78285859542E+02  0.73438513976E+03  0.74647577066E+03  0.00000000000E+00 0.  1.
         15    1    5    5    0    0 -0.13261825864E+02 -0.52566929195E+01  0.11390656363E+02  0.18341581913E+02  0.17770000000E+01 0.  1.
        -15    1    5    5    0    0 -0.38516220090E+03  0.23784801567E+02 -0.17461855181E+03  0.42356868883E+03  0.17770000000E+01 0.  1.
          3    1    6    6  503    0  0.10460103583E+03 -0.19477667743E+03 -0.27042136690E+03  0.34929507073E+03  0.00000000000E+00 0. -1.
         -3    1    6    6    0  503  0.18143725135E+02  0.73828667288E+01 -0.14609911221E+02  0.24436673031E+02  0.00000000000E+00 0.  1.
<mgrwt>
<rscale>  0 0.48244257E+03</rscale>
<asrwt>0</asrwt>
<pdfrwt beam="1">  1        2 0.23572503E+00 0.48244257E+03</pdfrwt>
<pdfrwt beam="2">  1       -2 0.10043957E+00 0.48244257E+03</pdfrwt>
<totfact> 0.10677715E+01</totfact>
</mgrwt>
</event>
<event>
12    1  0.8033771E-008  0.8389453E+03  0.7818608E-02  0.9505296E-01
         -1   -1    0    0    0  501 -0.00000000000E+00  0.00000000000E+00  0.53321675738E+03  0.53321675738E+03  0.00000000000E+00 0.  1.
          1   -1    0    0  501    0  0.00000000000E+00 -0.00000000000E+00 -0.16324230795E+04  0.16324230795E+04  0.00000000000E+00 0. -1.
         23    2    1    2    0    0 -0.59235091921E+03  0.44174724970E+03 -0.94228134479E+03  0.12009180993E+04  0.91048912179E+02 0.  0.
    5000000    2    1    2    0    0  0.59235091921E+03 -0.44174724970E+03 -0.15692497731E+03  0.96472173756E+03  0.60003528088E+03 0.  0.
         23    2    4    4    0    0  0.42208339762E+03 -0.56739863972E+03 -0.65547807726E+02  0.71607177632E+03  0.91469464007E+02 0.  0.
         23    2    4    4    0    0  0.17026752160E+03  0.12565139003E+03 -0.91377169588E+02  0.24864996123E+03  0.93261542839E+02 0.  0.
          2    1    3    3  502    0 -0.31489746760E+03  0.26429909958E+03 -0.58485547249E+03  0.71489184696E+03  0.00000000000E+00 0.  1.
         -2    1    3    3    0  502 -0.27745345161E+03  0.17744815011E+03 -0.35742587230E+03  0.48602625235E+03  0.00000000000E+00 0. -1.
         15    1    5    5    0    0  0.13190399432E+03 -0.24321691585E+03 -0.45184071909E+01  0.27672496383E+03  0.17770000000E+01 0.  1.
        -15    1    5    5    0    0  0.29017940330E+03 -0.32418172387E+03 -0.61029400535E+02  0.43934681250E+03  0.17770000000E+01 0. -1.
          1    1    6    6  503    0  0.91129868739E+02  0.19400311332E+02 -0.11323262417E+02  0.93857558715E+02  0.00000000000E+00 0. -1.
         -1    1    6    6    0  503  0.79137652856E+02  0.10625107870E+03 -0.80053907171E+02  0.15479240252E+03  0.00000000000E+00 0.  1.
<mgrwt>
<rscale>  0 0.83894526E+03</rscale>
<asrwt>0</asrwt>
<pdfrwt beam="1">  1        1 0.25114201E+00 0.83894526E+03</pdfrwt>
<pdfrwt beam="2">  1       -1 0.82033348E-01 0.83894526E+03</pdfrwt>
<totfact> 0.80549138E+00</totfact>
</mgrwt>
</event>
<event>
12    1  0.1236532E-007  0.8500095E+03  0.7818608E-02  0.9490324E-01
          2   -1    0    0  501    0  0.00000000000E+00  0.00000000000E+00  0.21126734440E+04  0.21126734440E+04  0.00000000000E+00 0. -1.
         -2   -1    0    0    0  501 -0.00000000000E+00 -0.00000000000E+00 -0.55027252910E+03  0.55027252910E+03  0.00000000000E+00 0.  1.
         23    2    1    2    0    0 -0.69115938221E+03  0.48472869643E+03  0.13662229108E+04  0.16087926034E+04  0.94791339888E+02 0.  0.
    5000000    2    1    2    0    0  0.69115938221E+03 -0.48472869643E+03  0.19617800414E+03  0.10541533697E+04  0.60007525925E+03 0.  0.
         23    2    4    4    0    0  0.19134329359E+03 -0.12651295727E+03 -0.19931246909E+03  0.31730133109E+03  0.91306571586E+02 0.  0.
         23    2    4    4    0    0  0.49981608863E+03 -0.35821573915E+03  0.39549047323E+03  0.73685203861E+03  0.91671010439E+02 0.  0.
          2    1    3    3  502    0 -0.25655621402E+03  0.22380549879E+03  0.60542227616E+03  0.69458341811E+03  0.00000000000E+00 0. -1.
         -2    1    3    3    0  502 -0.43460316819E+03  0.26092319764E+03  0.76080063460E+03  0.91420918529E+03  0.00000000000E+00 0.  1.
         15    1    5    5    0    0  0.56105684388E+02 -0.53906872549E+02 -0.12379307787E+03  0.14622476735E+03  0.17770000000E+01 0.  1.
        -15    1    5    5    0    0  0.13523760920E+03 -0.72606084724E+02 -0.75519391222E+02  0.17107656374E+03  0.17770000000E+01 0. -1.
          1    1    6    6  503    0  0.18780475628E+03 -0.83220010410E+02  0.11835046965E+03  0.23707178297E+03  0.00000000000E+00 0. -1.
         -1    1    6    6    0  503  0.31201133235E+03 -0.27499572874E+03  0.27714000358E+03  0.49978025564E+03  0.00000000000E+00 0.  1.
<mgrwt>
<rscale>  0 0.85000951E+03</rscale>
<asrwt>0</asrwt>
<pdfrwt beam="1">  1        2 0.32502668E+00 0.85000951E+03</pdfrwt>
<pdfrwt beam="2">  1       -2 0.84657313E-01 0.85000951E+03</pdfrwt>
<totfact> 0.71913310E+00</totfact>
</mgrwt>
</event>
<event>
12    1  0.8033771E-008  0.6229516E+03  0.7818608E-02  0.9858901E-01
          1   -1    0    0  501    0  0.00000000000E+00  0.00000000000E+00  0.15510014623E+04  0.15510014623E+04  0.00000000000E+00 0. -1.
         -1   -1    0    0    0  501 -0.00000000000E+00 -0.00000000000E+00 -0.67216440792E+03  0.67216440792E+03  0.00000000000E+00 0.  1.
         23    2    1    2    0    0 -0.30880324300E+03 -0.37040962470E+03 -0.46344732666E+03  0.67582329554E+03  0.96907013416E+02 0.  0.
    5000000    2    1    2    0    0  0.30880324300E+03  0.37040962470E+03  0.13422843811E+04  0.15473425747E+04  0.59998245880E+03 0.  0.
         23    2    4    4    0    0  0.49691618951E+02  0.46450977284E+03  0.90525269148E+03  0.10228057260E+04  0.91708950248E+02 0.  0.
         23    2    4    4    0    0  0.25911162405E+03 -0.94100148139E+02  0.43703168960E+03  0.52453684875E+03  0.90269243883E+02 0.  0.
          1    1    3    3  502    0 -0.23744948397E+03 -0.33788120147E+03 -0.37803302872E+03  0.55987046229E+03  0.00000000000E+00 0. -1.
         -1    1    3    3    0  502 -0.71353759033E+02 -0.32528423230E+02 -0.85414297937E+02  0.11595283325E+03  0.00000000000E+00 0.  1.
         15    1    5    5    0    0  0.14111813591E+02  0.14096434208E+03  0.37189574087E+03  0.39796945715E+03  0.17770000000E+01 0. -1.
        -15    1    5    5    0    0  0.35579805360E+02  0.32354543077E+03  0.53335695061E+03  0.62483626881E+03  0.17770000000E+01 0.  1.
          4    1    6    6  503    0  0.15468214211E+03 -0.13223343975E+02  0.27165268255E+03  0.31288432662E+03  0.00000000000E+00 0. -1.
         -4    1    6    6    0  503  0.10442948194E+03 -0.80876804164E+02  0.16537900705E+03  0.21165252213E+03  0.00000000000E+00 0.  1.
<mgrwt>
<rscale>  0 0.62295160E+03</rscale>
<asrwt>0</asrwt>
<pdfrwt beam="1">  1        1 0.23861561E+00 0.62295160E+03</pdfrwt>
<pdfrwt beam="2">  1       -1 0.10340991E+00 0.62295160E+03</pdfrwt>
<totfact> 0.56738984E+00</totfact>
</mgrwt>
</event>
<event>
12    1  0.8033771E-008  0.7230749E+03  0.7818608E-02  0.9678565E-01
         -2   -1    0    0    0  501 -0.00000000000E+00  0.00000000000E+00  0.30274542397E+03  0.30274542397E+03  0.00000000000E+00 0. -1.
          2   -1    0    0  501    0  0.00000000000E+00 -0.00000000000E+00 -0.21903151236E+04  0.21903151236E+04  0.00000000000E+00 0.  1.
         23    2    1    2    0    0 -0.57713542195E+03  0.19853958502E+03 -0.29253921430E+03  0.68291196115E+03  0.91029076037E+02 0.  0.
    5000000    2    1    2    0    0  0.57713542195E+03 -0.19853958502E+03 -0.15950304853E+04  0.18101485864E+04  0.60001032802E+03 0.  0.
         23    2    4    4    0    0  0.58610561131E+03  0.29141596041E+02 -0.95335553236E+03  0.11231254482E+04  0.90304933645E+02 0.  0.
         23    2    4    4    0    0 -0.89701893603E+01 -0.22768118106E+03 -0.64167495297E+03  0.68702313824E+03  0.91295469283E+02 0.  0.
          1    1    3    3  502    0 -0.37406089672E+03  0.14480859720E+03 -0.14630634596E+03  0.42696209567E+03  0.00000000000E+00 0. -1.
         -1    1    3    3    0  502 -0.20307452523E+03  0.53730987822E+02 -0.14623286835E+03  0.25594986548E+03  0.00000000000E+00 0.  1.
         15    1    5    5    0    0  0.40538799615E+03  0.55937469861E+02 -0.61757909680E+03  0.74086134093E+03  0.17770000000E+01 0. -1.
        -15    1    5    5    0    0  0.18071761516E+03 -0.26795873820E+02 -0.33577643556E+03  0.38226410725E+03  0.17770000000E+01 0.  1.
          3    1    6    6  503    0 -0.13190571203E+02 -0.23458112038E+03 -0.59602604045E+03  0.64066319865E+03  0.00000000000E+00 0. -1.
         -3    1    6    6    0  503  0.42203818426E+01  0.68999393174E+01 -0.45648912513E+02  0.46359939593E+02  0.00000000000E+00 0.  1.
<mgrwt>
<rscale>  0 0.72307491E+03</rscale>
<asrwt>0</asrwt>
<pdfrwt beam="1">  1        2 0.33697155E+00 0.72307491E+03</pdfrwt>
<pdfrwt beam="2">  1       -2 0.46576220E-01 0.72307491E+03</pdfrwt>
<totfact> 0.23802007E+01</totfact>
</mgrwt>
</event>
<event>
12    1  0.8033771E-008  0.1238755E+04  0.7818608E-02  0.9079595E-01
         -1   -1    0    0    0  501 -0.00000000000E+00  0.00000000000E+00  0.93410171089E+03  0.93410171089E+03  0.00000000000E+00 0.  1.
          1   -1    0    0  501    0  0.00000000000E+00 -0.00000000000E+00 -0.25576905322E+04  0.25576905322E+04  0.00000000000E+00 0. -1.
         23    2    1    2    0    0 -0.82457749490E+02  0.11733656244E+04  0.24370088256E+03  0.12047925385E+04  0.92459567279E+02 0.  0.
    5000000    2    1    2    0    0  0.82457749490E+02 -0.11733656244E+04 -0.18672897038E+04  0.22869997046E+04  0.60000886791E+03 0.  0.
         23    2    4    4    0    0 -0.90129500601E+02 -0.10739737002E+04 -0.13837740446E+04  0.17561715289E+04  0.88119219354E+02 0.  0.
         23    2    4    4    0    0  0.17258725009E+03 -0.99391924267E+02 -0.48351565923E+03  0.53082817567E+03  0.91247169096E+02 0.  0.
          3    1    3    3  502    0 -0.82553876766E+02  0.51921263047E+03  0.10876806518E+03  0.53686813112E+03  0.00000000000E+00 0. -1.
         -3    1    3    3    0  502  0.96127275995E-01  0.65415299397E+03  0.13493281737E+03  0.66792440737E+03  0.00000000000E+00 0.  1.
         15    1    5    5    0    0 -0.59548216488E+02 -0.46314066088E+03 -0.66202610147E+03  0.81014009813E+03  0.17770000000E+01 0. -1.
        -15    1    5    5    0    0 -0.30581284113E+02 -0.61083303930E+03 -0.72174794314E+03  0.94603143076E+03  0.17770000000E+01 0.  1.
          3    1    6    6  503    0  0.11085294256E+03 -0.11205427117E+02 -0.24441729955E+03  0.26861450592E+03  0.00000000000E+00 0. -1.
         -3    1    6    6    0  503  0.61734307533E+02 -0.88186497150E+02 -0.23909835967E+03  0.26221366975E+03  0.00000000000E+00 0.  1.
<mgrwt>
<rscale>  0 0.12387551E+04</rscale>
<asrwt>0</asrwt>
<pdfrwt beam="1">  1        1 0.39349086E+00 0.12387551E+04</pdfrwt>
<pdfrwt beam="2">  1       -1 0.14370795E+00 0.12387551E+04</pdfrwt>
<totfact> 0.47471956E-01</totfact>
</mgrwt>
</event>
<event>
12    1  0.8033771E-008  0.1189695E+04  0.7818608E-02  0.9121924E-01
          1   -1    0    0  501    0  0.00000000000E+00  0.00000000000E+00  0.20025936703E+04  0.20025936703E+04  0.00000000000E+00 0. -1.
         -1   -1    0    0    0  501 -0.00000000000E+00 -0.00000000000E+00 -0.73535700598E+03  0.73535700598E+03  0.00000000000E+00 0.  1.
         23    2    1    2    0    0  0.52260272393E+03 -0.10030743280E+04  0.46195695141E+03  0.12252931608E+04  0.93098820897E+02 0.  0.
    5000000    2    1    2    0    0 -0.52260272393E+03  0.10030743280E+04  0.80527971286E+03  0.15126575154E+04  0.60032127106E+03 0.  0.
         23    2    4    4    0    0 -0.61349286364E+03  0.82186877280E+03  0.52496348297E+03  0.11556956162E+04  0.90575523726E+02 0.  0.
         23    2    4    4    0    0  0.90890139709E+02  0.18120555519E+03  0.28031622988E+03  0.35696189918E+03  0.88023508236E+02 0.  0.
          4    1    3    3  502    0  0.21794077145E+03 -0.51461732750E+03  0.24229255786E+03  0.60912630646E+03  0.00000000000E+00 0. -1.
         -4    1    3    3    0  502  0.30466195248E+03 -0.48845700049E+03  0.21966439356E+03  0.61616685436E+03  0.00000000000E+00 0.  1.
         15    1    5    5    0    0 -0.38545591542E+03  0.58555504010E+03  0.36650292004E+03  0.79106163846E+03  0.17770000000E+01 0. -1.
        -15    1    5    5    0    0 -0.22803694822E+03  0.23631373270E+03  0.15846056294E+03  0.36463397778E+03  0.17770000000E+01 0.  1.
          3    1    6    6  503    0  0.90040161307E+02  0.18805700825E+03  0.24839914367E+03  0.32430665052E+03  0.00000000000E+00 0. -1.
         -3    1    6    6    0  503  0.84997840173E+00 -0.68514530568E+01  0.31917086219E+02  0.32655248659E+02  0.00000000000E+00 0.  1.
<mgrwt>
<rscale>  0 0.11896955E+04</rscale>
<asrwt>0</asrwt>
<pdfrwt beam="1">  1        1 0.30809133E+00 0.11896955E+04</pdfrwt>
<pdfrwt beam="2">  1       -1 0.11313185E+00 0.11896955E+04</pdfrwt>
<totfact> 0.20898724E+00</totfact>
</mgrwt>
</event>
<event>
12    1  0.8033771E-008  0.4254338E+03  0.7818608E-02  0.1035312E+00
         -2   -1    0    0    0  501 -0.00000000000E+00  0.00000000000E+00  0.21520559684E+03  0.21520559684E+03  0.00000000000E+00 0. -1.
          2   -1    0    0  501    0  0.00000000000E+00 -0.00000000000E+00 -0.18991140437E+04  0.18991140437E+04  0.00000000000E+00 0.  1.
         23    2    1    2    0    0 -0.29489827855E+03 -0.12763756067E+03 -0.12799332847E+04  0.13227933343E+04  0.91085949913E+02 0.  0.
    5000000    2    1    2    0    0  0.29489827855E+03  0.12763756067E+03 -0.40397516209E+03  0.79152630623E+03  0.60005134803E+03 0.  0.
         23    2    4    4    0    0  0.13487679129E+03  0.26579630834E+03  0.12632995475E+02  0.31542174879E+03  0.10242978413E+03 0.  0.
         23    2    4    4    0    0  0.16002148726E+03 -0.13815874767E+03 -0.41660815756E+03  0.47610455744E+03  0.91752257315E+02 0.  0.
          2    1    3    3  502    0 -0.14109088519E+03 -0.66680831460E+02 -0.80178807156E+03  0.81683357109E+03  0.00000000000E+00 0. -1.
         -2    1    3    3    0  502 -0.15380739336E+03 -0.60956729205E+02 -0.47814521316E+03  0.50595976318E+03  0.00000000000E+00 0.  1.
         15    1    5    5    0    0  0.10616623900E+03  0.24705883317E+03  0.39543256130E+02  0.27180170011E+03  0.17770000000E+01 0.  1.
        -15    1    5    5    0    0  0.28710552289E+02  0.18737475169E+02 -0.26910260656E+02  0.43620048671E+02  0.17770000000E+01 0. -1.
          3    1    6    6  503    0  0.37919564901E+02  0.46864795607E+01 -0.40592705175E+02  0.55746068977E+02  0.00000000000E+00 0. -1.
         -3    1    6    6    0  503  0.12210192236E+03 -0.14284522723E+03 -0.37601545239E+03  0.42035848846E+03  0.00000000000E+00 0.  1.
<mgrwt>
<rscale>  0 0.42543383E+03</rscale>
<asrwt>0</asrwt>
<pdfrwt beam="1">  1        2 0.29217140E+00 0.42543383E+03</pdfrwt>
<pdfrwt beam="2">  1       -2 0.33108553E-01 0.42543383E+03</pdfrwt>
<totfact> 0.69682485E+01</totfact>
</mgrwt>
</event>
<event>
12    1  0.8033771E-008  0.6921185E+03  0.7818608E-02  0.9730806E-01
          1   -1    0    0  501    0  0.00000000000E+00  0.00000000000E+00  0.66716062293E+03  0.66716062293E+03  0.00000000000E+00 0. -1.
         -1   -1    0    0    0  501 -0.00000000000E+00 -0.00000000000E+00 -0.87862878245E+03  0.87862878245E+03  0.00000000000E+00 0.  1.
         23    2    1    2    0    0  0.92607495249E+02  0.58072256293E+03 -0.35556422158E+03  0.69333905708E+03  0.92077625556E+02 0.  0.
    5000000    2    1    2    0    0 -0.92607495249E+02 -0.58072256293E+03  0.14409606206E+03  0.85245034830E+03  0.60007755993E+03 0.  0.
         23    2    4    4    0    0  0.22164161320E+03 -0.18611515552E+03 -0.43894051936E+02  0.30653792325E+03  0.90966778425E+02 0.  0.
         23    2    4    4    0    0 -0.31424910845E+03 -0.39460740741E+03  0.18799011400E+03  0.54591242505E+03  0.90623312254E+02 0.  0.
          1    1    3    3  502    0  0.82125018534E+02  0.38369390612E+03 -0.19095017106E+03  0.43637999506E+03  0.00000000000E+00 0. -1.
         -1    1    3    3    0  502  0.10482476715E+02  0.19702865681E+03 -0.16461405052E+03  0.25695906202E+03  0.00000000000E+00 0.  1.
         15    1    5    5    0    0  0.82423521068E+02 -0.63687828932E+02 -0.60372539391E+02  0.12040671751E+03  0.17770000000E+01 0. -1.
        -15    1    5    5    0    0  0.13921809213E+03 -0.12242732659E+03  0.16478487455E+02  0.18613120574E+03  0.17770000000E+01 0.  1.
          1    1    6    6  503    0 -0.99234749460E+02 -0.10792230731E+03  0.13209527385E+02  0.14720479452E+03  0.00000000000E+00 0. -1.
         -1    1    6    6    0  503 -0.21501435899E+03 -0.28668510010E+03  0.17478058661E+03  0.39870763053E+03  0.00000000000E+00 0.  1.
<mgrwt>
<rscale>  0 0.69211855E+03</rscale>
<asrwt>0</asrwt>
<pdfrwt beam="1">  1        1 0.10264010E+00 0.69211855E+03</pdfrwt>
<pdfrwt beam="2">  1       -1 0.13517366E+00 0.69211855E+03</pdfrwt>
<totfact> 0.13937329E+01</totfact>
</mgrwt>
</event>
<event>
12    1  0.8033771E-008  0.1360469E+04  0.7818608E-02  0.8982941E-01
          1   -1    0    0  501    0  0.00000000000E+00  0.00000000000E+00  0.22405575209E+04  0.22405575209E+04  0.00000000000E+00 0. -1.
         -1   -1    0    0    0  501 -0.00000000000E+00 -0.00000000000E+00 -0.10183376452E+04  0.10183376452E+04  0.00000000000E+00 0.  1.
         23    2    1    2    0    0  0.10852830471E+04  0.76945208054E+03  0.12084243824E+04  0.17994405889E+04  0.88324109264E+02 0.  0.
    5000000    2    1    2    0    0 -0.10852830471E+04 -0.76945208054E+03  0.13795493292E+02  0.14594545772E+04  0.59993462197E+03 0.  0.
         23    2    4    4    0    0 -0.79652437789E+03 -0.74961944547E+03 -0.15926566722E+03  0.11093488358E+04  0.94386911335E+02 0.  0.
         23    2    4    4    0    0 -0.28875866925E+03 -0.19832635063E+02  0.17306116052E+03  0.35010574145E+03  0.94068923847E+02 0.  0.
          3    1    3    3  502    0  0.31447454340E+03  0.22580623093E+03  0.40683996915E+03  0.56160613678E+03  0.00000000000E+00 0. -1.
         -3    1    3    3    0  502  0.77080850374E+03  0.54364584961E+03  0.80158441321E+03  0.12378344521E+04  0.00000000000E+00 0.  1.
         15    1    5    5    0    0 -0.12962365198E+03 -0.17014089005E+03 -0.18279064981E+02  0.21467998408E+03  0.17770000000E+01 0.  1.
        -15    1    5    5    0    0 -0.66690072591E+03 -0.57947855543E+03 -0.14098660224E+03  0.89466885168E+03  0.17770000000E+01 0. -1.
          2    1    6    6  503    0 -0.27703938703E+03 -0.89720251482E+01  0.13394385399E+03  0.30785106013E+03  0.00000000000E+00 0. -1.
         -2    1    6    6    0  503 -0.11719282221E+02 -0.10860609915E+02  0.39117306523E+02  0.42254681315E+02  0.00000000000E+00 0.  1.
<mgrwt>
<rscale>  0 0.13604687E+04</rscale>
<asrwt>0</asrwt>
<pdfrwt beam="1">  1        1 0.34470116E+00 0.13604687E+04</pdfrwt>
<pdfrwt beam="2">  1       -1 0.15666733E+00 0.13604687E+04</pdfrwt>
<totfact> 0.61062834E-01</totfact>
</mgrwt>
</event>
<event>
12    1  0.8033771E-008  0.1033898E+04  0.7818608E-02  0.9272128E-01
          1   -1    0    0  501    0  0.00000000000E+00  0.00000000000E+00  0.16087317537E+04  0.16087317537E+04  0.00000000000E+00 0. -1.
         -1   -1    0    0    0  501 -0.00000000000E+00 -0.00000000000E+00 -0.67208339131E+03  0.67208339131E+03  0.00000000000E+00 0.  1.
         23    2    1    2    0    0  0.73312075811E+03  0.60422215112E+03  0.46362997659E+03  0.10615746918E+04  0.97147399473E+02 0.  0.
    5000000    2    1    2    0    0 -0.73312075811E+03 -0.60422215112E+03  0.47301838581E+03  0.12192404532E+04  0.60020866000E+03 0.  0.
         23    2    4    4    0    0 -0.81423706747E+03 -0.48324852977E+03  0.39787923901E+03  0.10311019658E+04  0.91390544195E+02 0.  0.
         23    2    4    4    0    0  0.81116309355E+02 -0.12097362135E+03  0.75139146798E+02  0.18813848736E+03  0.92388994688E+02 0.  0.
          2    1    3    3  502    0  0.50193155276E+03  0.44601697940E+03  0.36715174077E+03  0.76528872350E+03  0.00000000000E+00 0. -1.
         -2    1    3    3    0  502  0.23118920535E+03  0.15820517173E+03  0.96478235816E+02  0.29628596831E+03  0.00000000000E+00 0.  1.
         15    1    5    5    0    0 -0.55189571874E+03 -0.27728653631E+03  0.26415555010E+03  0.67175741154E+03  0.17770000000E+01 0. -1.
        -15    1    5    5    0    0 -0.26234134873E+03 -0.20596199346E+03  0.13372368891E+03  0.35934455431E+03  0.17770000000E+01 0.  1.
          1    1    6    6  503    0 -0.15527662524E+02 -0.14974310193E+02 -0.72018531165E+01  0.22742140566E+02  0.00000000000E+00 0. -1.
         -1    1    6    6    0  503  0.96643971879E+02 -0.10599931115E+03  0.82340999915E+02  0.16539634679E+03  0.00000000000E+00 0.  1.
<mgrwt>
<rscale>  0 0.10338978E+04</rscale>
<asrwt>0</asrwt>
<pdfrwt beam="1">  1        1 0.24749719E+00 0.10338978E+04</pdfrwt>
<pdfrwt beam="2">  1       -1 0.10339745E+00 0.10338978E+04</pdfrwt>
<totfact> 0.48680435E+00</totfact>
</mgrwt>
</event>
<event>
12    1  0.8033771E-008  0.1093697E+04  0.7818608E-02  0.9211357E-01
          2   -1    0    0  501    0  0.00000000000E+00  0.00000000000E+00  0.12568361427E+04  0.12568361427E+04  0.00000000000E+00 0.  1.
         -2   -1    0    0    0  501 -0.00000000000E+00 -0.00000000000E+00 -0.19536847791E+04  0.19536847791E+04  0.00000000000E+00 0. -1.
         23    2    1    2    0    0 -0.30205168485E+03 -0.10300841524E+04 -0.14215584761E+04  0.17836855678E+04  0.91635813556E+02 0.  0.
    5000000    2    1    2    0    0  0.30205168485E+03  0.10300841524E+04  0.72470983965E+03  0.14268353540E+04  0.59862024222E+03 0.  0.
         23    2    4    4    0    0  0.35444307156E+03  0.78871407125E+03  0.28559965935E+03  0.91521529783E+03  0.91389817752E+02 0.  0.
         23    2    4    4    0    0 -0.52391386717E+02  0.24137008119E+03  0.43911018030E+03  0.51162005620E+03  0.89067154267E+02 0.  0.
          1    1    3    3  502    0 -0.14360299235E+03 -0.44414141175E+03 -0.54643590405E+03  0.71866237572E+03  0.00000000000E+00 0. -1.
         -1    1    3    3    0  502 -0.15844869250E+03 -0.58594274069E+03 -0.87512257204E+03  0.10650231921E+04  0.00000000000E+00 0.  1.
         15    1    5    5    0    0  0.93620298423E+02  0.22416147347E+03  0.38195307920E+02  0.24591698954E+03  0.17770000000E+01 0. -1.
        -15    1    5    5    0    0  0.26082277314E+03  0.56455259778E+03  0.24740435143E+03  0.66929830829E+03  0.17770000000E+01 0.  1.
          4    1    6    6  503    0 -0.37948207175E+02  0.10464133853E+03  0.28012946274E+03  0.30143389334E+03  0.00000000000E+00 0. -1.
         -4    1    6    6    0  503 -0.14443179541E+02  0.13672874266E+03  0.15898071756E+03  0.21018616286E+03  0.00000000000E+00 0.  1.
<mgrwt>
<rscale>  0 0.10936967E+04</rscale>
<asrwt>0</asrwt>
<pdfrwt beam="1">  1        2 0.19335941E+00 0.10936967E+04</pdfrwt>
<pdfrwt beam="2">  1       -2 0.30056689E+00 0.10936967E+04</pdfrwt>
<totfact> 0.54723271E-01</totfact>
</mgrwt>
</event>
<event>
12    1  0.8033771E-008  0.1066374E+04  0.7818608E-02  0.9238601E-01
         -2   -1    0    0    0  501 -0.00000000000E+00  0.00000000000E+00  0.63506953766E+03  0.63506953766E+03  0.00000000000E+00 0.  1.
          2   -1    0    0  501    0  0.00000000000E+00 -0.00000000000E+00 -0.21681909475E+04  0.21681909475E+04  0.00000000000E+00 0. -1.
         23    2    1    2    0    0 -0.76706873020E+03  0.62815438515E+03 -0.12719987900E+04  0.16153659606E+04  0.91945073825E+02 0.  0.
    5000000    2    1    2    0    0  0.76706873020E+03 -0.62815438515E+03 -0.26112261986E+03  0.11878945245E+04  0.59994667293E+03 0.  0.
         23    2    4    4    0    0 -0.56442338165E+02 -0.11677588379E+02 -0.94034582752E+02  0.14169051016E+03  0.88947143337E+02 0.  0.
         23    2    4    4    0    0  0.82351106837E+03 -0.61647679677E+03 -0.16708803711E+03  0.10462040144E+04  0.91707725151E+02 0.  0.
          4    1    3    3  502    0 -0.53511973499E+03  0.48660277802E+03 -0.95107468882E+03  0.11948549946E+04  0.00000000000E+00 0. -1.
         -4    1    3    3    0  502 -0.23194899521E+03  0.14155160713E+03 -0.32092410114E+03  0.42051096603E+03  0.00000000000E+00 0.  1.
         15    1    5    5    0    0 -0.14282280548E+02  0.38064213834E+02 -0.33718547871E+02  0.52848520433E+02  0.17770000000E+01 0.  1.
        -15    1    5    5    0    0 -0.42160057618E+02 -0.49741802213E+02 -0.60316034881E+02  0.88841989726E+02  0.17770000000E+01 0. -1.
          4    1    6    6  503    0  0.52745428900E+03 -0.44201336836E+03 -0.90100198333E+02  0.69404746994E+03  0.00000000000E+00 0. -1.
         -4    1    6    6    0  503  0.29605677936E+03 -0.17446342841E+03 -0.76987838776E+02  0.35215654442E+03  0.00000000000E+00 0.  1.
<mgrwt>
<rscale>  0 0.10663735E+04</rscale>
<asrwt>0</asrwt>
<pdfrwt beam="1">  1        2 0.33356783E+00 0.10663735E+04</pdfrwt>
<pdfrwt beam="2">  1       -2 0.97703007E-01 0.10663735E+04</pdfrwt>
<totfact> 0.46718904E+00</totfact>
</mgrwt>
</event>
<event>
12    1  0.8033771E-008  0.8585465E+03  0.7818608E-02  0.9478937E-01
         -2   -1    0    0    0  501 -0.00000000000E+00  0.00000000000E+00  0.41782152162E+03  0.41782152162E+03  0.00000000000E+00 0.  1.
          2   -1    0    0  501    0  0.00000000000E+00 -0.00000000000E+00 -0.19786119799E+04  0.19786119799E+04  0.00000000000E+00 0. -1.
         23    2    1    2    0    0 -0.20032188386E+03  0.78146443749E+03 -0.66453222464E+03  0.10495024034E+04  0.95061522177E+02 0.  0.
    5000000    2    1    2    0    0  0.20032188386E+03 -0.78146443749E+03 -0.89625823366E+03  0.13469310981E+04  0.60010752158E+03 0.  0.
         23    2    4    4    0    0  0.30288851990E+03 -0.36819771515E+03 -0.73976875378E+03  0.88425659895E+03  0.85679115169E+02 0.  0.
         23    2    4    4    0    0 -0.10256663604E+03 -0.41326672234E+03 -0.15648947988E+03  0.46267449917E+03  0.90936440713E+02 0.  0.
          3    1    3    3  502    0 -0.12320086713E+03  0.53298084293E+03 -0.39392855580E+03  0.67411181541E+03  0.00000000000E+00 0. -1.
         -3    1    3    3    0  502 -0.77121016729E+02  0.24848359456E+03 -0.27060366883E+03  0.37539058802E+03  0.00000000000E+00 0.  1.
         15    1    5    5    0    0  0.10943856364E+03 -0.17152565713E+03 -0.37822135633E+03  0.42947922229E+03  0.17770000000E+01 0.  1.
        -15    1    5    5    0    0  0.19344995627E+03 -0.19667205802E+03 -0.36154739745E+03  0.45477737666E+03  0.17770000000E+01 0. -1.
          3    1    6    6  503    0 -0.46171933734E+02 -0.78654723169E+02 -0.62506593520E+02  0.11056892500E+03  0.00000000000E+00 0. -1.
         -3    1    6    6    0  503 -0.56394702309E+02 -0.33461199917E+03 -0.93982886356E+02  0.35210557417E+03  0.00000000000E+00 0.  1.
<mgrwt>
<rscale>  0 0.85854647E+03</rscale>
<asrwt>0</asrwt>
<pdfrwt beam="1">  1        2 0.30440185E+00 0.85854647E+03</pdfrwt>
<pdfrwt beam="2">  1       -2 0.64280232E-01 0.85854647E+03</pdfrwt>
<totfact> 0.15651705E+01</totfact>
</mgrwt>
</event>
<event>
12    1  0.8033771E-008  0.7288582E+03  0.7818608E-02  0.9669115E-01
         -2   -1    0    0    0  501 -0.00000000000E+00  0.00000000000E+00  0.16713643652E+03  0.16713643652E+03  0.00000000000E+00 0.  1.
          2   -1    0    0  501    0  0.00000000000E+00 -0.00000000000E+00 -0.37421989851E+04  0.37421989851E+04  0.00000000000E+00 0. -1.
         23    2    1    2    0    0  0.45953753177E+03 -0.43667647450E+03 -0.20986944364E+04  0.21942220919E+04  0.90725765977E+02 0.  0.
    5000000    2    1    2    0    0 -0.45953753177E+03  0.43667647450E+03 -0.14763681122E+04  0.17151133297E+04  0.60007486590E+03 0.  0.
         23    2    4    4    0    0 -0.17260016797E+03  0.49022272962E+03 -0.11620586139E+04  0.12761842594E+04  0.90315553700E+02 0.  0.
         23    2    4    4    0    0 -0.28693736381E+03 -0.53546255119E+02 -0.31430949824E+03  0.43892907028E+03  0.93102179706E+02 0.  0.
          1    1    3    3  502    0  0.29971552312E+03 -0.33198898885E+03 -0.13871816618E+04  0.14575043899E+04  0.00000000000E+00 0. -1.
         -1    1    3    3    0  502  0.15982200866E+03 -0.10468748565E+03 -0.71151277460E+03  0.73671770205E+03  0.00000000000E+00 0.  1.
         15    1    5    5    0    0 -0.18301672258E+03  0.47269624291E+03 -0.11107441960E+04  0.12209392636E+04  0.17770000000E+01 0. -1.
        -15    1    5    5    0    0  0.10416554608E+02  0.17526486714E+02 -0.51314417956E+02  0.55244995843E+02  0.17770000000E+01 0.  1.
          3    1    6    6  503    0 -0.19459626347E+03 -0.31916888385E+02 -0.26974863931E+03  0.33414176921E+03  0.00000000000E+00 0. -1.
         -3    1    6    6    0  503 -0.92341100339E+02 -0.21629366734E+02 -0.44560858931E+02  0.10478730107E+03  0.00000000000E+00 0.  1.
<mgrwt>
<rscale>  0 0.72885818E+03</rscale>
<asrwt>0</asrwt>
<pdfrwt beam="1">  1        2 0.57572285E+00 0.72885818E+03</pdfrwt>
<pdfrwt beam="2">  1       -2 0.25713301E-01 0.72885818E+03</pdfrwt>
<totfact> 0.80997339E+00</totfact>
</mgrwt>
</event>
<event>
12    1  0.8498838E-008  0.9160200E+03  0.7818608E-02  0.9405774E-01
          1   -1    0    0  501    0  0.00000000000E+00  0.00000000000E+00  0.81558745384E+03  0.81558745384E+03  0.00000000000E+00 0. -1.
         -1   -1    0    0    0  501 -0.00000000000E+00 -0.00000000000E+00 -0.10903453025E+04  0.10903453025E+04  0.00000000000E+00 0.  1.
         23    2    1    2    0    0 -0.52271999674E+03 -0.66192767368E+03 -0.17536067436E+03  0.86614469322E+03  0.89837761013E+02 0.  0.
    5000000    2    1    2    0    0  0.52271999674E+03  0.66192767368E+03 -0.99397174340E+02  0.10397880632E+04  0.59991247516E+03 0.  0.
         23    2    4    4    0    0  0.24844178448E+03  0.64854692596E+03  0.70396500269E+02  0.70399676873E+03  0.91210458169E+02 0.  0.
         23    2    4    4    0    0  0.27427821226E+03  0.13380747715E+02 -0.16979367461E+03  0.33579129443E+03  0.92294741710E+02 0.  0.
          1    1    3    3  502    0 -0.25138789065E+03 -0.38752034289E+03 -0.10856740320E+03  0.47450476158E+03  0.00000000000E+00 0. -1.
         -1    1    3    3    0  502 -0.27133210609E+03 -0.27440733079E+03 -0.66793271164E+02  0.39163993165E+03  0.00000000000E+00 0.  1.
         15    1    5    5    0    0  0.11259331494E+03  0.27800401252E+03  0.75494892747E+02  0.30929940528E+03  0.17770000000E+01 0. -1.
        -15    1    5    5    0    0  0.13584846954E+03  0.37054291345E+03 -0.50983924772E+01  0.39469736345E+03  0.17770000000E+01 0.  1.
          1    1    6    6  503    0  0.11692694733E+03 -0.39801709107E+02 -0.76524859021E+02  0.14530017587E+03  0.00000000000E+00 0. -1.
         -1    1    6    6    0  503  0.15735126493E+03  0.53182456822E+02 -0.93268815588E+02  0.19049111856E+03  0.00000000000E+00 0.  1.
<mgrwt>
<rscale>  0 0.91601995E+03</rscale>
<asrwt>0</asrwt>
<pdfrwt beam="1">  1        1 0.12547499E+00 0.91601995E+03</pdfrwt>
<pdfrwt beam="2">  1       -1 0.16774543E+00 0.91601995E+03</pdfrwt>
<totfact> 0.55471541E+00</totfact>
</mgrwt>
</event>
<event>
12    1  0.8033771E-008  0.5809332E+03  0.7818608E-02  0.9945773E-01
          1   -1    0    0  501    0  0.00000000000E+00  0.00000000000E+00  0.13929379958E+04  0.13929379958E+04  0.00000000000E+00 0. -1.
         -1   -1    0    0    0  501 -0.00000000000E+00 -0.00000000000E+00 -0.29462596925E+03  0.29462596925E+03  0.00000000000E+00 0.  1.
         23    2    1    2    0    0  0.38541748852E+02 -0.43220047299E+03  0.11795932103E+03  0.45903084766E+03  0.92261597781E+02 0.  0.
    5000000    2    1    2    0    0 -0.38541748852E+02  0.43220047299E+03  0.98035270548E+03  0.12285331174E+04  0.59993289462E+03 0.  0.
         23    2    4    4    0    0  0.25315997121E+03  0.24550731649E+03  0.36329027115E+03  0.51512886699E+03  0.94942693369E+02 0.  0.
         23    2    4    4    0    0 -0.29170172006E+03  0.18669315650E+03  0.61706243433E+03  0.71340425037E+03  0.90748820445E+02 0.  0.
          1    1    3    3  502    0  0.65781334284E+02 -0.25969144076E+03  0.86966175360E+02  0.28165571892E+03  0.00000000000E+00 0. -1.
         -1    1    3    3    0  502 -0.27239585432E+02 -0.17250903223E+03  0.30993145670E+02  0.17737512873E+03  0.00000000000E+00 0.  1.
         15    1    5    5    0    0  0.79406472598E+02  0.28230159364E+02  0.59409327049E+02  0.10312592137E+03  0.17770000000E+01 0. -1.
        -15    1    5    5    0    0  0.17375349861E+03  0.21727715712E+03  0.30388094410E+03  0.41200294563E+03  0.17770000000E+01 0.  1.
          4    1    6    6  503    0 -0.27379021040E+03  0.14147423498E+03  0.55156973807E+03  0.63182688644E+03  0.00000000000E+00 0. -1.
         -4    1    6    6    0  503 -0.17911509657E+02  0.45218921523E+02  0.65492696256E+02  0.81577363924E+02  0.00000000000E+00 0.  1.
<mgrwt>
<rscale>  0 0.58093316E+03</rscale>
<asrwt>0</asrwt>
<pdfrwt beam="1">  1        1 0.21429815E+00 0.58093316E+03</pdfrwt>
<pdfrwt beam="2">  1       -1 0.45327073E-01 0.58093316E+03</pdfrwt>
<totfact> 0.39486576E+01</totfact>
</mgrwt>
</event>
<event>
12    1  0.8033771E-008  0.5066092E+03  0.7818608E-02  0.1012068E+00
          1   -1    0    0  501    0  0.00000000000E+00  0.00000000000E+00  0.22945220507E+03  0.22945220507E+03  0.00000000000E+00 0. -1.
         -1   -1    0    0    0  501 -0.00000000000E+00 -0.00000000000E+00 -0.13662221547E+04  0.13662221547E+04  0.00000000000E+00 0.  1.
         23    2    1    2    0    0  0.36554066658E+03 -0.42922438433E+02 -0.60266979221E+03  0.71202411998E+03  0.91132619582E+02 0.  0.
    5000000    2    1    2    0    0 -0.36554066658E+03  0.42922438433E+02 -0.53410015745E+03  0.88365023981E+03  0.60009370392E+03 0.  0.
         23    2    4    4    0    0 -0.18282033457E+03 -0.22687356317E+03 -0.43539845833E+03  0.53141060350E+03  0.89053487284E+02 0.  0.
         23    2    4    4    0    0 -0.18272033201E+03  0.26979600161E+03 -0.98701699122E+02  0.35223963631E+03  0.90300242346E+02 0.  0.
          3    1    3    3  502    0  0.25216045706E+03 -0.12630595016E+00 -0.34552187906E+03  0.42775025536E+03  0.00000000000E+00 0. -1.
         -3    1    3    3    0  502  0.11338020952E+03 -0.42796132483E+02 -0.25714791315E+03  0.28427386462E+03  0.00000000000E+00 0.  1.
         15    1    5    5    0    0 -0.16622990615E+03 -0.15220653985E+03 -0.29192558286E+03  0.36881284702E+03  0.17770000000E+01 0. -1.
        -15    1    5    5    0    0 -0.16590428420E+02 -0.74667023327E+02 -0.14347287546E+03  0.16259775647E+03  0.17770000000E+01 0.  1.
          2    1    6    6  503    0 -0.16137972135E+03  0.16416930841E+03 -0.62148681016E+02  0.23844797092E+03  0.00000000000E+00 0. -1.
         -2    1    6    6    0  503 -0.21340610661E+02  0.10562669320E+03 -0.36553018106E+02  0.11379166539E+03  0.00000000000E+00 0.  1.
<mgrwt>
<rscale>  0 0.50660921E+03</rscale>
<asrwt>0</asrwt>
<pdfrwt beam="1">  1        1 0.35300338E-01 0.50660921E+03</pdfrwt>
<pdfrwt beam="2">  1       -1 0.21018803E+00 0.50660921E+03</pdfrwt>
<totfact> 0.16909362E+01</totfact>
</mgrwt>
</event>
<event>
12    1  0.8033771E-008  0.9974132E+03  0.7818608E-02  0.9311387E-01
         -2   -1    0    0    0  501 -0.00000000000E+00  0.00000000000E+00  0.75793023901E+03  0.75793023901E+03  0.00000000000E+00 0.  1.
          2   -1    0    0  501    0  0.00000000000E+00 -0.00000000000E+00 -0.15772449928E+04  0.15772449928E+04  0.00000000000E+00 0. -1.
         23    2    1    2    0    0 -0.56719206324E+03  0.74785316036E+03  0.15577594127E+02  0.94304960760E+03  0.90048403066E+02 0.  0.
    5000000    2    1    2    0    0  0.56719206324E+03 -0.74785316036E+03 -0.83489234791E+03  0.13921256242E+04  0.59998111213E+03 0.  0.
         23    2    4    4    0    0  0.25294662164E+03 -0.19615620162E+02 -0.53589661910E+02  0.27497590037E+03  0.91504797510E+02 0.  0.
         23    2    4    4    0    0  0.31424544159E+03 -0.72823754020E+03 -0.78130268600E+03  0.11171497238E+04  0.92246982581E+02 0.  0.
          3    1    3    3  502    0 -0.87090106392E+02  0.16815983715E+03  0.19259637212E+02  0.19035060043E+03  0.00000000000E+00 0. -1.
         -3    1    3    3    0  502 -0.48010195684E+03  0.57969332322E+03 -0.36820430849E+01  0.75269900717E+03  0.00000000000E+00 0.  1.
         15    1    5    5    0    0  0.18343190553E+03 -0.29588583133E+02 -0.76705492994E+02  0.20102148791E+03  0.17770000000E+01 0.  1.
        -15    1    5    5    0    0  0.69514716109E+02  0.99729629707E+01  0.23115831084E+02  0.73954412457E+02  0.17770000000E+01 0. -1.
          3    1    6    6  503    0  0.24259753385E+03 -0.63013830002E+03 -0.68788738732E+03  0.96390710040E+03  0.00000000000E+00 0. -1.
         -3    1    6    6    0  503  0.71647907742E+02 -0.98099240184E+02 -0.93415298689E+02  0.15324262344E+03  0.00000000000E+00 0.  1.
<mgrwt>
<rscale>  0 0.99741319E+03</rscale>
<asrwt>0</asrwt>
<pdfrwt beam="1">  1        2 0.24265307E+00 0.99741319E+03</pdfrwt>
<pdfrwt beam="2">  1       -2 0.11660465E+00 0.99741319E+03</pdfrwt>
<totfact> 0.65137060E+00</totfact>
</mgrwt>
</event>
<event>
12    1  0.8033771E-008  0.1161425E+04  0.7818608E-02  0.9147307E-01
          1   -1    0    0  501    0  0.00000000000E+00  0.00000000000E+00  0.18931518729E+04  0.18931518729E+04  0.00000000000E+00 0. -1.
         -1   -1    0    0    0  501 -0.00000000000E+00 -0.00000000000E+00 -0.77648528513E+03  0.77648528513E+03  0.00000000000E+00 0.  1.
         23    2    1    2    0    0  0.79822090435E+03  0.78743273620E+03  0.72784823936E+03  0.13398456395E+04  0.90644094365E+02 0.  0.
    5000000    2    1    2    0    0 -0.79822090435E+03 -0.78743273620E+03  0.38881834839E+03  0.13297915185E+04  0.59996570617E+03 0.  0.
         23    2    4    4    0    0 -0.76145026018E+03 -0.51284189931E+03  0.11290799520E+03  0.92942384001E+03  0.90923850433E+02 0.  0.
         23    2    4    4    0    0 -0.36770644167E+02 -0.27459083689E+03  0.27591035319E+03  0.40036767854E+03  0.86113570605E+02 0.  0.
          1    1    3    3  502    0  0.32794451531E+03  0.31120609588E+03  0.34580767282E+03  0.56919222220E+03  0.00000000000E+00 0. -1.
         -1    1    3    3    0  502  0.47027638904E+03  0.47622664032E+03  0.38204056654E+03  0.77065341725E+03  0.00000000000E+00 0.  1.
         15    1    5    5    0    0 -0.58909510426E+03 -0.39032964918E+03  0.12483780842E+03  0.71761961583E+03  0.17770000000E+01 0. -1.
        -15    1    5    5    0    0 -0.17235515593E+03 -0.12251225013E+03 -0.11929813224E+02  0.21180422418E+03  0.17770000000E+01 0.  1.
          2    1    6    6  503    0 -0.30286396964E+02 -0.48852857211E+02  0.94886690836E+02  0.11093850367E+03  0.00000000000E+00 0. -1.
         -2    1    6    6    0  503 -0.64842472035E+01 -0.22573797968E+03  0.18102366236E+03  0.28942917487E+03  0.00000000000E+00 0.  1.
<mgrwt>
<rscale>  0 0.11614254E+04</rscale>
<asrwt>0</asrwt>
<pdfrwt beam="1">  1        1 0.29125413E+00 0.11614254E+04</pdfrwt>
<pdfrwt beam="2">  1       -1 0.11945928E+00 0.11614254E+04</pdfrwt>
<totfact> 0.21792987E+00</totfact>
</mgrwt>
</event>
<event>
12    1  0.8033771E-008  0.1074248E+04  0.7818608E-02  0.9230661E-01
         -2   -1    0    0    0  501 -0.00000000000E+00  0.00000000000E+00  0.41140371489E+03  0.41140371489E+03  0.00000000000E+00 0. -1.
          2   -1    0    0  501    0  0.00000000000E+00 -0.00000000000E+00 -0.29344632068E+04  0.29344632068E+04  0.00000000000E+00 0.  1.
         23    2    1    2    0    0  0.41240068480E+03  0.90112659912E+03 -0.83784245028E+03  0.13008678065E+04  0.90407998248E+02 0.  0.
    5000000    2    1    2    0    0 -0.41240068480E+03 -0.90112659912E+03 -0.16852170417E+04  0.20449991152E+04  0.59996785837E+03 0.  0.
         23    2    4    4    0    0  0.59586150172E+02  0.24687911314E+02 -0.21965224027E+03  0.24607881496E+03  0.90264468416E+02 0.  0.
         23    2    4    4    0    0 -0.47198683497E+03 -0.92581451044E+03 -0.14655648014E+04  0.17989203002E+04  0.91268720384E+02 0.  0.
          1    1    3    3  502    0  0.36528349034E+03  0.71901476768E+03 -0.66238109454E+03  0.10436297135E+04  0.00000000000E+00 0. -1.
         -1    1    3    3    0  502  0.47117194457E+02  0.18211183144E+03 -0.17546135575E+03  0.25723809307E+03  0.00000000000E+00 0.  1.
         15    1    5    5    0    0  0.42421381465E+01  0.49829313957E+02 -0.94351162424E+02  0.10680007418E+03  0.17770000000E+01 0.  1.
        -15    1    5    5    0    0  0.55344012026E+02 -0.25141402644E+02 -0.12530107784E+03  0.13927874077E+03  0.17770000000E+01 0. -1.
          1    1    6    6  503    0 -0.44092767499E+03 -0.90168847048E+03 -0.14156133555E+04  0.17353444859E+04  0.00000000000E+00 0. -1.
         -1    1    6    6    0  503 -0.31059159978E+02 -0.24126039953E+02 -0.49951445871E+02  0.63575814324E+02  0.00000000000E+00 0.  1.
<mgrwt>
<rscale>  0 0.10742482E+04</rscale>
<asrwt>0</asrwt>
<pdfrwt beam="1">  1        2 0.45145587E+00 0.10742482E+04</pdfrwt>
<pdfrwt beam="2">  1       -2 0.63292881E-01 0.10742482E+04</pdfrwt>
<totfact> 0.44685426E+00</totfact>
</mgrwt>
</event>
<event>
12    1  0.8068140E-008  0.6567225E+03  0.7818608E-02  0.9794246E-01
         -2   -1    0    0    0  501 -0.00000000000E+00  0.00000000000E+00  0.37270060626E+03  0.37270060626E+03  0.00000000000E+00 0. -1.
          2   -1    0    0  501    0  0.00000000000E+00 -0.00000000000E+00 -0.16609707471E+04  0.16609707471E+04  0.00000000000E+00 0.  1.
         23    2    1    2    0    0 -0.54669738340E+03  0.34383725752E+03 -0.78278016106E+03  0.10175479988E+04  0.74545695236E+02 0.  0.
    5000000    2    1    2    0    0  0.54669738340E+03 -0.34383725752E+03 -0.50548997976E+03  0.10161233545E+04  0.59990371169E+03 0.  0.
         23    2    4    4    0    0  0.23497526958E+03 -0.70266979649E+02 -0.52904206831E+03  0.59061888998E+03  0.93778128656E+02 0.  0.
         23    2    4    4    0    0  0.31172211382E+03 -0.27357027787E+03  0.23552088554E+02  0.42550446455E+03  0.92130208366E+02 0.  0.
          2    1    3    3  502    0 -0.40411672341E+03  0.21406231047E+03 -0.55373863273E+03  0.71816395919E+03  0.00000000000E+00 0. -1.
         -2    1    3    3    0  502 -0.14258065999E+03  0.12977494705E+03 -0.22904152833E+03  0.29938403963E+03  0.00000000000E+00 0.  1.
         15    1    5    5    0    0  0.21922428479E+03 -0.64879849457E+02 -0.40190690312E+03  0.46238620050E+03  0.17770000000E+01 0. -1.
        -15    1    5    5    0    0  0.15750984783E+02 -0.53871301922E+01 -0.12713516519E+03  0.12823268948E+03  0.17770000000E+01 0.  1.
          1    1    6    6  503    0  0.21693660228E+03 -0.22054259463E+03 -0.16373659316E+02  0.30978802781E+03  0.00000000000E+00 0. -1.
         -1    1    6    6    0  503  0.94785511543E+02 -0.53027683243E+02  0.39925747870E+02  0.11571643674E+03  0.00000000000E+00 0.  1.
<mgrwt>
<rscale>  0 0.65672251E+03</rscale>
<asrwt>0</asrwt>
<pdfrwt beam="1">  1        2 0.25553396E+00 0.65672251E+03</pdfrwt>
<pdfrwt beam="2">  1       -2 0.57338555E-01 0.65672251E+03</pdfrwt>
<totfact> 0.30511152E+01</totfact>
</mgrwt>
</event>
<event>
12    1  0.8033771E-008  0.7826484E+03  0.7818608E-02  0.9585478E-01
         -2   -1    0    0    0  501 -0.00000000000E+00  0.00000000000E+00  0.65720209224E+03  0.65720209224E+03  0.00000000000E+00 0. -1.
          2   -1    0    0  501    0  0.00000000000E+00 -0.00000000000E+00 -0.12011215607E+04  0.12011215607E+04  0.00000000000E+00 0.  1.
         23    2    1    2    0    0 -0.72575214839E+03  0.43290898299E+02  0.65853120539E+02  0.73564080338E+03  0.90777064007E+02 0.  0.
    5000000    2    1    2    0    0  0.72575214839E+03 -0.43290898299E+02 -0.60977258904E+03  0.11226828496E+04  0.60000323972E+03 0.  0.
         23    2    4    4    0    0  0.59300389151E+03  0.11874425340E+03 -0.64725320387E+03  0.89108667739E+03  0.96669248711E+02 0.  0.
         23    2    4    4    0    0  0.13274825688E+03 -0.16203515170E+03  0.37480614832E+02  0.23159617221E+03  0.91402956195E+02 0.  0.
          2    1    3    3  502    0 -0.60085005734E+03  0.48768599121E+02  0.86252846350E+02  0.60896528733E+03  0.00000000000E+00 0. -1.
         -2    1    3    3    0  502 -0.12490209105E+03 -0.54777008223E+01 -0.20399725812E+02  0.12667551605E+03  0.00000000000E+00 0.  1.
         15    1    5    5    0    0  0.12988200211E+03  0.67396823808E+02 -0.16324016051E+03  0.21923086933E+03  0.17770000000E+01 0. -1.
        -15    1    5    5    0    0  0.46312188940E+03  0.51347429591E+02 -0.48401304336E+03  0.67185580807E+03  0.17770000000E+01 0.  1.
          1    1    6    6  503    0 -0.46649888646E+01 -0.43276187890E+02 -0.82610744288E+01  0.44303904005E+02  0.00000000000E+00 0. -1.
         -1    1    6    6    0  503  0.13741324575E+03 -0.11875896381E+03  0.45741689261E+02  0.18729226820E+03  0.00000000000E+00 0.  1.
<mgrwt>
<rscale>  0 0.78264845E+03</rscale>
<asrwt>0</asrwt>
<pdfrwt beam="1">  1        2 0.18478793E+00 0.78264845E+03</pdfrwt>
<pdfrwt beam="2">  1       -2 0.10110801E+00 0.78264845E+03</pdfrwt>
<totfact> 0.15453722E+01</totfact>
</mgrwt>
</event>
<event>
12    1  0.8033771E-008  0.3160258E+03  0.7818608E-02  0.1077493E+00
          3   -1    0    0  501    0  0.00000000000E+00  0.00000000000E+00  0.61029410902E+03  0.61029410902E+03  0.00000000000E+00 0. -1.
         -3   -1    0    0    0  501 -0.00000000000E+00 -0.00000000000E+00 -0.37982827491E+03  0.37982827491E+03  0.00000000000E+00 0.  1.
         23    2    1    2    0    0 -0.20097655616E+03  0.19353295820E+03  0.12639891118E+03  0.32029585706E+03  0.93627823157E+02 0.  0.
    5000000    2    1    2    0    0  0.20097655616E+03 -0.19353295820E+03  0.10406692294E+03  0.66982652687E+03  0.59999255797E+03 0.  0.
         23    2    4    4    0    0  0.20246957966E+02 -0.10726444526E+03  0.32635634008E+03  0.35744742264E+03  0.96667464619E+02 0.  0.
         23    2    4    4    0    0  0.18072959819E+03 -0.86268512935E+02 -0.22228941714E+03  0.31237910423E+03  0.89792403914E+02 0.  0.
          2    1    3    3  502    0 -0.16284418804E+03  0.12646550897E+03  0.50950423223E+02  0.21238573437E+03  0.00000000000E+00 0. -1.
         -2    1    3    3    0  502 -0.38132368115E+02  0.67067449229E+02  0.75448487952E+02  0.10791012269E+03  0.00000000000E+00 0.  1.
         15    1    5    5    0    0  0.38107077236E+02 -0.10800503063E+03  0.20553298601E+03  0.23529598816E+03  0.17770000000E+01 0.  1.
        -15    1    5    5    0    0 -0.17860119270E+02  0.74058537025E+00  0.12082335408E+03  0.12215143448E+03  0.17770000000E+01 0. -1.
          3    1    6    6  503    0  0.69023238740E+01 -0.34001135045E+02 -0.57840095168E+02  0.67447726932E+02  0.00000000000E+00 0. -1.
         -3    1    6    6    0  503  0.17382727432E+03 -0.52267377889E+02 -0.16444932197E+03  0.24493137730E+03  0.00000000000E+00 0.  1.
<mgrwt>
<rscale>  0 0.31602579E+03</rscale>
<asrwt>0</asrwt>
<pdfrwt beam="1">  1        3 0.93891401E-01 0.31602579E+03</pdfrwt>
<pdfrwt beam="2">  1       -3 0.58435119E-01 0.31602579E+03</pdfrwt>
<totfact> 0.75319129E+00</totfact>
</mgrwt>
</event>
<event>
12    1  0.8153451E-008  0.8013117E+03  0.7818608E-02  0.9558120E-01
          2   -1    0    0  501    0  0.00000000000E+00  0.00000000000E+00  0.14555438616E+04  0.14555438616E+04  0.00000000000E+00 0. -1.
         -2   -1    0    0    0  501 -0.00000000000E+00 -0.00000000000E+00 -0.46697158681E+03  0.46697158681E+03  0.00000000000E+00 0.  1.
         23    2    1    2    0    0  0.40887883584E+03  0.57674714750E+03  0.33142425329E+03  0.78599844929E+03  0.90179554591E+02 0.  0.
    5000000    2    1    2    0    0 -0.40887883584E+03 -0.57674714750E+03  0.65714802151E+03  0.11365169991E+04  0.60000682709E+03 0.  0.
         23    2    4    4    0    0  0.37245265770E+02 -0.41512698356E+03  0.19968200793E+03  0.47117109089E+03  0.91715158482E+02 0.  0.
         23    2    4    4    0    0 -0.44612410161E+03 -0.16162016394E+03  0.45746601358E+03  0.66534590823E+03  0.90896823864E+02 0.  0.
          2    1    3    3  502    0  0.13383798522E+03  0.21002014696E+03  0.71832450391E+02  0.25919291916E+03  0.00000000000E+00 0. -1.
         -2    1    3    3    0  502  0.27504085062E+03  0.36672700055E+03  0.25959180289E+03  0.52680553013E+03  0.00000000000E+00 0.  1.
         15    1    5    5    0    0  0.33948639751E+01 -0.18358063003E+03  0.40170428289E+02  0.18796327796E+03  0.17770000000E+01 0.  1.
        -15    1    5    5    0    0  0.33850401795E+02 -0.23154635353E+03  0.15951157964E+03  0.28320781293E+03  0.17770000000E+01 0. -1.
          3    1    6    6  503    0 -0.13957101546E+03 -0.24438282222E+02  0.18405276308E+03  0.23227724294E+03  0.00000000000E+00 0. -1.
         -3    1    6    6    0  503 -0.30655308615E+03 -0.13718188172E+03  0.27341325050E+03  0.43306866529E+03  0.00000000000E+00 0.  1.
<mgrwt>
<rscale>  0 0.80131172E+03</rscale>
<asrwt>0</asrwt>
<pdfrwt beam="1">  1        2 0.22392982E+00 0.80131172E+03</pdfrwt>
<pdfrwt beam="2">  1       -2 0.71841784E-01 0.80131172E+03</pdfrwt>
<totfact> 0.24023900E+01</totfact>
</mgrwt>
</event>
<event>
12    1  0.8033771E-008  0.6493227E+03  0.7818608E-02  0.9808051E-01
          2   -1    0    0  501    0  0.00000000000E+00  0.00000000000E+00  0.33929516580E+04  0.33929516580E+04  0.00000000000E+00 0. -1.
         -2   -1    0    0    0  501 -0.00000000000E+00 -0.00000000000E+00 -0.17695987932E+03  0.17695987932E+03  0.00000000000E+00 0.  1.
         23    2    1    2    0    0 -0.46044898141E+03 -0.34425142254E+03  0.64881409486E+03  0.87158982286E+03  0.90480844503E+02 0.  0.
    5000000    2    1    2    0    0  0.46044898141E+03  0.34425142254E+03  0.25671776838E+04  0.26983217144E+04  0.60001375652E+03 0.  0.
         23    2    4    4    0    0  0.40198794165E+03  0.51388253514E+02  0.20691968741E+04  0.21105211187E+04  0.92133767770E+02 0.  0.
         23    2    4    4    0    0  0.58461039758E+02  0.29286316903E+03  0.49798080973E+03  0.58780059570E+03  0.91313331451E+02 0.  0.
          4    1    3    3  502    0 -0.32424003698E+03 -0.24726569975E+03  0.39546181061E+03  0.56803342463E+03  0.00000000000E+00 0. -1.
         -4    1    3    3    0  502 -0.13620894444E+03 -0.96985722787E+02  0.25335228425E+03  0.30355639823E+03  0.00000000000E+00 0.  1.
         15    1    5    5    0    0  0.25760932922E+03 -0.50347357343E+01  0.14091950893E+04  0.14325578078E+04  0.17770000000E+01 0.  1.
        -15    1    5    5    0    0  0.14437861244E+03  0.56422989249E+02  0.66000178474E+03  0.67796331098E+03  0.17770000000E+01 0. -1.
          3    1    6    6  503    0  0.53370989586E+02  0.69816333601E+02  0.11743030018E+03  0.14667194131E+03  0.00000000000E+00 0. -1.
         -3    1    6    6    0  503  0.50900501719E+01  0.22304683542E+03  0.38055050955E+03  0.44112865439E+03  0.00000000000E+00 0.  1.
<mgrwt>
<rscale>  0 0.64932274E+03</rscale>
<asrwt>0</asrwt>
<pdfrwt beam="1">  1        2 0.52199251E+00 0.64932274E+03</pdfrwt>
<pdfrwt beam="2">  1       -2 0.27224599E-01 0.64932274E+03</pdfrwt>
<totfact> 0.12968324E+01</totfact>
</mgrwt>
</event>
<event>
12    1  0.8033771E-008  0.8077309E+03  0.7818608E-02  0.9548894E-01
         -2   -1    0    0    0  501 -0.00000000000E+00  0.00000000000E+00  0.51019096216E+03  0.51019096216E+03  0.00000000000E+00 0.  1.
          2   -1    0    0  501    0  0.00000000000E+00 -0.00000000000E+00 -0.15172226411E+04  0.15172226411E+04  0.00000000000E+00 0. -1.
         23    2    1    2    0    0 -0.51638986591E+03 -0.50150087212E+03 -0.77564737822E+03  0.10622014188E+04  0.92094410596E+02 0.  0.
    5000000    2    1    2    0    0  0.51638986591E+03  0.50150087212E+03 -0.23138430074E+03  0.96521218447E+03  0.59994520422E+03 0.  0.
         23    2    4    4    0    0  0.40415100321E+03  0.44328336598E+02 -0.25020600080E+03  0.48488779384E+03  0.84912277979E+02 0.  0.
         23    2    4    4    0    0  0.11223886270E+03  0.45717253552E+03  0.18821700059E+02  0.48032439063E+03  0.93557331687E+02 0.  0.
          3    1    3    3  502    0 -0.40467952817E+03 -0.42669266346E+03 -0.66796270911E+03  0.88994737504E+03  0.00000000000E+00 0.  1.
         -3    1    3    3    0  502 -0.11171033774E+03 -0.74808208655E+02 -0.10768466911E+03  0.17225404379E+03  0.00000000000E+00 0. -1.
         15    1    5    5    0    0  0.35139184604E+03  0.63058669720E+02 -0.23290426064E+03  0.42626303809E+03  0.17770000000E+01 0. -1.
        -15    1    5    5    0    0  0.52759157174E+02 -0.18730333122E+02 -0.17301740158E+02  0.58624755744E+02  0.17770000000E+01 0.  1.
          2    1    6    6  503    0  0.32750331963E+02  0.31771352601E+03  0.15326813452E+02  0.31976456975E+03  0.00000000000E+00 0. -1.
         -2    1    6    6    0  503  0.79488530734E+02  0.13945900951E+03  0.34948866068E+01  0.16055982089E+03  0.00000000000E+00 0.  1.
<mgrwt>
<rscale>  0 0.80773090E+03</rscale>
<asrwt>0</asrwt>
<pdfrwt beam="1">  1        2 0.23341887E+00 0.80773090E+03</pdfrwt>
<pdfrwt beam="2">  1       -2 0.78490918E-01 0.80773090E+03</pdfrwt>
<totfact> 0.18218454E+01</totfact>
</mgrwt>
</event>
<event>
12    1  0.8033771E-008  0.4887647E+03  0.7818608E-02  0.1016754E+00
         -1   -1    0    0    0  501 -0.00000000000E+00  0.00000000000E+00  0.11204560278E+04  0.11204560278E+04  0.00000000000E+00 0.  1.
          1   -1    0    0  501    0  0.00000000000E+00 -0.00000000000E+00 -0.58449498920E+03  0.58449498920E+03  0.00000000000E+00 0. -1.
         23    2    1    2    0    0 -0.16662215295E+03  0.27940905212E+03  0.87858657593E+03  0.94126282545E+03  0.90713697453E+02 0.  0.
    5000000    2    1    2    0    0  0.16662215295E+03 -0.27940905212E+03 -0.34262553735E+03  0.76368819153E+03  0.59999586229E+03 0.  0.
         23    2    4    4    0    0 -0.16761562698E+03 -0.24206910987E+03 -0.62801906502E+02  0.31570718029E+03  0.95049944047E+02 0.  0.
         23    2    4    4    0    0  0.33423777993E+03 -0.37339942249E+02 -0.27982363085E+03  0.44798101124E+03  0.96314885809E+02 0.  0.
          3    1    3    3  502    0 -0.86545369143E+02  0.16398025402E+03  0.61804981410E+03  0.64526366497E+03  0.00000000000E+00 0. -1.
         -3    1    3    3    0  502 -0.80076783803E+02  0.11542879810E+03  0.26053676183E+03  0.29599916048E+03  0.00000000000E+00 0.  1.
         15    1    5    5    0    0 -0.15339154590E+03 -0.16934177466E+03 -0.75204155045E+02  0.24055025600E+03  0.17770000000E+01 0. -1.
        -15    1    5    5    0    0 -0.14224081077E+02 -0.72727335216E+02  0.12402248543E+02  0.75156924285E+02  0.17770000000E+01 0.  1.
          1    1    6    6  503    0  0.13878382385E+03 -0.62002414640E+02 -0.13723893268E+03  0.20479202579E+03  0.00000000000E+00 0. -1.
         -1    1    6    6    0  503  0.19545395608E+03  0.24662472391E+02 -0.14258469817E+03  0.24318898545E+03  0.00000000000E+00 0.  1.
<mgrwt>
<rscale>  0 0.48876474E+03</rscale>
<asrwt>0</asrwt>
<pdfrwt beam="1">  1        1 0.89922306E-01 0.48876474E+03</pdfrwt>
<pdfrwt beam="2">  1       -1 0.17237785E+00 0.48876474E+03</pdfrwt>
<totfact> 0.90479466E+00</totfact>
</mgrwt>
</event>
<event>
12    1  0.8033771E-008  0.2421355E+04  0.7818608E-02  0.8431552E-01
          2   -1    0    0  501    0  0.00000000000E+00  0.00000000000E+00  0.33189575799E+04  0.33189575799E+04  0.00000000000E+00 0. -1.
         -2   -1    0    0    0  501 -0.00000000000E+00 -0.00000000000E+00 -0.18782854126E+04  0.18782854126E+04  0.00000000000E+00 0.  1.
         23    2    1    2    0    0  0.73709107988E+03 -0.23038236114E+04  0.11754900560E+04  0.26909601654E+04  0.92645816074E+02 0.  0.
    5000000    2    1    2    0    0 -0.73709107988E+03  0.23038236114E+04  0.26518211139E+03  0.25062828272E+04  0.60018794134E+03 0.  0.
         23    2    4    4    0    0 -0.56739096763E+03  0.18075476026E+04 -0.31468178865E+02  0.18969413931E+04  0.90749968223E+02 0.  0.
         23    2    4    4    0    0 -0.16970011225E+03  0.49627600879E+03  0.29665029026E+03  0.60934143404E+03  0.90595714730E+02 0.  0.
          1    1    3    3  502    0  0.16375182186E+03 -0.51209705909E+03  0.30458947611E+03  0.61792621408E+03  0.00000000000E+00 0. -1.
         -1    1    3    3    0  502  0.57333925801E+03 -0.17917265523E+04  0.87090057985E+03  0.20730339513E+04  0.00000000000E+00 0.  1.
         15    1    5    5    0    0 -0.41493910181E+03  0.12245421795E+04  0.90898691396E+01  0.12929670494E+04  0.17770000000E+01 0. -1.
        -15    1    5    5    0    0 -0.15245186582E+03  0.58300542318E+03 -0.40558048004E+02  0.60397434369E+03  0.17770000000E+01 0.  1.
          2    1    6    6  503    0 -0.46744975066E+02  0.66531081222E+02  0.20237772163E+02  0.83791675509E+02  0.00000000000E+00 0. -1.
         -2    1    6    6    0  503 -0.12295513718E+03  0.42974492757E+03  0.27641251809E+03  0.52554975853E+03  0.00000000000E+00 0.  1.
<mgrwt>
<rscale>  0 0.24213551E+04</rscale>
<asrwt>0</asrwt>
<pdfrwt beam="1">  1        2 0.51060886E+00 0.24213551E+04</pdfrwt>
<pdfrwt beam="2">  1       -2 0.28896699E+00 0.24213551E+04</pdfrwt>
<totfact> 0.34083521E-02</totfact>
</mgrwt>
</event>
<event>
12    1  0.8033771E-008  0.8348264E+03  0.7818608E-02  0.9510932E-01
         -1   -1    0    0    0  501 -0.00000000000E+00  0.00000000000E+00  0.92215567515E+03  0.92215567515E+03  0.00000000000E+00 0.  1.
          1   -1    0    0  501    0  0.00000000000E+00 -0.00000000000E+00 -0.83677285447E+03  0.83677285447E+03  0.00000000000E+00 0. -1.
         23    2    1    2    0    0 -0.74317400994E+03 -0.15517520014E+03 -0.10606794335E+03  0.77245552765E+03  0.95132443462E+02 0.  0.
    5000000    2    1    2    0    0  0.74317400994E+03  0.15517520014E+03  0.19145076403E+03  0.98647300197E+03  0.60007385944E+03 0.  0.
         23    2    4    4    0    0 -0.39065941854E+02 -0.26980585460E+02  0.14039169356E+03  0.17672563949E+03  0.96270578199E+02 0.  0.
         23    2    4    4    0    0  0.78223995179E+03  0.18215578561E+03  0.51059070462E+02  0.80974736248E+03  0.89463344236E+02 0.  0.
          1    1    3    3  502    0 -0.62706073145E+03 -0.13279442916E+03 -0.53965729320E+02  0.64323543224E+03  0.00000000000E+00 0. -1.
         -1    1    3    3    0  502 -0.11611327848E+03 -0.22380770985E+02 -0.52102214032E+02  0.12922009541E+03  0.00000000000E+00 0.  1.
         15    1    5    5    0    0 -0.36522504994E+02 -0.61435110676E+02  0.81399595291E+02  0.10833844210E+03  0.17770000000E+01 0. -1.
        -15    1    5    5    0    0 -0.25434368601E+01  0.34454525215E+02  0.58992098272E+02  0.68387197387E+02  0.17770000000E+01 0.  1.
          2    1    6    6  503    0  0.82914250488E+02  0.57391224106E+01 -0.18562436365E+02  0.85160287128E+02  0.00000000000E+00 0. -1.
         -2    1    6    6    0  503  0.69932570130E+03  0.17641666319E+03  0.69621506827E+02  0.72458707535E+03  0.00000000000E+00 0.  1.
<mgrwt>
<rscale>  0 0.83482643E+03</rscale>
<asrwt>0</asrwt>
<pdfrwt beam="1">  1        1 0.12873429E+00 0.83482643E+03</pdfrwt>
<pdfrwt beam="2">  1       -1 0.14187010E+00 0.83482643E+03</pdfrwt>
<totfact> 0.84936611E+00</totfact>
</mgrwt>
</event>
<event>
12    1  0.8033771E-008  0.6310943E+03  0.7818608E-02  0.9842916E-01
         -1   -1    0    0    0  501 -0.00000000000E+00  0.00000000000E+00  0.59451566246E+03  0.59451566246E+03  0.00000000000E+00 0.  1.
          1   -1    0    0  501    0  0.00000000000E+00 -0.00000000000E+00 -0.10596613905E+04  0.10596613905E+04  0.00000000000E+00 0. -1.
         23    2    1    2    0    0 -0.56167158842E+03  0.28248853170E+03  0.60016204391E+02  0.63874948184E+03  0.95520741119E+02 0.  0.
    5000000    2    1    2    0    0  0.56167158842E+03 -0.28248853170E+03 -0.52516193240E+03  0.10154275711E+04  0.60001946062E+03 0.  0.
         23    2    4    4    0    0  0.23902483620E+03 -0.98482532108E+02 -0.56866172653E+03  0.63048683657E+03  0.85474033570E+02 0.  0.
         23    2    4    4    0    0  0.32264675221E+03 -0.18400599959E+03  0.43499794124E+02  0.38494073453E+03  0.91257889592E+02 0.  0.
          1    1    3    3  502    0 -0.17916464337E+03  0.11177961893E+03  0.61245455229E+02  0.21987646174E+03  0.00000000000E+00 0. -1.
         -1    1    3    3    0  502 -0.38250694504E+03  0.17070891277E+03 -0.12292508379E+01  0.41887302009E+03  0.00000000000E+00 0.  1.
         15    1    5    5    0    0  0.42512449587E+02 -0.31621947902E+02 -0.20506361025E+03  0.21180533028E+03  0.17770000000E+01 0.  1.
        -15    1    5    5    0    0  0.19651238662E+03 -0.66860584206E+02 -0.36359811628E+03  0.41868150629E+03  0.17770000000E+01 0. -1.
          1    1    6    6  503    0  0.27178665893E+03 -0.15101408507E+03  0.10366008599E+01  0.31092493693E+03  0.00000000000E+00 0. -1.
         -1    1    6    6    0  503  0.50860093279E+02 -0.32991914521E+02  0.42463193264E+02  0.74015797600E+02  0.00000000000E+00 0.  1.
<mgrwt>
<rscale>  0 0.63109428E+03</rscale>
<asrwt>0</asrwt>
<pdfrwt beam="1">  1        1 0.16302483E+00 0.63109428E+03</pdfrwt>
<pdfrwt beam="2">  1       -1 0.91463949E-01 0.63109428E+03</pdfrwt>
<totfact> 0.16616826E+01</totfact>
</mgrwt>
</event>
<event>
12    1  0.8033771E-008  0.5191481E+03  0.7818608E-02  0.1008898E+00
          1   -1    0    0  501    0  0.00000000000E+00  0.00000000000E+00  0.62462601569E+03  0.62462601569E+03  0.00000000000E+00 0. -1.
         -1   -1    0    0    0  501 -0.00000000000E+00 -0.00000000000E+00 -0.72171126662E+03  0.72171126662E+03  0.00000000000E+00 0.  1.
         23    2    1    2    0    0 -0.40779651156E+03 -0.29909327023E+03  0.12931736594E+03  0.52944182043E+03  0.88492264933E+02 0.  0.
    5000000    2    1    2    0    0  0.40779651156E+03  0.29909327023E+03 -0.22640261687E+03  0.81689546188E+03  0.60025433907E+03 0.  0.
         23    2    4    4    0    0  0.23657259637E+03  0.14936576147E+03 -0.41484770339E+03  0.50700412869E+03  0.81718085195E+02 0.  0.
         23    2    4    4    0    0  0.17122391519E+03  0.14972750877E+03  0.18844508653E+03  0.30989133318E+03  0.93729033569E+02 0.  0.
          2    1    3    3  502    0 -0.23537913464E+03 -0.20235396162E+03  0.41692769514E+02  0.31319123525E+03  0.00000000000E+00 0. -1.
         -2    1    3    3    0  502 -0.17241737691E+03 -0.96739308616E+02  0.87624596426E+02  0.21625058518E+03  0.00000000000E+00 0.  1.
         15    1    5    5    0    0  0.11132039388E+03  0.31901209961E+02 -0.12745119331E+03  0.17221173507E+03  0.17770000000E+01 0.  1.
        -15    1    5    5    0    0  0.12525220249E+03  0.11746455151E+03 -0.28739651009E+03  0.33479239362E+03  0.17770000000E+01 0. -1.
          4    1    6    6  503    0  0.52062361146E+02  0.99626376927E+00  0.62987515559E+02  0.81724593030E+02  0.00000000000E+00 0. -1.
         -4    1    6    6    0  503  0.11916155404E+03  0.14873124500E+03  0.12545757097E+03  0.22816674015E+03  0.00000000000E+00 0.  1.
<mgrwt>
<rscale>  0 0.51914815E+03</rscale>
<asrwt>0</asrwt>
<pdfrwt beam="1">  1        1 0.96096311E-01 0.51914815E+03</pdfrwt>
<pdfrwt beam="2">  1       -1 0.11103250E+00 0.51914815E+03</pdfrwt>
<totfact> 0.25455397E+01</totfact>
</mgrwt>
</event>
<event>
12    1  0.8033771E-008  0.1163760E+04  0.7818608E-02  0.9145182E-01
          2   -1    0    0  501    0  0.00000000000E+00  0.00000000000E+00  0.26094477260E+04  0.26094477260E+04  0.00000000000E+00 0. -1.
         -2   -1    0    0    0  501 -0.00000000000E+00 -0.00000000000E+00 -0.74290579076E+03  0.74290579076E+03  0.00000000000E+00 0.  1.
         23    2    1    2    0    0 -0.11379089883E+04  0.19315639260E+03  0.16769187299E+04  0.20377814844E+04  0.91382130807E+02 0.  0.
    5000000    2    1    2    0    0  0.11379089883E+04 -0.19315639260E+03  0.18962320536E+03  0.13145720324E+04  0.59999700882E+03 0.  0.
         23    2    4    4    0    0  0.35215884185E+03 -0.14988455769E+03 -0.18927322329E+03  0.43639300625E+03  0.90184656812E+02 0.  0.
         23    2    4    4    0    0  0.78575014646E+03 -0.43271834906E+02  0.37889642865E+03  0.87817902611E+03  0.91433877232E+02 0.  0.
          2    1    3    3  502    0 -0.85118727676E+03  0.12598900610E+03  0.11849551966E+04  0.14644151829E+04  0.00000000000E+00 0. -1.
         -2    1    3    3    0  502 -0.28672171155E+03  0.67167386499E+02  0.49196353325E+03  0.57336630153E+03  0.00000000000E+00 0.  1.
         15    1    5    5    0    0  0.83643845687E+02 -0.32306204299E+02 -0.89607936599E+02  0.12677824651E+03  0.17770000000E+01 0. -1.
        -15    1    5    5    0    0  0.26851499616E+03 -0.11757835339E+03 -0.99665286693E+02  0.30961475974E+03  0.17770000000E+01 0.  1.
          3    1    6    6  503    0  0.40268212777E+03  0.11181906411E+02  0.22794041704E+03  0.46285501486E+03  0.00000000000E+00 0. -1.
         -3    1    6    6    0  503  0.38306801869E+03 -0.54453741317E+02  0.15095601160E+03  0.41532401126E+03  0.00000000000E+00 0.  1.
<mgrwt>
<rscale>  0 0.11637599E+04</rscale>
<asrwt>0</asrwt>
<pdfrwt beam="1">  1        2 0.40145349E+00 0.11637599E+04</pdfrwt>
<pdfrwt beam="2">  1       -2 0.11429320E+00 0.11637599E+04</pdfrwt>
<totfact> 0.17756232E+00</totfact>
</mgrwt>
</event>
<event>
12    1  0.8033771E-008  0.1116067E+04  0.7818608E-02  0.9189672E-01
          2   -1    0    0  501    0  0.00000000000E+00  0.00000000000E+00  0.16751878393E+04  0.16751878393E+04  0.00000000000E+00 0. -1.
         -2   -1    0    0    0  501 -0.00000000000E+00 -0.00000000000E+00 -0.79552307853E+03  0.79552307853E+03  0.00000000000E+00 0.  1.
         23    2    1    2    0    0 -0.73396148055E+03 -0.78269383174E+03  0.46917985097E+03  0.11746669022E+04  0.91670657257E+02 0.  0.
    5000000    2    1    2    0    0  0.73396148055E+03  0.78269383174E+03  0.41048490976E+03  0.12960440156E+04  0.59993594663E+03 0.  0.
         23    2    4    4    0    0 -0.48031748303E+02  0.87875692427E+02  0.17183980697E+03  0.21916518725E+03  0.92061250700E+02 0.  0.
         23    2    4    4    0    0  0.78199322885E+03  0.69481813931E+03  0.23864510279E+03  0.10768788283E+04  0.91819764582E+02 0.  0.
          4    1    3    3  502    0 -0.64837029949E+03 -0.66970329390E+03  0.37648159611E+03  0.10052984330E+04  0.00000000000E+00 0. -1.
         -4    1    3    3    0  502 -0.85591181055E+02 -0.11299053784E+03  0.92698254857E+02  0.16936846923E+03  0.00000000000E+00 0.  1.
         15    1    5    5    0    0 -0.29970019633E+02  0.88621204344E+02  0.17706222936E+03  0.20026510113E+03  0.17770000000E+01 0. -1.
        -15    1    5    5    0    0 -0.18061728670E+02 -0.74551191706E+00 -0.52224223966E+01  0.18900086118E+02  0.17770000000E+01 0.  1.
          2    1    6    6  503    0  0.46911360835E+03  0.43638101166E+03  0.18928797412E+03  0.66807626962E+03  0.00000000000E+00 0. -1.
         -2    1    6    6    0  503  0.31287962050E+03  0.25843712765E+03  0.49357128667E+02  0.40880255872E+03  0.00000000000E+00 0.  1.
<mgrwt>
<rscale>  0 0.11160670E+04</rscale>
<asrwt>0</asrwt>
<pdfrwt beam="1">  1        2 0.25772120E+00 0.11160670E+04</pdfrwt>
<pdfrwt beam="2">  1       -2 0.12238817E+00 0.11160670E+04</pdfrwt>
<totfact> 0.50303925E+00</totfact>
</mgrwt>
</event>
<event>
12    1  0.8033771E-008  0.4816237E+03  0.7818608E-02  0.1018690E+00
          1   -1    0    0  501    0  0.00000000000E+00  0.00000000000E+00  0.61803263228E+03  0.61803263228E+03  0.00000000000E+00 0. -1.
         -1   -1    0    0    0  501 -0.00000000000E+00 -0.00000000000E+00 -0.62840499515E+03  0.62840499515E+03  0.00000000000E+00 0.  1.
         23    2    1    2    0    0  0.26273331684E+03 -0.39252169463E+03 -0.36433742234E+02  0.48243626433E+03  0.91188020192E+02 0.  0.
    5000000    2    1    2    0    0 -0.26273331684E+03  0.39252169463E+03  0.26061379361E+02  0.76400136311E+03  0.59993067167E+03 0.  0.
         23    2    4    4    0    0 -0.17153356844E+03  0.25889043395E+03 -0.26563849449E+03  0.41838109433E+03  0.89615336016E+02 0.  0.
         23    2    4    4    0    0 -0.91199748405E+02  0.13363126068E+03  0.29169987385E+03  0.34562026878E+03  0.90497767063E+02 0.  0.
          1    1    3    3  502    0  0.16684042271E+02 -0.35560374695E+02  0.21918913118E+02  0.44981510281E+02  0.00000000000E+00 0. -1.
         -1    1    3    3    0  502  0.24604927457E+03 -0.35696131994E+03 -0.58352655352E+02  0.43745475404E+03  0.00000000000E+00 0.  1.
         15    1    5    5    0    0 -0.14976753864E+03  0.20034790943E+03 -0.16413430894E+03  0.29918694749E+03  0.17770000000E+01 0. -1.
        -15    1    5    5    0    0 -0.21766029793E+02  0.58542524515E+02 -0.10150418555E+03  0.11919414685E+03  0.17770000000E+01 0.  1.
          4    1    6    6  503    0 -0.66790296165E+02  0.13770391226E+03  0.20735291192E+03  0.25771794892E+03  0.00000000000E+00 0. -1.
         -4    1    6    6    0  503 -0.24409452240E+02 -0.40726515741E+01  0.84346961930E+02  0.87902319857E+02  0.00000000000E+00 0.  1.
<mgrwt>
<rscale>  0 0.48162371E+03</rscale>
<asrwt>0</asrwt>
<pdfrwt beam="1">  1        1 0.95081943E-01 0.48162371E+03</pdfrwt>
<pdfrwt beam="2">  1       -1 0.96677692E-01 0.48162371E+03</pdfrwt>
<totfact> 0.35699859E+01</totfact>
</mgrwt>
</event>
<event>
12    1  0.8033771E-008  0.7299422E+03  0.7818608E-02  0.9667354E-01
         -1   -1    0    0    0  501 -0.00000000000E+00  0.00000000000E+00  0.46595818840E+03  0.46595818840E+03  0.00000000000E+00 0.  1.
          1   -1    0    0  501    0  0.00000000000E+00 -0.00000000000E+00 -0.13102392517E+04  0.13102392517E+04  0.00000000000E+00 0. -1.
         23    2    1    2    0    0  0.46931763443E+03 -0.38853163869E+03 -0.65721871235E+03  0.90081570680E+03  0.91195534486E+02 0.  0.
    5000000    2    1    2    0    0 -0.46931763443E+03  0.38853163869E+03 -0.18706235090E+03  0.87538173326E+03  0.60007081211E+03 0.  0.
         23    2    4    4    0    0 -0.59480331487E+03  0.34410230452E+03 -0.16913873326E+03  0.71363968381E+03  0.92066866229E+02 0.  0.
         23    2    4    4    0    0  0.12548568044E+03  0.44429334173E+02 -0.17923617640E+02  0.16174204945E+03  0.90103344894E+02 0.  0.
          2    1    3    3  502    0  0.22594515648E+03 -0.13653205252E+03 -0.31613237308E+03  0.41186392463E+03  0.00000000000E+00 0. -1.
         -2    1    3    3    0  502  0.24337247795E+03 -0.25199958617E+03 -0.34108633927E+03  0.48895178218E+03  0.00000000000E+00 0.  1.
         15    1    5    5    0    0 -0.56384396764E+03  0.33152585033E+03 -0.18009256955E+03  0.67842899453E+03  0.17770000000E+01 0.  1.
        -15    1    5    5    0    0 -0.30959347229E+02  0.12576454187E+02  0.10953836289E+02  0.35210689275E+02  0.17770000000E+01 0. -1.
          3    1    6    6  503    0  0.36446497828E+01  0.35663223263E+02  0.83132153753E+01  0.36800251567E+02  0.00000000000E+00 0. -1.
         -3    1    6    6    0  503  0.12184103066E+03  0.87661109101E+01 -0.26236833015E+02  0.12494179788E+03  0.00000000000E+00 0.  1.
<mgrwt>
<rscale>  0 0.72994223E+03</rscale>
<asrwt>0</asrwt>
<pdfrwt beam="1">  1        1 0.20157527E+00 0.72994223E+03</pdfrwt>
<pdfrwt beam="2">  1       -1 0.71685876E-01 0.72994223E+03</pdfrwt>
<totfact> 0.18094494E+01</totfact>
</mgrwt>
</event>
<event>
12    1  0.8033771E-008  0.1291095E+04  0.7818608E-02  0.9036657E-01
         -2   -1    0    0    0  501 -0.00000000000E+00  0.00000000000E+00  0.14694263323E+04  0.14694263323E+04  0.00000000000E+00 0.  1.
          2   -1    0    0  501    0  0.00000000000E+00 -0.00000000000E+00 -0.13518137134E+04  0.13518137134E+04  0.00000000000E+00 0. -1.
         23    2    1    2    0    0 -0.91712401157E+03 -0.86838728143E+03 -0.40318880744E+03  0.13291221913E+04  0.93763862062E+02 0.  0.
    5000000    2    1    2    0    0  0.91712401157E+03  0.86838728143E+03  0.52080142626E+03  0.14921178544E+04  0.59997386828E+03 0.  0.
         23    2    4    4    0    0  0.23379244495E+02  0.84774770803E+02  0.23269523597E+03  0.26573607564E+03  0.93462496293E+02 0.  0.
         23    2    4    4    0    0  0.89374476708E+03  0.78361251062E+03  0.28810619029E+03  0.12263817787E+04  0.90436800385E+02 0.  0.
          4    1    3    3  502    0 -0.37148673233E+03 -0.38973519638E+03 -0.21092477904E+03  0.57826047591E+03  0.00000000000E+00 0.  1.
         -4    1    3    3    0  502 -0.54563727924E+03 -0.47865208505E+03 -0.19226402839E+03  0.75086171539E+03  0.00000000000E+00 0. -1.
         15    1    5    5    0    0 -0.74281908613E+01  0.93591785561E+02  0.19347130389E+03  0.21505558235E+03  0.17770000000E+01 0. -1.
        -15    1    5    5    0    0  0.30807435356E+02 -0.88170147581E+01  0.39223932086E+02  0.50680493286E+02  0.17770000000E+01 0.  1.
          2    1    6    6  503    0  0.17979603348E+03  0.20735979352E+03  0.73538625469E+02  0.28413487477E+03  0.00000000000E+00 0. -1.
         -2    1    6    6    0  503  0.71394873360E+03  0.57625271710E+03  0.21456756482E+03  0.94224690397E+03  0.00000000000E+00 0.  1.
<mgrwt>
<rscale>  0 0.12910950E+04</rscale>
<asrwt>0</asrwt>
<pdfrwt beam="1">  1        2 0.20797134E+00 0.12910950E+04</pdfrwt>
<pdfrwt beam="2">  1       -2 0.22606559E+00 0.12910950E+04</pdfrwt>
<totfact> 0.13420341E+00</totfact>
</mgrwt>
</event>
<event>
12    1  0.8033771E-008  0.1025151E+04  0.7818608E-02  0.9281382E-01
         -2   -1    0    0    0  501 -0.00000000000E+00  0.00000000000E+00  0.68016967488E+03  0.68016967488E+03  0.00000000000E+00 0. -1.
          2   -1    0    0  501    0  0.00000000000E+00 -0.00000000000E+00 -0.27151761328E+04  0.27151761328E+04  0.00000000000E+00 0.  1.
         23    2    1    2    0    0  0.96414612357E+03 -0.16693776497E+03  0.82747359367E+02  0.98652942117E+03  0.94589684286E+02 0.  0.
    5000000    2    1    2    0    0 -0.96414612357E+03  0.16693776497E+03 -0.21177538173E+04  0.24088163865E+04  0.60005765420E+03 0.  0.
         23    2    4    4    0    0 -0.68814629387E+03  0.29189774219E+03 -0.18398382267E+04  0.19880362207E+04  0.92378032753E+02 0.  0.
         23    2    4    4    0    0 -0.27599982970E+03 -0.12495997723E+03 -0.27791559066E+03  0.42078016583E+03  0.89598942648E+02 0.  0.
          4    1    3    3  502    0  0.47759642794E+03 -0.35484298752E+02  0.48802095401E+02  0.48139290393E+03  0.00000000000E+00 0. -1.
         -4    1    3    3    0  502  0.48654969563E+03 -0.13145346621E+03  0.33945263967E+02  0.50513651724E+03  0.00000000000E+00 0.  1.
         15    1    5    5    0    0 -0.75681766318E+02  0.59867233784E+02 -0.19434279965E+03  0.21698870233E+03  0.17770000000E+01 0. -1.
        -15    1    5    5    0    0 -0.61246452756E+03  0.23203050841E+03 -0.16454954270E+04  0.17710475184E+04  0.17770000000E+01 0.  1.
          1    1    6    6  503    0 -0.12799698680E+03 -0.97351825985E+01 -0.11154457547E+03  0.17005938588E+03  0.00000000000E+00 0. -1.
         -1    1    6    6    0  503 -0.14800284290E+03 -0.11522479463E+03 -0.16637101519E+03  0.25072077995E+03  0.00000000000E+00 0.  1.
<mgrwt>
<rscale>  0 0.10251509E+04</rscale>
<asrwt>0</asrwt>
<pdfrwt beam="1">  1        2 0.41771940E+00 0.10251509E+04</pdfrwt>
<pdfrwt beam="2">  1       -2 0.10464149E+00 0.10251509E+04</pdfrwt>
<totfact> 0.19445077E+00</totfact>
</mgrwt>
</event>
<event>
12    1  0.8033771E-008  0.9621875E+03  0.7818608E-02  0.9351018E-01
          2   -1    0    0  501    0  0.00000000000E+00  0.00000000000E+00  0.11999453900E+04  0.11999453900E+04  0.00000000000E+00 0. -1.
         -2   -1    0    0    0  501 -0.00000000000E+00 -0.00000000000E+00 -0.11483139970E+04  0.11483139970E+04  0.00000000000E+00 0.  1.
         23    2    1    2    0    0  0.48745625100E+03  0.75550321794E+03  0.64968098237E+03  0.11127355424E+04  0.87728556267E+02 0.  0.
    5000000    2    1    2    0    0 -0.48745625100E+03 -0.75550321794E+03 -0.59804958944E+03  0.12355238446E+04  0.60038083753E+03 0.  0.
         23    2    4    4    0    0 -0.25139232432E+03 -0.46081154492E+02 -0.35061795875E+03  0.44311222029E+03  0.89966178336E+02 0.  0.
         23    2    4    4    0    0 -0.23606392668E+03 -0.70942206345E+03 -0.24743163069E+03  0.79241162426E+03  0.87680834908E+02 0.  0.
          3    1    3    3  502    0  0.18810265559E+03  0.37034935688E+03  0.31022100222E+03  0.51843835256E+03  0.00000000000E+00 0. -1.
         -3    1    3    3    0  502  0.29935359541E+03  0.38515386106E+03  0.33945998015E+03  0.59429718988E+03  0.00000000000E+00 0.  1.
         15    1    5    5    0    0 -0.49736564084E+01 -0.22512879532E+02 -0.35888040760E+02  0.42692812059E+02  0.17770000000E+01 0. -1.
        -15    1    5    5    0    0 -0.24641866791E+03 -0.23568274960E+02 -0.31472991799E+03  0.40041940823E+03  0.17770000000E+01 0.  1.
          2    1    6    6  503    0 -0.12704330990E+03 -0.47964204675E+03 -0.19250609819E+03  0.53221714877E+03  0.00000000000E+00 0. -1.
         -2    1    6    6    0  503 -0.10902061678E+03 -0.22978001670E+03 -0.54925532498E+02  0.26019447550E+03  0.00000000000E+00 0.  1.
<mgrwt>
<rscale>  0 0.96218752E+03</rscale>
<asrwt>0</asrwt>
<pdfrwt beam="1">  1        2 0.18460698E+00 0.96218752E+03</pdfrwt>
<pdfrwt beam="2">  1       -2 0.17666369E+00 0.96218752E+03</pdfrwt>
<totfact> 0.36073772E+00</totfact>
</mgrwt>
</event>
<event>
12    1  0.8033771E-008  0.2858246E+04  0.7818608E-02  0.8285410E-01
         -2   -1    0    0    0  501 -0.00000000000E+00  0.00000000000E+00  0.47206990425E+04  0.47206990425E+04  0.00000000000E+00 0.  1.
          2   -1    0    0  501    0  0.00000000000E+00 -0.00000000000E+00 -0.29865891951E+04  0.29865891951E+04  0.00000000000E+00 0. -1.
         23    2    1    2    0    0  0.27007742672E+04 -0.90149304562E+03  0.33351242221E+04  0.43861309140E+04  0.90661262135E+02 0.  0.
    5000000    2    1    2    0    0 -0.27007742672E+04  0.90149304562E+03 -0.16010143747E+04  0.33211573236E+04  0.59997298830E+03 0.  0.
         23    2    4    4    0    0 -0.80375077691E+03  0.41872456361E+03 -0.26216870566E+03  0.94780957296E+03  0.90911961915E+02 0.  0.
         23    2    4    4    0    0 -0.18970234903E+04  0.48276848201E+03 -0.13388456690E+04  0.23733477507E+04  0.92240393583E+02 0.  0.
          4    1    3    3  502    0  0.72357689083E+03 -0.26538257780E+03  0.95445983904E+03  0.12267783067E+04  0.00000000000E+00 0.  1.
         -4    1    3    3    0  502  0.19771973764E+04 -0.63611046782E+03  0.23806643830E+04  0.31593526073E+04  0.00000000000E+00 0. -1.
         15    1    5    5    0    0 -0.73346797857E+03  0.40719961064E+03 -0.23174887473E+03  0.87034332143E+03  0.17770000000E+01 0. -1.
        -15    1    5    5    0    0 -0.70282798341E+02  0.11524952968E+02 -0.30419830928E+02  0.77466251531E+02  0.17770000000E+01 0.  1.
          1    1    6    6  503    0 -0.15629647652E+04  0.42365459732E+03 -0.11358554378E+04  0.19780064840E+04  0.00000000000E+00 0. -1.
         -1    1    6    6    0  503 -0.33405872514E+03  0.59113884685E+02 -0.20299023120E+03  0.39534126672E+03  0.00000000000E+00 0.  1.
<mgrwt>
<rscale>  0 0.28582457E+04</rscale>
<asrwt>0</asrwt>
<pdfrwt beam="1">  1        2 0.45947526E+00 0.28582457E+04</pdfrwt>
<pdfrwt beam="2">  1       -2 0.72626139E+00 0.28582457E+04</pdfrwt>
<totfact> 0.25281428E-04</totfact>
</mgrwt>
</event>
<event>
12    1  0.9469623E-008  0.1231919E+04  0.7818608E-02  0.9085367E-01
         -2   -1    0    0    0  501 -0.00000000000E+00  0.00000000000E+00  0.97323503169E+03  0.97323503169E+03  0.00000000000E+00 0.  1.
          2   -1    0    0  501    0  0.00000000000E+00 -0.00000000000E+00 -0.20213888829E+04  0.20213888829E+04  0.00000000000E+00 0. -1.
         23    2    1    2    0    0 -0.89847503891E+03  0.73123591589E+03 -0.12128683300E+04  0.16796851149E+04  0.91264115541E+02 0.  0.
    5000000    2    1    2    0    0  0.89847503891E+03 -0.73123591589E+03  0.16471447884E+03  0.13149387997E+04  0.59997485555E+03 0.  0.
         23    2    4    4    0    0  0.33102155650E+03  0.36677487561E+02  0.36756714120E+02  0.34736347972E+03  0.91595971815E+02 0.  0.
         23    2    4    4    0    0  0.56745348241E+03 -0.76791340345E+03  0.12795776472E+03  0.96757532002E+03  0.90190689391E+02 0.  0.
          3    1    3    3  502    0 -0.55353204770E+03  0.39292473799E+03 -0.70077564204E+03  0.97564034256E+03  0.00000000000E+00 0. -1.
         -3    1    3    3    0  502 -0.34494299121E+03  0.33831117790E+03 -0.51209268801E+03  0.70404477229E+03  0.00000000000E+00 0.  1.
         15    1    5    5    0    0  0.12969112324E+03  0.54457164531E+02 -0.58762902952E+01  0.14079438459E+03  0.17770000000E+01 0. -1.
        -15    1    5    5    0    0  0.20133043326E+03 -0.17779676970E+02  0.42633004415E+02  0.20656909513E+03  0.17770000000E+01 0.  1.
          2    1    6    6  503    0  0.27752759184E+03 -0.45101439095E+03  0.71564821931E+02  0.53437540064E+03  0.00000000000E+00 0. -1.
         -2    1    6    6    0  503  0.28992589057E+03 -0.31689901251E+03  0.56392942788E+02  0.43319991938E+03  0.00000000000E+00 0.  1.
<mgrwt>
<rscale>  0 0.12319193E+04</rscale>
<asrwt>0</asrwt>
<pdfrwt beam="1">  1        2 0.31098290E+00 0.12319193E+04</pdfrwt>
<pdfrwt beam="2">  1       -2 0.14972847E+00 0.12319193E+04</pdfrwt>
<totfact> 0.18983593E+00</totfact>
</mgrwt>
</event>
<event>
12    1  0.8033771E-008  0.7358270E+03  0.7818608E-02  0.9657852E-01
         -1   -1    0    0    0  501 -0.00000000000E+00  0.00000000000E+00  0.29059211185E+03  0.29059211185E+03  0.00000000000E+00 0.  1.
          1   -1    0    0  501    0  0.00000000000E+00 -0.00000000000E+00 -0.22436725963E+04  0.22436725963E+04  0.00000000000E+00 0. -1.
         23    2    1    2    0    0  0.57229420593E+03  0.38792531425E+03 -0.76034602922E+03  0.10315235040E+04  0.88926642143E+02 0.  0.
    5000000    2    1    2    0    0 -0.57229420593E+03 -0.38792531425E+03 -0.11927344552E+04  0.15027412041E+04  0.59800412893E+03 0.  0.
         23    2    4    4    0    0 -0.99763448590E+02  0.40410195943E+02 -0.63461241721E+03  0.65037044014E+03  0.93075559193E+02 0.  0.
         23    2    4    4    0    0 -0.47253075734E+03 -0.42833551019E+03 -0.55812203799E+03  0.85237076393E+03  0.90989471875E+02 0.  0.
          3    1    3    3  502    0  0.25072425549E+03  0.11912962194E+03 -0.28651520734E+03  0.39893042395E+03  0.00000000000E+00 0. -1.
         -3    1    3    3    0  502  0.32156995044E+03  0.26879569231E+03 -0.47383082188E+03  0.63259308010E+03  0.00000000000E+00 0.  1.
         15    1    5    5    0    0 -0.11272845015E+03  0.33353911795E+02 -0.61277525859E+03  0.62395261212E+03  0.17770000000E+01 0. -1.
        -15    1    5    5    0    0  0.12965001562E+02  0.70562841476E+01 -0.21837158616E+02  0.26417828013E+02  0.17770000000E+01 0.  1.
          4    1    6    6  503    0 -0.36163475391E+03 -0.36931066047E+03 -0.47282706852E+03  0.70052515722E+03  0.00000000000E+00 0. -1.
         -4    1    6    6    0  503 -0.11089600343E+03 -0.59024849728E+02 -0.85294969470E+02  0.15184560671E+03  0.00000000000E+00 0.  1.
<mgrwt>
<rscale>  0 0.73582704E+03</rscale>
<asrwt>0</asrwt>
<pdfrwt beam="1">  1        1 0.34518040E+00 0.73582704E+03</pdfrwt>
<pdfrwt beam="2">  1       -1 0.44706479E-01 0.73582704E+03</pdfrwt>
<totfact> 0.10603506E+01</totfact>
</mgrwt>
</event>
<event>
12    1  0.8033771E-008  0.5596614E+03  0.7818608E-02  0.9992821E-01
          1   -1    0    0  501    0  0.00000000000E+00  0.00000000000E+00  0.81328060224E+03  0.81328060224E+03  0.00000000000E+00 0. -1.
         -1   -1    0    0    0  501 -0.00000000000E+00 -0.00000000000E+00 -0.42939394952E+03  0.42939394952E+03  0.00000000000E+00 0.  1.
         23    2    1    2    0    0  0.32992148842E+03  0.23300840760E+03 -0.17537408652E+02  0.41524514617E+03  0.94762145276E+02 0.  0.
    5000000    2    1    2    0    0 -0.32992148842E+03 -0.23300840760E+03  0.40142406136E+03  0.82742940560E+03  0.60029745766E+03 0.  0.
         23    2    4    4    0    0 -0.29147528122E+03  0.13822696160E+03  0.22590522451E+03  0.40458417946E+03  0.92685788182E+02 0.  0.
         23    2    4    4    0    0 -0.38446207199E+02 -0.37123536921E+03  0.17551883686E+03  0.42284522614E+03  0.93259921613E+02 0.  0.
          3    1    3    3  502    0  0.18555632230E+03  0.86182996324E+02  0.21316237705E+02  0.20570133589E+03  0.00000000000E+00 0. -1.
         -3    1    3    3    0  502  0.14436516612E+03  0.14682541128E+03 -0.38853646357E+02  0.20954381027E+03  0.00000000000E+00 0.  1.
         15    1    5    5    0    0 -0.88402590539E+02  0.84088719727E+02  0.55686488363E+02  0.13412707972E+03  0.17770000000E+01 0. -1.
        -15    1    5    5    0    0 -0.20307269068E+03  0.54138241876E+02  0.17021873615E+03  0.27045709974E+03  0.17770000000E+01 0.  1.
          1    1    6    6  503    0  0.11744318032E+02 -0.43015557332E+02 -0.50702043671E+01  0.44877323349E+02  0.00000000000E+00 0. -1.
         -1    1    6    6    0  503 -0.50190525230E+02 -0.32821981187E+03  0.18058904122E+03  0.37796790279E+03  0.00000000000E+00 0.  1.
<mgrwt>
<rscale>  0 0.55966145E+03</rscale>
<asrwt>0</asrwt>
<pdfrwt beam="1">  1        1 0.12512009E+00 0.55966145E+03</pdfrwt>
<pdfrwt beam="2">  1       -1 0.66060608E-01 0.55966145E+03</pdfrwt>
<totfact> 0.52190106E+01</totfact>
</mgrwt>
</event>
<event>
12    1  0.8033771E-008  0.3546181E+03  0.7818608E-02  0.1060735E+00
          2   -1    0    0  501    0  0.00000000000E+00  0.00000000000E+00  0.47364992920E+04  0.47364992920E+04  0.00000000000E+00 0. -1.
         -2   -1    0    0    0  501 -0.00000000000E+00 -0.00000000000E+00 -0.11938978836E+03  0.11938978836E+03  0.00000000000E+00 0.  1.
         23    2    1    2    0    0  0.49808601275E+02  0.27226989471E+03  0.37714121030E+04  0.37826395669E+04  0.90559647328E+02 0.  0.
    5000000    2    1    2    0    0 -0.49808601275E+02 -0.27226989471E+03  0.84569740065E+03  0.10732495135E+04  0.60004052570E+03 0.  0.
         23    2    4    4    0    0 -0.93449647275E+02  0.32570545421E+02  0.71472740235E+03  0.72725247240E+03  0.90924264839E+02 0.  0.
         23    2    4    4    0    0  0.43641046000E+02 -0.30484044013E+03  0.13096999830E+03  0.34599704112E+03  0.87912326645E+02 0.  0.
          4    1    3    3  502    0  0.38759797399E+02  0.18359904494E+03  0.19414473070E+04  0.19504944443E+04  0.00000000000E+00 0. -1.
         -4    1    3    3    0  502  0.11048803876E+02  0.88670849765E+02  0.18299647960E+04  0.18321451226E+04  0.00000000000E+00 0.  1.
         15    1    5    5    0    0 -0.87522981712E+02  0.33263618129E+01  0.33213128699E+03  0.34349044606E+03  0.17770000000E+01 0.  1.
        -15    1    5    5    0    0 -0.59266655632E+01  0.29244183608E+02  0.38259611536E+03  0.38376202634E+03  0.17770000000E+01 0. -1.
          4    1    6    6  503    0  0.50598679989E+02 -0.12624773047E+03  0.25224340580E+02  0.13832925657E+03  0.00000000000E+00 0. -1.
         -4    1    6    6    0  503 -0.69576339885E+01 -0.17859270966E+03  0.10574565772E+03  0.20766778455E+03  0.00000000000E+00 0.  1.
<mgrwt>
<rscale>  0 0.35461812E+03</rscale>
<asrwt>0</asrwt>
<pdfrwt beam="1">  1        2 0.72869205E+00 0.35461812E+03</pdfrwt>
<pdfrwt beam="2">  1       -2 0.18367663E-01 0.35461812E+03</pdfrwt>
<totfact> 0.23103147E+00</totfact>
</mgrwt>
</event>
<event>
12    1  0.8033771E-008  0.9097789E+03  0.7818608E-02  0.9413439E-01
         -1   -1    0    0    0  501 -0.00000000000E+00  0.00000000000E+00  0.10823046115E+04  0.10823046115E+04  0.00000000000E+00 0.  1.
          1   -1    0    0  501    0  0.00000000000E+00 -0.00000000000E+00 -0.85827639406E+03  0.85827639406E+03  0.00000000000E+00 0. -1.
         23    2    1    2    0    0 -0.79200168142E+03 -0.22204088202E+03 -0.17696584827E+03  0.84638196665E+03  0.92069025027E+02 0.  0.
    5000000    2    1    2    0    0  0.79200168142E+03  0.22204088202E+03  0.40099406575E+03  0.10941990390E+04  0.59992206113E+03 0.  0.
         23    2    4    4    0    0  0.85575432204E+03  0.16557676526E+03  0.41115834125E+03  0.96834381773E+03  0.94379250228E+02 0.  0.
         23    2    4    4    0    0 -0.63752640620E+02  0.56464116755E+02 -0.10164275501E+02  0.12585522123E+03  0.92106615108E+02 0.  0.
          4    1    3    3  502    0 -0.56154488144E+03 -0.16996400111E+03 -0.84915601884E+02  0.59281622362E+03  0.00000000000E+00 0. -1.
         -4    1    3    3    0  502 -0.23045679998E+03 -0.52076880908E+02 -0.92050246382E+02  0.25356574303E+03  0.00000000000E+00 0.  1.
         15    1    5    5    0    0  0.18432861784E+02  0.19190859084E+01 -0.47297349440E+01  0.19208888721E+02  0.17770000000E+01 0.  1.
        -15    1    5    5    0    0  0.83732146025E+03  0.16365767936E+03  0.41588807619E+03  0.94913492901E+03  0.17770000000E+01 0. -1.
          4    1    6    6  503    0  0.21259530552E+02  0.27990600104E+02  0.28389565699E+01  0.35263309656E+02  0.00000000000E+00 0.  1.
         -4    1    6    6    0  503 -0.85012171172E+02  0.28473516651E+02 -0.13003232070E+02  0.90591911572E+02  0.00000000000E+00 0. -1.
<mgrwt>
<rscale>  0 0.90977893E+03</rscale>
<asrwt>0</asrwt>
<pdfrwt beam="1">  1        1 0.13204252E+00 0.90977893E+03</pdfrwt>
<pdfrwt beam="2">  1       -1 0.16650840E+00 0.90977893E+03</pdfrwt>
<totfact> 0.52151520E+00</totfact>
</mgrwt>
</event>
<event>
12    1  0.8033771E-008  0.6985478E+03  0.7818608E-02  0.9719719E-01
         -1   -1    0    0    0  501 -0.00000000000E+00  0.00000000000E+00  0.21320049875E+03  0.21320049875E+03  0.00000000000E+00 0.  1.
          1   -1    0    0  501    0  0.00000000000E+00 -0.00000000000E+00 -0.24689054150E+04  0.24689054150E+04  0.00000000000E+00 0. -1.
         23    2    1    2    0    0  0.14041621010E+03 -0.57953586343E+03 -0.87365463967E+03  0.10617422265E+04  0.91899929646E+02 0.  0.
    5000000    2    1    2    0    0 -0.14041621010E+03  0.57953586343E+03 -0.13820502766E+04  0.16203636873E+04  0.59994748347E+03 0.  0.
         23    2    4    4    0    0 -0.29796611705E+03  0.55752302673E+03 -0.12127769040E+04  0.13707353532E+04  0.92042693592E+02 0.  0.
         23    2    4    4    0    0  0.15754990695E+03  0.22012836697E+02 -0.16927337266E+03  0.24962833410E+03  0.91401818003E+02 0.  0.
          1    1    3    3  502    0  0.10219524297E+03 -0.53490492956E+03 -0.78740087397E+03  0.95737520737E+03  0.00000000000E+00 0. -1.
         -1    1    3    3    0  502  0.38220967132E+02 -0.44630933873E+02 -0.86253765691E+02  0.10436701913E+03  0.00000000000E+00 0.  1.
         15    1    5    5    0    0 -0.11462676677E+03  0.15930270917E+03 -0.45022241910E+03  0.49114156126E+03  0.17770000000E+01 0. -1.
        -15    1    5    5    0    0 -0.18333935029E+03  0.39822031756E+03 -0.76255448488E+03  0.87959379194E+03  0.17770000000E+01 0.  1.
          1    1    6    6  503    0  0.19716211944E+02  0.33280178556E+01  0.10294747557E+02  0.22489698609E+02  0.00000000000E+00 0. -1.
         -1    1    6    6    0  503  0.13783369501E+03  0.18684818841E+02 -0.17956812022E+03  0.22713863549E+03  0.00000000000E+00 0.  1.
<mgrwt>
<rscale>  0 0.69854784E+03</rscale>
<asrwt>0</asrwt>
<pdfrwt beam="1">  1        1 0.37983161E+00 0.69854784E+03</pdfrwt>
<pdfrwt beam="2">  1       -1 0.32800076E-01 0.69854784E+03</pdfrwt>
<totfact> 0.13146167E+01</totfact>
</mgrwt>
</event>
<event>
12    1  0.8033771E-008  0.8326710E+03  0.7818608E-02  0.9513895E-01
          2   -1    0    0  501    0  0.00000000000E+00  0.00000000000E+00  0.23843497119E+04  0.23843497119E+04  0.00000000000E+00 0.  1.
         -2   -1    0    0    0  501 -0.00000000000E+00 -0.00000000000E+00 -0.34290999915E+03  0.34290999915E+03  0.00000000000E+00 0. -1.
         23    2    1    2    0    0  0.71019414465E+03  0.17091975067E+03  0.14057531734E+04  0.15880568377E+04  0.11042305517E+03 0.  0.
    5000000    2    1    2    0    0 -0.71019414465E+03 -0.17091975067E+03  0.63568653935E+03  0.11392028733E+04  0.60008043291E+03 0.  0.
         23    2    4    4    0    0 -0.35165691759E+02 -0.23834210483E+03  0.22196663397E+03  0.33940270047E+03  0.88777371442E+02 0.  0.
         23    2    4    4    0    0 -0.67502845290E+03  0.67422354159E+02  0.41371990539E+03  0.79980017284E+03  0.91142582252E+02 0.  0.
          2    1    3    3  502    0  0.22182432835E+03  0.34010996043E+02  0.53830307426E+03  0.58320920797E+03  0.00000000000E+00 0. -1.
         -2    1    3    3    0  502  0.48836981630E+03  0.13690875463E+03  0.86745009910E+03  0.10048476297E+04  0.00000000000E+00 0.  1.
         15    1    5    5    0    0 -0.52022732830E+02 -0.95836972537E+02  0.66085459620E+02  0.12752072670E+03  0.17770000000E+01 0. -1.
        -15    1    5    5    0    0  0.16857041071E+02 -0.14250513229E+03  0.15588117435E+03  0.21188197377E+03  0.17770000000E+01 0.  1.
          2    1    6    6  503    0 -0.64131418453E+03  0.77474105206E+02  0.37278591828E+03  0.74582535565E+03  0.00000000000E+00 0.  1.
         -2    1    6    6    0  503 -0.33714268365E+02 -0.10051751047E+02  0.40933987103E+02  0.53974817190E+02  0.00000000000E+00 0. -1.
<mgrwt>
<rscale>  0 0.83267097E+03</rscale>
<asrwt>0</asrwt>
<pdfrwt beam="1">  1        2 0.36682302E+00 0.83267097E+03</pdfrwt>
<pdfrwt beam="2">  1       -2 0.52755386E-01 0.83267097E+03</pdfrwt>
<totfact> 0.14190763E+01</totfact>
</mgrwt>
</event>
<event>
12    1  0.8033771E-008  0.3486698E+03  0.7818608E-02  0.1063162E+00
          2   -1    0    0  501    0  0.00000000000E+00  0.00000000000E+00  0.29577326488E+04  0.29577326488E+04  0.00000000000E+00 0. -1.
         -2   -1    0    0    0  501 -0.00000000000E+00 -0.00000000000E+00 -0.61807030554E+02  0.61807030554E+02  0.00000000000E+00 0.  1.
         23    2    1    2    0    0 -0.65728989321E+02 -0.75445755517E+02  0.13732604570E+04  0.13798772910E+04  0.90579763300E+02 0.  0.
    5000000    2    1    2    0    0  0.65728989321E+02  0.75445755517E+02  0.15226651613E+04  0.16396623884E+04  0.59997599312E+03 0.  0.
         23    2    4    4    0    0  0.30974649366E+03 -0.17721649269E+02  0.68465412889E+03  0.75725895960E+03  0.91830868954E+02 0.  0.
         23    2    4    4    0    0 -0.24401750434E+03  0.93167404787E+02  0.83801103241E+03  0.88240342877E+03  0.90269667794E+02 0.  0.
          3    1    3    3  502    0 -0.41439575250E+02 -0.60149422492E+01  0.20121430542E+03  0.20552521654E+03  0.00000000000E+00 0. -1.
         -3    1    3    3    0  502 -0.24289414071E+02 -0.69430813268E+02  0.11720461516E+04  0.11743520745E+04  0.00000000000E+00 0.  1.
         15    1    5    5    0    0  0.18664226453E+03 -0.16352954252E+02  0.30315201977E+03  0.35638049728E+03  0.17770000000E+01 0. -1.
        -15    1    5    5    0    0  0.12310422913E+03 -0.13686950180E+01  0.38150210912E+03  0.40087846232E+03  0.17770000000E+01 0.  1.
          4    1    6    6  503    0 -0.45632599250E+02 -0.11578829239E+02  0.91344101765E+02  0.10276258233E+03  0.00000000000E+00 0. -1.
         -4    1    6    6    0  503 -0.19838490509E+03  0.10474623403E+03  0.74666693065E+03  0.77964084644E+03  0.00000000000E+00 0.  1.
<mgrwt>
<rscale>  0 0.34866979E+03</rscale>
<asrwt>0</asrwt>
<pdfrwt beam="1">  1        2 0.45503568E+00 0.34866979E+03</pdfrwt>
<pdfrwt beam="2">  1       -2 0.95087763E-02 0.34866979E+03</pdfrwt>
<totfact> 0.15549741E+02</totfact>
</mgrwt>
</event>
<event>
12    1  0.8033771E-008  0.1045166E+04  0.7818608E-02  0.9260349E-01
         -2   -1    0    0    0  501 -0.00000000000E+00  0.00000000000E+00  0.89675048529E+03  0.89675048529E+03  0.00000000000E+00 0.  1.
          2   -1    0    0  501    0  0.00000000000E+00 -0.00000000000E+00 -0.14140663574E+04  0.14140663574E+04  0.00000000000E+00 0. -1.
         23    2    1    2    0    0  0.95836403878E+03 -0.99644724178E+02 -0.65239994700E+03  0.11676380387E+04  0.96758444870E+02 0.  0.
    5000000    2    1    2    0    0 -0.95836403878E+03  0.99644724178E+02  0.13508407486E+03  0.11431788040E+04  0.60018277951E+03 0.  0.
         23    2    4    4    0    0 -0.10101768954E+04  0.11045289802E+03  0.16678259384E+03  0.10341836841E+04  0.95195883254E+02 0.  0.
         23    2    4    4    0    0  0.51812856622E+02 -0.10808173845E+02 -0.31698518973E+02  0.10899511992E+03  0.89854055711E+02 0.  0.
          2    1    3    3  502    0  0.41643372268E+03 -0.79787172807E+00 -0.30814472493E+03  0.51804522340E+03  0.00000000000E+00 0. -1.
         -2    1    3    3    0  502  0.54193031610E+03 -0.98846852450E+02 -0.34425522207E+03  0.64959281529E+03  0.00000000000E+00 0.  1.
         15    1    5    5    0    0 -0.33502258191E+03  0.77550622887E+02  0.75672630221E+02  0.35211324058E+03  0.17770000000E+01 0. -1.
        -15    1    5    5    0    0 -0.67515431350E+03  0.32902275136E+02  0.91109963615E+02  0.68207044354E+03  0.17770000000E+01 0.  1.
          4    1    6    6  503    0  0.71763038476E+02  0.12131141927E+02 -0.15003197063E+02  0.74311467606E+02  0.00000000000E+00 0. -1.
         -4    1    6    6    0  503 -0.19950181853E+02 -0.22939315772E+02 -0.16695321910E+02  0.34683652312E+02  0.00000000000E+00 0.  1.
<mgrwt>
<rscale>  0 0.10451658E+04</rscale>
<asrwt>0</asrwt>
<pdfrwt beam="1">  1        2 0.21754867E+00 0.10451658E+04</pdfrwt>
<pdfrwt beam="2">  1       -2 0.13796161E+00 0.10451658E+04</pdfrwt>
<totfact> 0.52350522E+00</totfact>
</mgrwt>
</event>
<event>
12    1  0.8033771E-008  0.8404396E+03  0.7818608E-02  0.9503259E-01
         -2   -1    0    0    0  501 -0.00000000000E+00  0.00000000000E+00  0.57208177709E+03  0.57208177709E+03  0.00000000000E+00 0. -1.
          2   -1    0    0  501    0  0.00000000000E+00 -0.00000000000E+00 -0.19006134083E+04  0.19006134083E+04  0.00000000000E+00 0.  1.
         23    2    1    2    0    0 -0.80705756146E+03 -0.15969049936E+03 -0.11833231495E+04  0.14440810091E+04  0.90957801518E+02 0.  0.
    5000000    2    1    2    0    0  0.80705756146E+03  0.15969049936E+03 -0.14520848176E+03  0.10286141763E+04  0.60009887308E+03 0.  0.
         23    2    4    4    0    0  0.60803009719E+03  0.20985441386E+03  0.14185281676E+03  0.66482519126E+03  0.90171166096E+02 0.  0.
         23    2    4    4    0    0  0.19902746426E+03 -0.50163914496E+02 -0.28706129853E+03  0.36378898507E+03  0.88373563345E+02 0.  0.
          4    1    3    3  502    0 -0.31004699387E+03 -0.35081390543E+02 -0.38652345818E+03  0.49674966139E+03  0.00000000000E+00 0. -1.
         -4    1    3    3    0  502 -0.49701056759E+03 -0.12460910882E+03 -0.79679969130E+03  0.94733134771E+03  0.00000000000E+00 0.  1.
         15    1    5    5    0    0  0.11600138333E+03  0.11082464306E+02  0.43008685289E+01  0.11662245559E+03  0.17770000000E+01 0. -1.
        -15    1    5    5    0    0  0.49202871386E+03  0.19877194955E+03  0.13755194823E+03  0.54820273566E+03  0.17770000000E+01 0.  1.
          3    1    6    6  503    0  0.12844255314E+03 -0.52182919321E+02 -0.12362998683E+03  0.18575500038E+03  0.00000000000E+00 0. -1.
         -3    1    6    6    0  503  0.70584911128E+02  0.20190048254E+01 -0.16343131170E+03  0.17803398469E+03  0.00000000000E+00 0.  1.
<mgrwt>
<rscale>  0 0.84043958E+03</rscale>
<asrwt>0</asrwt>
<pdfrwt beam="1">  1        2 0.29240206E+00 0.84043958E+03</pdfrwt>
<pdfrwt beam="2">  1       -2 0.88012582E-01 0.84043958E+03</pdfrwt>
<totfact> 0.86102601E+00</totfact>
</mgrwt>
</event>
<event>
12    1  0.8033771E-008  0.1066732E+04  0.7818608E-02  0.9238237E-01
         -2   -1    0    0    0  501 -0.00000000000E+00  0.00000000000E+00  0.16487846302E+04  0.16487846302E+04  0.00000000000E+00 0.  1.
          2   -1    0    0  501    0  0.00000000000E+00 -0.00000000000E+00 -0.85962895960E+03  0.85962895960E+03  0.00000000000E+00 0. -1.
         23    2    1    2    0    0  0.55117286902E+03 -0.83055689872E+03  0.89156325258E+03  0.13404943913E+04  0.91781731262E+02 0.  0.
    5000000    2    1    2    0    0 -0.55117286902E+03  0.83055689872E+03 -0.10240758200E+03  0.11679191985E+04  0.59994303712E+03 0.  0.
         23    2    4    4    0    0 -0.65532149132E+03  0.73034375480E+03 -0.40643993753E+02  0.98585129509E+03  0.86038274274E+02 0.  0.
         23    2    4    4    0    0  0.10414862230E+03  0.10021314392E+03 -0.61763588246E+02  0.18206790339E+03  0.91893258038E+02 0.  0.
          2    1    3    3  502    0  0.41658393209E+03 -0.59834418036E+03  0.70022702876E+03  0.10108787378E+04  0.00000000000E+00 0. -1.
         -2    1    3    3    0  502  0.13458893694E+03 -0.23221271836E+03  0.19133622382E+03  0.32961565354E+03  0.00000000000E+00 0.  1.
         15    1    5    5    0    0 -0.32066067352E+03  0.42081558824E+03 -0.28306417453E+02  0.52982396873E+03  0.17770000000E+01 0. -1.
        -15    1    5    5    0    0 -0.33466081780E+03  0.30952816657E+03 -0.12337576300E+02  0.45602732636E+03  0.17770000000E+01 0.  1.
          1    1    6    6  503    0  0.48386939721E+02  0.76383927688E+02 -0.77865529298E+02  0.11932661479E+03  0.00000000000E+00 0. -1.
         -1    1    6    6    0  503  0.55761682577E+02  0.23829216230E+02  0.16101941052E+02  0.62741288604E+02  0.00000000000E+00 0.  1.
<mgrwt>
<rscale>  0 0.10667324E+04</rscale>
<asrwt>0</asrwt>
<pdfrwt beam="1">  1        2 0.13225061E+00 0.10667324E+04</pdfrwt>
<pdfrwt beam="2">  1       -2 0.25365917E+00 0.10667324E+04</pdfrwt>
<totfact> 0.18876994E+00</totfact>
</mgrwt>
</event>
<event>
12    1  0.8033771E-008  0.3443109E+03  0.7818608E-02  0.1064975E+00
         -1   -1    0    0    0  501 -0.00000000000E+00  0.00000000000E+00  0.20742018585E+03  0.20742018585E+03  0.00000000000E+00 0.  1.
          1   -1    0    0  501    0  0.00000000000E+00 -0.00000000000E+00 -0.13620025169E+04  0.13620025169E+04  0.00000000000E+00 0. -1.
         23    2    1    2    0    0 -0.24602194957E+03  0.59955369378E+01 -0.77419312662E+03  0.81747973688E+03  0.91298284605E+02 0.  0.
    5000000    2    1    2    0    0  0.24602194957E+03 -0.59955369378E+01 -0.38038920444E+03  0.75194296588E+03  0.60013292773E+03 0.  0.
         23    2    4    4    0    0 -0.72909144947E+00  0.12668001181E+03  0.10155531330E+03  0.18717612655E+03  0.93129285002E+02 0.  0.
         23    2    4    4    0    0  0.24675104102E+03 -0.13267554875E+03 -0.48194451774E+03  0.56476683932E+03  0.90565927018E+02 0.  0.
          1    1    3    3  502    0 -0.24959353060E+03 -0.51177993976E+01 -0.72025258426E+03  0.76229056633E+03  0.00000000000E+00 0.  1.
         -1    1    3    3    0  502  0.35715810315E+01  0.11113336335E+02 -0.53940542358E+02  0.55189170545E+02  0.00000000000E+00 0. -1.
         15    1    5    5    0    0 -0.79132096042E+01 -0.84560362754E+01  0.33903190761E+02  0.35870705436E+02  0.17770000000E+01 0.  1.
        -15    1    5    5    0    0  0.71841181548E+01  0.13513604809E+03  0.67652122539E+02  0.15130542112E+03  0.17770000000E+01 0. -1.
          4    1    6    6  503    0  0.67435336515E+02 -0.32715784893E+02 -0.21708414547E+03  0.22965925500E+03  0.00000000000E+00 0.  1.
         -4    1    6    6    0  503  0.17931570450E+03 -0.99959763856E+02 -0.26486037228E+03  0.33510758433E+03  0.00000000000E+00 0. -1.
<mgrwt>
<rscale>  0 0.34431089E+03</rscale>
<asrwt>0</asrwt>
<pdfrwt beam="1">  1        1 0.20953884E+00 0.34431089E+03</pdfrwt>
<pdfrwt beam="2">  1       -1 0.31910800E-01 0.34431089E+03</pdfrwt>
<totfact> 0.80927456E+01</totfact>
</mgrwt>
</event>
<event>
12    1  0.8033771E-008  0.4207408E+03  0.7818608E-02  0.1036825E+00
         -1   -1    0    0    0  501 -0.00000000000E+00  0.00000000000E+00  0.16297190053E+04  0.16297190053E+04  0.00000000000E+00 0.  1.
          1   -1    0    0  501    0  0.00000000000E+00 -0.00000000000E+00 -0.17959528567E+03  0.17959528567E+03  0.00000000000E+00 0. -1.
         23    2    1    2    0    0  0.17523933230E+03  0.13620147075E+03  0.53997812330E+01  0.22929676059E+03  0.57342676601E+02 0.  0.
    5000000    2    1    2    0    0 -0.17523933230E+03 -0.13620147075E+03  0.14447239384E+04  0.15800175304E+04  0.59997372768E+03 0.  0.
         23    2    4    4    0    0  0.85797399113E+02 -0.29339396944E+03  0.80759925379E+03  0.86822597261E+03  0.90324801671E+02 0.  0.
         23    2    4    4    0    0 -0.26103673141E+03  0.15719249869E+03  0.63712468461E+03  0.71179155776E+03  0.88711336255E+02 0.  0.
          2    1    3    3  502    0  0.90449801364E+02  0.10154830294E+03  0.16673198889E+02  0.13700810180E+03  0.00000000000E+00 0. -1.
         -2    1    3    3    0  502  0.84789530937E+02  0.34653167804E+02 -0.11273417656E+02  0.92288658789E+02  0.00000000000E+00 0.  1.
         15    1    5    5    0    0  0.30672103117E+02 -0.12602241119E+03  0.22672236967E+03  0.26120608085E+03  0.17770000000E+01 0. -1.
        -15    1    5    5    0    0  0.55125295996E+02 -0.16737155825E+03  0.58087688412E+03  0.60701989177E+03  0.17770000000E+01 0.  1.
          2    1    6    6  503    0 -0.80574704687E+02  0.73378925198E+02  0.31338363204E+03  0.33179217973E+03  0.00000000000E+00 0.  1.
         -2    1    6    6    0  503 -0.18046202673E+03  0.83813573494E+02  0.32374105257E+03  0.37999937804E+03  0.00000000000E+00 0. -1.
<mgrwt>
<rscale>  0 0.42074083E+03</rscale>
<asrwt>0</asrwt>
<pdfrwt beam="1">  1        1 0.27630045E-01 0.42074083E+03</pdfrwt>
<pdfrwt beam="2">  1       -1 0.25072599E+00 0.42074083E+03</pdfrwt>
<totfact> 0.12823443E+01</totfact>
</mgrwt>
</event>
<event>
12    1  0.8033771E-008  0.7703311E+03  0.7818608E-02  0.9603983E-01
         -2   -1    0    0    0  501 -0.00000000000E+00  0.00000000000E+00  0.89528571817E+03  0.89528571817E+03  0.00000000000E+00 0.  1.
          2   -1    0    0  501    0  0.00000000000E+00 -0.00000000000E+00 -0.75792330742E+03  0.75792330742E+03  0.00000000000E+00 0. -1.
         23    2    1    2    0    0 -0.69919042480E+03  0.14189238912E+01 -0.72561804472E+02  0.70828127168E+03  0.86763361358E+02 0.  0.
    5000000    2    1    2    0    0  0.69919042480E+03 -0.14189238912E+01  0.20992421522E+03  0.94492775391E+03  0.59995918235E+03 0.  0.
         23    2    4    4    0    0  0.70668897423E+03 -0.99400752542E+02  0.30463088355E+03  0.78073697164E+03  0.86373767755E+02 0.  0.
         23    2    4    4    0    0 -0.74985494356E+01  0.97981828650E+02 -0.94706668333E+02  0.16419078227E+03  0.91283037670E+02 0.  0.
          4    1    3    3  502    0 -0.30789216428E+03  0.43630195738E+02 -0.34541225956E+02  0.31288060837E+03  0.00000000000E+00 0. -1.
         -4    1    3    3    0  502 -0.39129826052E+03 -0.42211271846E+02 -0.38020578516E+02  0.39540066331E+03  0.00000000000E+00 0.  1.
         15    1    5    5    0    0  0.28978004628E+03 -0.43271819644E+01  0.14724447777E+03  0.32507736570E+03  0.17770000000E+01 0. -1.
        -15    1    5    5    0    0  0.41690892795E+03 -0.95073570577E+02  0.15738640578E+03  0.45565960594E+03  0.17770000000E+01 0.  1.
          1    1    6    6  503    0  0.28335450990E+02  0.60664252739E+02 -0.14123479552E+02  0.68428955990E+02  0.00000000000E+00 0. -1.
         -1    1    6    6    0  503 -0.35834000425E+02  0.37317575911E+02 -0.80583188781E+02  0.95761826280E+02  0.00000000000E+00 0.  1.
<mgrwt>
<rscale>  0 0.77033114E+03</rscale>
<asrwt>0</asrwt>
<pdfrwt beam="1">  1        2 0.11660359E+00 0.77033114E+03</pdfrwt>
<pdfrwt beam="2">  1       -2 0.13773627E+00 0.77033114E+03</pdfrwt>
<totfact> 0.14038163E+01</totfact>
</mgrwt>
</event>
<event>
12    1  0.8033771E-008  0.5500735E+03  0.7818608E-02  0.1001477E+00
         -1   -1    0    0    0  501 -0.00000000000E+00  0.00000000000E+00  0.19595490501E+03  0.19595490501E+03  0.00000000000E+00 0.  1.
          1   -1    0    0  501    0  0.00000000000E+00 -0.00000000000E+00 -0.20747621898E+04  0.20747621898E+04  0.00000000000E+00 0. -1.
         23    2    1    2    0    0 -0.17756733650E+03  0.45558436633E+03 -0.82288784093E+03  0.96164483782E+03  0.92353243109E+02 0.  0.
    5000000    2    1    2    0    0  0.17756733650E+03 -0.45558436633E+03 -0.10559194438E+04  0.13090722570E+04  0.59968077196E+03 0.  0.
         23    2    4    4    0    0 -0.77756905874E+02 -0.27604095279E+03 -0.12967372406E+03  0.32750384495E+03  0.90546947591E+02 0.  0.
         23    2    4    4    0    0  0.25532424238E+03 -0.17954341354E+03 -0.92624571978E+03  0.98156841202E+03  0.90106092897E+02 0.  0.
          4    1    3    3  502    0 -0.17313574480E+03  0.40729169210E+03 -0.78047092203E+03  0.89721645589E+03  0.00000000000E+00 0. -1.
         -4    1    3    3    0  502 -0.44315917071E+01  0.48292674228E+02 -0.42416918903E+02  0.64428381932E+02  0.00000000000E+00 0.  1.
         15    1    5    5    0    0 -0.68777583726E+02 -0.26382279569E+03 -0.14243178274E+03  0.30760818262E+03  0.17770000000E+01 0. -1.
        -15    1    5    5    0    0 -0.89793221480E+01 -0.12218157096E+02  0.12758058687E+02  0.19895662329E+02  0.17770000000E+01 0.  1.
          4    1    6    6  503    0  0.91596757514E+02 -0.11038833722E+03 -0.48826771161E+03  0.50890166946E+03  0.00000000000E+00 0. -1.
         -4    1    6    6    0  503  0.16372748486E+03 -0.69155076319E+02 -0.43797800817E+03  0.47266674256E+03  0.00000000000E+00 0.  1.
<mgrwt>
<rscale>  0 0.55007354E+03</rscale>
<asrwt>0</asrwt>
<pdfrwt beam="1">  1        1 0.31919418E+00 0.55007354E+03</pdfrwt>
<pdfrwt beam="2">  1       -1 0.30146909E-01 0.55007354E+03</pdfrwt>
<totfact> 0.28747940E+01</totfact>
</mgrwt>
</event>
<event>
12    1  0.8033771E-008  0.5239881E+03  0.7818608E-02  0.1007701E+00
         -2   -1    0    0    0  501 -0.00000000000E+00  0.00000000000E+00  0.45293945066E+03  0.45293945066E+03  0.00000000000E+00 0. -1.
          2   -1    0    0  501    0  0.00000000000E+00 -0.00000000000E+00 -0.73638322826E+03  0.73638322826E+03  0.00000000000E+00 0.  1.
         23    2    1    2    0    0 -0.39584146132E+03  0.12496651543E+03 -0.93869589317E+02  0.43551354992E+03  0.92484917039E+02 0.  0.
    5000000    2    1    2    0    0  0.39584146132E+03 -0.12496651543E+03 -0.18957418828E+03  0.75380912899E+03  0.59998561450E+03 0.  0.
         23    2    4    4    0    0  0.43932705572E+03  0.27426788261E+02 -0.29941324077E+03  0.54018295579E+03  0.91590645693E+02 0.  0.
         23    2    4    4    0    0 -0.43485594395E+02 -0.15239330369E+03  0.10983905249E+03  0.21362617320E+03  0.91960907424E+02 0.  0.
          4    1    3    3  502    0 -0.15794839853E+03  0.57900038235E+02 -0.84290145299E+02  0.18816200366E+03  0.00000000000E+00 0. -1.
         -4    1    3    3    0  502 -0.23789306279E+03  0.67066477197E+02 -0.95794440178E+01  0.24735154626E+03  0.00000000000E+00 0.  1.
         15    1    5    5    0    0  0.17229689419E+03 -0.33925320413E+02 -0.11602038827E+03  0.21047811130E+03  0.17770000000E+01 0.  1.
        -15    1    5    5    0    0  0.26703016153E+03  0.61352108674E+02 -0.18339285250E+03  0.32970484449E+03  0.17770000000E+01 0. -1.
          3    1    6    6  503    0 -0.21506525706E+02  0.65802191740E+01  0.99515311967E+01  0.24593960752E+02  0.00000000000E+00 0. -1.
         -3    1    6    6    0  503 -0.21979068689E+02 -0.15897352287E+03  0.99887521291E+02  0.18903221245E+03  0.00000000000E+00 0.  1.
<mgrwt>
<rscale>  0 0.52398806E+03</rscale>
<asrwt>0</asrwt>
<pdfrwt beam="1">  1        2 0.11328973E+00 0.52398806E+03</pdfrwt>
<pdfrwt beam="2">  1       -2 0.69682993E-01 0.52398806E+03</pdfrwt>
<totfact> 0.74374844E+01</totfact>
</mgrwt>
</event>
<event>
12    1  0.8033771E-008  0.9253729E+03  0.7818608E-02  0.9394408E-01
          1   -1    0    0  501    0  0.00000000000E+00  0.00000000000E+00  0.93216982103E+03  0.93216982103E+03  0.00000000000E+00 0. -1.
         -1   -1    0    0    0  501 -0.00000000000E+00 -0.00000000000E+00 -0.94930284312E+03  0.94930284312E+03  0.00000000000E+00 0.  1.
         23    2    1    2    0    0  0.83974634598E+03  0.17654214642E+02  0.54155811143E+02  0.84661064665E+03  0.91275069269E+02 0.  0.
    5000000    2    1    2    0    0 -0.83974634598E+03 -0.17654214642E+02 -0.71288833237E+02  0.10348620175E+04  0.60030967062E+03 0.  0.
         23    2    4    4    0    0 -0.11342946645E+03 -0.22751541658E+03 -0.59758564171E+01  0.27042769105E+03  0.92010415631E+02 0.  0.
         23    2    4    4    0    0 -0.72631687953E+03  0.20986120194E+03 -0.65312976820E+02  0.76443432645E+03  0.92282831281E+02 0.  0.
          3    1    3    3  502    0  0.35526735975E+03  0.18949866497E+02  0.66684410184E+02  0.36196796116E+03  0.00000000000E+00 0. -1.
         -3    1    3    3    0  502  0.48447898623E+03 -0.12956518558E+01 -0.12528599041E+02  0.48464268549E+03  0.00000000000E+00 0.  1.
         15    1    5    5    0    0 -0.22525123117E+02 -0.54653873691E+02  0.37903915419E+02  0.70244513052E+02  0.17770000000E+01 0.  1.
        -15    1    5    5    0    0 -0.90904343331E+02 -0.17286154289E+03 -0.43879771836E+02  0.20018317800E+03  0.17770000000E+01 0. -1.
          4    1    6    6  503    0 -0.45486336274E+03  0.13335964594E+03  0.39491225750E+01  0.47402644388E+03  0.00000000000E+00 0. -1.
         -4    1    6    6    0  503 -0.27145351679E+03  0.76501555999E+02 -0.69262099395E+02  0.29040788257E+03  0.00000000000E+00 0.  1.
<mgrwt>
<rscale>  0 0.92537288E+03</rscale>
<asrwt>0</asrwt>
<pdfrwt beam="1">  1        1 0.14341074E+00 0.92537288E+03</pdfrwt>
<pdfrwt beam="2">  1       -1 0.14604659E+00 0.92537288E+03</pdfrwt>
<totfact> 0.64912053E+00</totfact>
</mgrwt>
</event>
<event>
12    1  0.8033771E-008  0.5385122E+03  0.7818608E-02  0.1004188E+00
          2   -1    0    0  501    0  0.00000000000E+00  0.00000000000E+00  0.75755600269E+03  0.75755600269E+03  0.00000000000E+00 0.  1.
         -2   -1    0    0    0  501 -0.00000000000E+00 -0.00000000000E+00 -0.45121454711E+03  0.45121454711E+03  0.00000000000E+00 0. -1.
         23    2    1    2    0    0 -0.24975244100E+03 -0.34051293571E+03  0.16095239023E+03  0.46083104655E+03  0.90190023715E+02 0.  0.
    5000000    2    1    2    0    0  0.24975244100E+03  0.34051293571E+03  0.14538906534E+03  0.74793950325E+03  0.59995848109E+03 0.  0.
         23    2    4    4    0    0  0.10064807935E+03 -0.10720115254E+03  0.19948401079E+03  0.26414609934E+03  0.91417548942E+02 0.  0.
         23    2    4    4    0    0  0.14910436165E+03  0.44771408825E+03 -0.54094945441E+02  0.48379340391E+03  0.91922679835E+02 0.  0.
          4    1    3    3  502    0 -0.93915030368E+02 -0.61616190090E+02  0.42755948986E+02  0.12018593505E+03  0.00000000000E+00 0. -1.
         -4    1    3    3    0  502 -0.15583741063E+03 -0.27889674561E+03  0.11819644125E+03  0.34064511150E+03  0.00000000000E+00 0.  1.
         15    1    5    5    0    0  0.11532117348E+03 -0.10326373505E+03  0.16410087131E+03  0.22559837261E+03  0.17770000000E+01 0. -1.
        -15    1    5    5    0    0 -0.14673094133E+02 -0.39374174894E+01  0.35383139480E+02  0.38547726734E+02  0.17770000000E+01 0.  1.
          4    1    6    6  503    0  0.14758481350E+02  0.12042031232E+03 -0.46472584438E+02  0.12991753344E+03  0.00000000000E+00 0. -1.
         -4    1    6    6    0  503  0.13434588030E+03  0.32729377593E+03 -0.76223610026E+01  0.35387587047E+03  0.00000000000E+00 0.  1.
<mgrwt>
<rscale>  0 0.53851221E+03</rscale>
<asrwt>0</asrwt>
<pdfrwt beam="1">  1        2 0.11654708E+00 0.53851221E+03</pdfrwt>
<pdfrwt beam="2">  1       -2 0.69417623E-01 0.53851221E+03</pdfrwt>
<totfact> 0.72225214E+01</totfact>
</mgrwt>
</event>
<event>
12    1  0.8033771E-008  0.4424808E+03  0.7818608E-02  0.1029988E+00
         -1   -1    0    0    0  501 -0.00000000000E+00  0.00000000000E+00  0.14490563014E+03  0.14490563014E+03  0.00000000000E+00 0.  1.
          1   -1    0    0  501    0  0.00000000000E+00 -0.00000000000E+00 -0.24106670118E+04  0.24106670118E+04  0.00000000000E+00 0. -1.
         23    2    1    2    0    0 -0.45737620748E+02  0.42790883169E+03 -0.86671907200E+03  0.97376962938E+03  0.10875404891E+03 0.  0.
    5000000    2    1    2    0    0  0.45737620748E+02 -0.42790883169E+03 -0.13990423097E+04  0.15818030126E+04  0.59965280633E+03 0.  0.
         23    2    4    4    0    0  0.53331552636E+02 -0.31258457940E+03 -0.13947270713E+04  0.14331197198E+04  0.89527393582E+02 0.  0.
         23    2    4    4    0    0 -0.75939318880E+01 -0.11532425229E+03 -0.43152384072E+01  0.14868329276E+03  0.93438478666E+02 0.  0.
          2    1    3    3  502    0  0.21014288341E+02  0.12811228116E+03 -0.18447413017E+03  0.22557717437E+03  0.00000000000E+00 0. -1.
         -2    1    3    3    0  502 -0.66751909089E+02  0.29979655053E+03 -0.68224494183E+03  0.74819245501E+03  0.00000000000E+00 0.  1.
         15    1    5    5    0    0  0.54526299597E+02 -0.98736006615E+02 -0.57456530789E+03  0.58553425785E+03  0.17770000000E+01 0.  1.
        -15    1    5    5    0    0 -0.11947469606E+01 -0.21384857279E+03 -0.82016176341E+03  0.84758546200E+03  0.17770000000E+01 0. -1.
          1    1    6    6  503    0 -0.18411958856E+02 -0.10421217547E+03 -0.37322150262E+02  0.11221461868E+03  0.00000000000E+00 0. -1.
         -1    1    6    6    0  503  0.10818026968E+02 -0.11112076814E+02  0.33006911855E+02  0.36468674075E+02  0.00000000000E+00 0.  1.
<mgrwt>
<rscale>  0 0.44248082E+03</rscale>
<asrwt>0</asrwt>
<pdfrwt beam="1">  1        1 0.37087182E+00 0.44248082E+03</pdfrwt>
<pdfrwt beam="2">  1       -1 0.22293175E-01 0.44248082E+03</pdfrwt>
<totfact> 0.29335822E+01</totfact>
</mgrwt>
</event>
<event>
12    1  0.8033771E-008  0.6633498E+03  0.7818608E-02  0.9782047E-01
         -2   -1    0    0    0  501 -0.00000000000E+00  0.00000000000E+00  0.61685627107E+03  0.61685627107E+03  0.00000000000E+00 0. -1.
          2   -1    0    0  501    0  0.00000000000E+00 -0.00000000000E+00 -0.92479239912E+03  0.92479239912E+03  0.00000000000E+00 0.  1.
         23    2    1    2    0    0  0.40916842307E+03 -0.44477528330E+03 -0.32087440178E+03  0.68997033538E+03  0.88627483916E+02 0.  0.
    5000000    2    1    2    0    0 -0.40916842307E+03  0.44477528330E+03  0.12938273722E+02  0.85167833482E+03  0.59995394489E+03 0.  0.
         23    2    4    4    0    0 -0.36139037325E+03  0.50355464384E+03 -0.15567460741E+03  0.64528443074E+03  0.89370755541E+02 0.  0.
         23    2    4    4    0    0 -0.47778049826E+02 -0.58779360537E+02  0.16861288113E+03  0.20639390408E+03  0.91817126332E+02 0.  0.
          4    1    3    3  502    0  0.91307436425E+02 -0.15538038114E+03 -0.79561992792E+02  0.19700310020E+03  0.00000000000E+00 0.  1.
         -4    1    3    3    0  502  0.31786098665E+03 -0.28939490216E+03 -0.24131240898E+03  0.49296723518E+03  0.00000000000E+00 0. -1.
         15    1    5    5    0    0 -0.14629494077E+03  0.23179781274E+03 -0.26407873868E+02  0.27537786625E+03  0.17770000000E+01 0.  1.
        -15    1    5    5    0    0 -0.21509543248E+03  0.27175683110E+03 -0.12926673354E+03  0.36990656449E+03  0.17770000000E+01 0. -1.
          1    1    6    6  503    0 -0.56603028723E+02 -0.26584580236E+02  0.41698257785E+02  0.75162407288E+02  0.00000000000E+00 0. -1.
         -1    1    6    6    0  503  0.88249788975E+01 -0.32194780302E+02  0.12691462335E+03  0.13123149680E+03  0.00000000000E+00 0.  1.
<mgrwt>
<rscale>  0 0.66334983E+03</rscale>
<asrwt>0</asrwt>
<pdfrwt beam="1">  1        2 0.14227575E+00 0.66334983E+03</pdfrwt>
<pdfrwt beam="2">  1       -2 0.94900965E-01 0.66334983E+03</pdfrwt>
<totfact> 0.27007108E+01</totfact>
</mgrwt>
</event>
<event>
12    1  0.8033771E-008  0.4567047E+03  0.7818608E-02  0.1025741E+00
         -2   -1    0    0    0  501 -0.00000000000E+00  0.00000000000E+00  0.50045098353E+03  0.50045098353E+03  0.00000000000E+00 0.  1.
          2   -1    0    0  501    0  0.00000000000E+00 -0.00000000000E+00 -0.49226697889E+03  0.49226697889E+03  0.00000000000E+00 0. -1.
         23    2    1    2    0    0  0.56094403320E+02 -0.25978460072E+03  0.15434480864E+03  0.32040058940E+03  0.90551625466E+02 0.  0.
    5000000    2    1    2    0    0 -0.56094403320E+02  0.25978460072E+03 -0.14616080401E+03  0.67231737303E+03  0.60001087373E+03 0.  0.
         23    2    4    4    0    0  0.23500122158E+03  0.22023748293E+03 -0.19618653156E+01  0.33275365929E+03  0.83612354473E+02 0.  0.
         23    2    4    4    0    0 -0.29109562490E+03  0.39547117795E+02 -0.14419893869E+03  0.33956371374E+03  0.90606536216E+02 0.  0.
          4    1    3    3  502    0  0.52171255152E+01 -0.20262381472E+03  0.96593110064E+02  0.22453030442E+03  0.00000000000E+00 0.  1.
         -4    1    3    3    0  502  0.50877277804E+02 -0.57160786004E+02  0.57751698580E+02  0.95870284981E+02  0.00000000000E+00 0. -1.
         15    1    5    5    0    0  0.23084866015E+03  0.18454714213E+03  0.71596311066E+01  0.29564027062E+03  0.17770000000E+01 0.  1.
        -15    1    5    5    0    0  0.41525614302E+01  0.35690340795E+02 -0.91214964222E+01  0.37113388669E+02  0.17770000000E+01 0. -1.
          3    1    6    6  503    0 -0.18403158118E+03  0.60201594149E+02 -0.12023997752E+03  0.22792434491E+03  0.00000000000E+00 0. -1.
         -3    1    6    6    0  503 -0.10706404372E+03 -0.20654476354E+02 -0.23958961174E+02  0.11163936883E+03  0.00000000000E+00 0.  1.
<mgrwt>
<rscale>  0 0.45670469E+03</rscale>
<asrwt>0</asrwt>
<pdfrwt beam="1">  1        2 0.75733382E-01 0.45670469E+03</pdfrwt>
<pdfrwt beam="2">  1       -2 0.76992458E-01 0.45670469E+03</pdfrwt>
<totfact> 0.97389020E+01</totfact>
</mgrwt>
</event>
<event>
12    1  0.8033771E-008  0.1391273E+04  0.7818608E-02  0.8960160E-01
          1   -1    0    0  501    0  0.00000000000E+00  0.00000000000E+00  0.33345006378E+04  0.33345006378E+04  0.00000000000E+00 0. -1.
         -1   -1    0    0    0  501 -0.00000000000E+00 -0.00000000000E+00 -0.12116249649E+04  0.12116249649E+04  0.00000000000E+00 0.  1.
         23    2    1    2    0    0  0.12832631072E+04  0.38934622432E+03  0.26612375028E+04  0.29814501948E+04  0.92225446810E+02 0.  0.
    5000000    2    1    2    0    0 -0.12832631072E+04 -0.38934622432E+03 -0.53836182996E+03  0.15646754079E+04  0.60001748930E+03 0.  0.
         23    2    4    4    0    0 -0.11847045448E+04 -0.49821645732E+03 -0.52437302244E+03  0.13910168462E+04  0.90643824045E+02 0.  0.
         23    2    4    4    0    0 -0.98558562344E+02  0.10887023300E+03 -0.13988807520E+02  0.17365856170E+03  0.91624731757E+02 0.  0.
          2    1    3    3  502    0  0.68501764839E+03  0.22188375355E+03  0.13306774362E+04  0.15130049630E+04  0.00000000000E+00 0. -1.
         -2    1    3    3    0  502  0.59824545880E+03  0.16746247077E+03  0.13305600666E+04  0.14684452318E+04  0.00000000000E+00 0.  1.
         15    1    5    5    0    0 -0.75853588167E+03 -0.35637078810E+03 -0.31318691817E+03  0.89468766943E+03  0.17770000000E+01 0.  1.
        -15    1    5    5    0    0 -0.42616866318E+03 -0.14184566922E+03 -0.21118610427E+03  0.49632917677E+03  0.17770000000E+01 0. -1.
          3    1    6    6  503    0 -0.87837014188E+02  0.66141662146E+02 -0.46014279058E+02  0.11919469120E+03  0.00000000000E+00 0. -1.
         -3    1    6    6    0  503 -0.10721548156E+02  0.42728570856E+02  0.32025471538E+02  0.54463870497E+02  0.00000000000E+00 0.  1.
<mgrwt>
<rscale>  0 0.13912729E+04</rscale>
<asrwt>0</asrwt>
<pdfrwt beam="1">  1        1 0.51300009E+00 0.13912729E+04</pdfrwt>
<pdfrwt beam="2">  1       -1 0.18640384E+00 0.13912729E+04</pdfrwt>
<totfact> 0.60831862E-02</totfact>
</mgrwt>
</event>
<event>
12    1  0.8033771E-008  0.1857803E+04  0.7818608E-02  0.8676150E-01
          2   -1    0    0  501    0  0.00000000000E+00  0.00000000000E+00  0.27414662687E+04  0.27414662687E+04  0.00000000000E+00 0.  1.
         -2   -1    0    0    0  501 -0.00000000000E+00 -0.00000000000E+00 -0.13686137202E+04  0.13686137202E+04  0.00000000000E+00 0. -1.
         23    2    1    2    0    0 -0.66712326329E+03  0.17293245839E+04  0.28173000533E+03  0.18770620372E+04  0.91504813294E+02 0.  0.
    5000000    2    1    2    0    0  0.66712326329E+03 -0.17293245839E+04  0.10911225432E+04  0.22330179517E+04  0.60016981239E+03 0.  0.
         23    2    4    4    0    0  0.15238975579E+03 -0.53422363606E+03  0.64117266918E+03  0.85338184799E+03  0.92415668471E+02 0.  0.
         23    2    4    4    0    0  0.51473350750E+03 -0.11951009478E+04  0.44994987397E+03  0.13796361037E+04  0.87886463196E+02 0.  0.
          2    1    3    3  502    0 -0.15427285420E+03  0.49090082615E+03  0.10309632939E+03  0.52479766367E+03  0.00000000000E+00 0. -1.
         -2    1    3    3    0  502 -0.51285040909E+03  0.12384237577E+04  0.17863367594E+03  0.13522643735E+04  0.00000000000E+00 0.  1.
         15    1    5    5    0    0  0.51618795552E+02 -0.23984207804E+03  0.34859625840E+03  0.42627600396E+03  0.17770000000E+01 0. -1.
        -15    1    5    5    0    0  0.10077096024E+03 -0.29438155802E+03  0.29257641078E+03  0.42710584403E+03  0.17770000000E+01 0.  1.
          2    1    6    6  503    0  0.20085935465E+02 -0.16721153493E+02  0.69341598530E+01  0.27039311206E+02  0.00000000000E+00 0. -1.
         -2    1    6    6    0  503  0.49464757203E+03 -0.11783797943E+04  0.44301571412E+03  0.13525967925E+04  0.00000000000E+00 0.  1.
<mgrwt>
<rscale>  0 0.18578029E+04</rscale>
<asrwt>0</asrwt>
<pdfrwt beam="1">  1        2 0.42176404E+00 0.18578029E+04</pdfrwt>
<pdfrwt beam="2">  1       -2 0.21055596E+00 0.18578029E+04</pdfrwt>
<totfact> 0.25773918E-01</totfact>
</mgrwt>
</event>
<event>
12    1  0.8033771E-008  0.4580269E+03  0.7818608E-02  0.1025355E+00
          2   -1    0    0  501    0  0.00000000000E+00  0.00000000000E+00  0.98237642442E+03  0.98237642442E+03  0.00000000000E+00 0. -1.
         -2   -1    0    0    0  501 -0.00000000000E+00 -0.00000000000E+00 -0.33887642039E+03  0.33887642039E+03  0.00000000000E+00 0.  1.
         23    2    1    2    0    0  0.10896437187E+03  0.24753211532E+03  0.59689719814E+03  0.66152792768E+03  0.90485089946E+02 0.  0.
    5000000    2    1    2    0    0 -0.10896437187E+03 -0.24753211532E+03  0.46602805885E+02  0.65972491713E+03  0.59993313153E+03 0.  0.
         23    2    4    4    0    0  0.19953418323E+03 -0.24225366818E+03  0.81773532650E+02  0.33638857464E+03  0.89272798122E+02 0.  0.
         23    2    4    4    0    0 -0.30849855510E+03 -0.52784471320E+01 -0.35170726765E+02  0.32333634248E+03  0.90056592460E+02 0.  0.
          4    1    3    3  502    0  0.10665672908E+03  0.22631163807E+03  0.46610342446E+03  0.52900379741E+03  0.00000000000E+00 0.  1.
         -4    1    3    3    0  502  0.23076427916E+01  0.21220477249E+02  0.13079377368E+03  0.13252413027E+03  0.00000000000E+00 0. -1.
         15    1    5    5    0    0  0.69894990169E+02 -0.14612851301E+03  0.18565383096E+02  0.16305423375E+03  0.17770000000E+01 0. -1.
        -15    1    5    5    0    0  0.12963919306E+03 -0.96125155170E+02  0.63208149554E+02  0.17333434089E+03  0.17770000000E+01 0.  1.
          2    1    6    6  503    0 -0.18060024350E+03 -0.46970443318E+02 -0.13688185142E+02  0.18710969218E+03  0.00000000000E+00 0. -1.
         -2    1    6    6    0  503 -0.12789831160E+03  0.41691996186E+02 -0.21482541623E+02  0.13622665030E+03  0.00000000000E+00 0.  1.
<mgrwt>
<rscale>  0 0.45802685E+03</rscale>
<asrwt>0</asrwt>
<pdfrwt beam="1">  1        2 0.15113483E+00 0.45802685E+03</pdfrwt>
<pdfrwt beam="2">  1       -2 0.52134834E-01 0.45802685E+03</pdfrwt>
<totfact> 0.93575650E+01</totfact>
</mgrwt>
</event>
<event>
12    1  0.8033771E-008  0.5293523E+03  0.7818608E-02  0.1006389E+00
         -2   -1    0    0    0  501 -0.00000000000E+00  0.00000000000E+00  0.17640714563E+03  0.17640714563E+03  0.00000000000E+00 0.  1.
          2   -1    0    0  501    0  0.00000000000E+00 -0.00000000000E+00 -0.20330221563E+04  0.20330221563E+04  0.00000000000E+00 0. -1.
         23    2    1    2    0    0 -0.32953575513E+03 -0.29535326707E+03 -0.72596047509E+03  0.85509176244E+03  0.91301393831E+02 0.  0.
    5000000    2    1    2    0    0  0.32953575513E+03  0.29535326707E+03 -0.11306545356E+04  0.13543375395E+04  0.60001927117E+03 0.  0.
         23    2    4    4    0    0 -0.90095178616E+02  0.39018422000E+02 -0.19214653914E+02  0.13572227394E+03  0.91715616188E+02 0.  0.
         23    2    4    4    0    0  0.41963093375E+03  0.25633484507E+03 -0.11114398817E+04  0.12186152656E+04  0.89033036138E+02 0.  0.
          1    1    3    3  502    0 -0.16420601674E+03 -0.13459762816E+03 -0.26410421824E+03  0.33886748964E+03  0.00000000000E+00 0. -1.
         -1    1    3    3    0  502 -0.16532973839E+03 -0.16075563891E+03 -0.46185625685E+03  0.51622427280E+03  0.00000000000E+00 0.  1.
         15    1    5    5    0    0 -0.56738745996E+02 -0.14006885224E+02 -0.38672557797E+02  0.70101373642E+02  0.17770000000E+01 0. -1.
        -15    1    5    5    0    0 -0.33356432619E+02  0.53025307223E+02  0.19457903883E+02  0.65620900297E+02  0.17770000000E+01 0.  1.
          3    1    6    6  503    0  0.16454873443E+03  0.13158670706E+03 -0.56079660926E+03  0.59906943207E+03  0.00000000000E+00 0. -1.
         -3    1    6    6    0  503  0.25508219932E+03  0.12474813801E+03 -0.55064327244E+03  0.61954583352E+03  0.00000000000E+00 0.  1.
<mgrwt>
<rscale>  0 0.52935228E+03</rscale>
<asrwt>0</asrwt>
<pdfrwt beam="1">  1        2 0.31277264E+00 0.52935228E+03</pdfrwt>
<pdfrwt beam="2">  1       -2 0.27139561E-01 0.52935228E+03</pdfrwt>
<totfact> 0.83620082E+01</totfact>
</mgrwt>
</event>
<event>
12    1  0.8033771E-008  0.6607156E+03  0.7818608E-02  0.9786877E-01
         -2   -1    0    0    0  501 -0.00000000000E+00  0.00000000000E+00  0.26545082555E+03  0.26545082555E+03  0.00000000000E+00 0.  1.
          2   -1    0    0  501    0  0.00000000000E+00 -0.00000000000E+00 -0.17565678856E+04  0.17565678856E+04  0.00000000000E+00 0. -1.
         23    2    1    2    0    0 -0.42679988596E+03  0.33355871003E+03 -0.71139925017E+03  0.89886353503E+03  0.91908681744E+02 0.  0.
    5000000    2    1    2    0    0  0.42679988596E+03 -0.33355871003E+03 -0.77971780991E+03  0.11231551761E+04  0.60008177016E+03 0.  0.
         23    2    4    4    0    0  0.55157345312E+03 -0.20647055320E+03 -0.49250945250E+03  0.77351752745E+03  0.94342148313E+02 0.  0.
         23    2    4    4    0    0 -0.12477356716E+03 -0.12708815683E+03 -0.28720835741E+03  0.34963764868E+03  0.89654905818E+02 0.  0.
          3    1    3    3  502    0 -0.38892061498E+03  0.31021115781E+03 -0.60326949761E+03  0.78193624671E+03  0.00000000000E+00 0. -1.
         -3    1    3    3    0  502 -0.37879270986E+02  0.23347552226E+02 -0.10812975256E+03  0.11692728832E+03  0.00000000000E+00 0.  1.
         15    1    5    5    0    0  0.27649478339E+03 -0.10480578161E+03 -0.18613504021E+03  0.34940381799E+03  0.17770000000E+01 0. -1.
        -15    1    5    5    0    0  0.27507866973E+03 -0.10166477159E+03 -0.30637441228E+03  0.42411370946E+03  0.17770000000E+01 0.  1.
          3    1    6    6  503    0 -0.41739933739E+02 -0.90667272221E+02 -0.20151543257E+03  0.22488051468E+03  0.00000000000E+00 0. -1.
         -3    1    6    6    0  503 -0.83033633419E+02 -0.36420884610E+02 -0.85692924846E+02  0.12475713400E+03  0.00000000000E+00 0.  1.
<mgrwt>
<rscale>  0 0.66071557E+03</rscale>
<asrwt>0</asrwt>
<pdfrwt beam="1">  1        2 0.27024121E+00 0.66071557E+03</pdfrwt>
<pdfrwt beam="2">  1       -2 0.40838589E-01 0.66071557E+03</pdfrwt>
<totfact> 0.53674170E+01</totfact>
</mgrwt>
</event>
<event>
12    1  0.8033771E-008  0.5909988E+03  0.7818608E-02  0.9924259E-01
         -1   -1    0    0    0  501 -0.00000000000E+00  0.00000000000E+00  0.45833863183E+03  0.45833863183E+03  0.00000000000E+00 0.  1.
          1   -1    0    0  501    0  0.00000000000E+00 -0.00000000000E+00 -0.88098334950E+03  0.88098334950E+03  0.00000000000E+00 0. -1.
         23    2    1    2    0    0  0.28871589188E+03 -0.39342672425E+03 -0.19779463204E+03  0.53382524614E+03  0.87779401738E+02 0.  0.
    5000000    2    1    2    0    0 -0.28871589188E+03  0.39342672425E+03 -0.22485008563E+03  0.80549673519E+03  0.60010497067E+03 0.  0.
         23    2    4    4    0    0 -0.14485442363E+03  0.47278489280E+03 -0.31948584504E+03  0.59548844964E+03  0.89593133457E+02 0.  0.
         23    2    4    4    0    0 -0.14386146825E+03 -0.79358168555E+02  0.94635759410E+02  0.21000828556E+03  0.90297907395E+02 0.  0.
          1    1    3    3  502    0  0.15483158803E+03 -0.14378257989E+03 -0.65811100353E+02  0.22130827337E+03  0.00000000000E+00 0. -1.
         -1    1    3    3    0  502  0.13388430385E+03 -0.24964414436E+03 -0.13198353169E+03  0.31251697277E+03  0.00000000000E+00 0.  1.
         15    1    5    5    0    0 -0.86248443284E+02  0.16037993767E+03 -0.87908883547E+02  0.20221683390E+03  0.17770000000E+01 0. -1.
        -15    1    5    5    0    0 -0.58605980351E+02  0.31240495514E+03 -0.23157696149E+03  0.39327161574E+03  0.17770000000E+01 0.  1.
          2    1    6    6  503    0 -0.15680591976E+03 -0.71787410893E+02  0.87960142813E+02  0.19359368677E+03  0.00000000000E+00 0. -1.
         -2    1    6    6    0  503  0.12944451507E+02 -0.75707576619E+01  0.66756165967E+01  0.16414598787E+02  0.00000000000E+00 0.  1.
<mgrwt>
<rscale>  0 0.59099881E+03</rscale>
<asrwt>0</asrwt>
<pdfrwt beam="1">  1        1 0.13553590E+00 0.59099881E+03</pdfrwt>
<pdfrwt beam="2">  1       -1 0.70513636E-01 0.59099881E+03</pdfrwt>
<totfact> 0.40006789E+01</totfact>
</mgrwt>
</event>
<event>
12    1  0.8033771E-008  0.8299500E+03  0.7818608E-02  0.9517650E-01
         -2   -1    0    0    0  501 -0.00000000000E+00  0.00000000000E+00  0.12321079969E+04  0.12321079969E+04  0.00000000000E+00 0.  1.
          2   -1    0    0  501    0  0.00000000000E+00 -0.00000000000E+00 -0.71789162515E+03  0.71789162515E+03  0.00000000000E+00 0. -1.
         23    2    1    2    0    0  0.56206059902E+03 -0.59074744994E+03  0.13170091499E+02  0.82042948506E+03  0.89646093341E+02 0.  0.
    5000000    2    1    2    0    0 -0.56206059902E+03  0.59074744994E+03  0.50104628026E+03  0.11295701370E+04  0.59998887727E+03 0.  0.
         23    2    4    4    0    0 -0.13822726799E+03  0.10096754324E+03 -0.11966727459E+03  0.22810472408E+03  0.91707612178E+02 0.  0.
         23    2    4    4    0    0 -0.42383333103E+03  0.48977990670E+03  0.62071355485E+03  0.90146541292E+03  0.88518495325E+02 0.  0.
          3    1    3    3  502    0  0.32236861647E+03 -0.36501974492E+03  0.47957138960E+02  0.48934734723E+03  0.00000000000E+00 0. -1.
         -3    1    3    3    0  502  0.23969198255E+03 -0.22572770503E+03 -0.34787047461E+02  0.33108213783E+03  0.00000000000E+00 0.  1.
         15    1    5    5    0    0 -0.13825357221E+03  0.62569511287E+02 -0.75349725470E+02  0.16943946656E+03  0.17770000000E+01 0. -1.
        -15    1    5    5    0    0  0.26304214427E-01  0.38398031955E+02 -0.44317549124E+02  0.58665257515E+02  0.17770000000E+01 0.  1.
          4    1    6    6  503    0 -0.21873401019E+03  0.18713520468E+03  0.26066633743E+03  0.38834403756E+03  0.00000000000E+00 0. -1.
         -4    1    6    6    0  503 -0.20509932084E+03  0.30264470203E+03  0.36004721743E+03  0.51312137536E+03  0.00000000000E+00 0.  1.
<mgrwt>
<rscale>  0 0.82994999E+03</rscale>
<asrwt>0</asrwt>
<pdfrwt beam="1">  1        2 0.11044487E+00 0.82994999E+03</pdfrwt>
<pdfrwt beam="2">  1       -2 0.18955508E+00 0.82994999E+03</pdfrwt>
<totfact> 0.62546882E+00</totfact>
</mgrwt>
</event>
<event>
12    1  0.8033771E-008  0.4119700E+03  0.7818608E-02  0.1039712E+00
          2   -1    0    0  501    0  0.00000000000E+00  0.00000000000E+00  0.41742536483E+03  0.41742536483E+03  0.00000000000E+00 0.  1.
         -2   -1    0    0    0  501 -0.00000000000E+00 -0.00000000000E+00 -0.45283176914E+03  0.45283176914E+03  0.00000000000E+00 0. -1.
         23    2    1    2    0    0 -0.12616344165E+03 -0.15552932691E+03 -0.82734219036E+02  0.23608224162E+03  0.93719199039E+02 0.  0.
    5000000    2    1    2    0    0  0.12616344165E+03  0.15552932691E+03  0.47327814733E+02  0.63417489235E+03  0.59985938894E+03 0.  0.
         23    2    4    4    0    0 -0.22270552652E+03  0.11887686233E+03  0.18917646740E+02  0.26952801986E+03  0.92509546512E+02 0.  0.
         23    2    4    4    0    0  0.34886896817E+03  0.36652464579E+02  0.28410167994E+02  0.36464687249E+03  0.95431880725E+02 0.  0.
          1    1    3    3  502    0 -0.12758601975E+03 -0.14453413422E+03 -0.98744915179E+02  0.21660763298E+03  0.00000000000E+00 0. -1.
         -1    1    3    3    0  502  0.14225780930E+01 -0.10995192688E+02  0.16010696144E+02  0.19474608640E+02  0.00000000000E+00 0.  1.
         15    1    5    5    0    0 -0.18121671877E+03  0.49492164862E+02  0.17195895817E+02  0.18864736973E+03  0.17770000000E+01 0.  1.
        -15    1    5    5    0    0 -0.41488807745E+02  0.69384697465E+02  0.17217509223E+01  0.80880650132E+02  0.17770000000E+01 0. -1.
          1    1    6    6  503    0  0.53734116116E+02 -0.14503702859E+01  0.39737554656E+02  0.66847079658E+02  0.00000000000E+00 0. -1.
         -1    1    6    6    0  503  0.29513485205E+03  0.38102834865E+02 -0.11327386662E+02  0.29779979283E+03  0.00000000000E+00 0.  1.
<mgrwt>
<rscale>  0 0.41196999E+03</rscale>
<asrwt>0</asrwt>
<pdfrwt beam="1">  1        2 0.64219287E-01 0.41196999E+03</pdfrwt>
<pdfrwt beam="2">  1       -2 0.69666426E-01 0.41196999E+03</pdfrwt>
<totfact> 0.14643941E+02</totfact>
</mgrwt>
</event>
<event>
12    1  0.8033771E-008  0.1224588E+04  0.7818608E-02  0.9091603E-01
          2   -1    0    0  501    0  0.00000000000E+00  0.00000000000E+00  0.25312469431E+04  0.25312469431E+04  0.00000000000E+00 0. -1.
         -2   -1    0    0    0  501 -0.00000000000E+00 -0.00000000000E+00 -0.60789114505E+03  0.60789114505E+03  0.00000000000E+00 0.  1.
         23    2    1    2    0    0 -0.32596268022E+03  0.11149822169E+04  0.77967280335E+03  0.14020224491E+04  0.91324994962E+02 0.  0.
    5000000    2    1    2    0    0  0.32596268022E+03 -0.11149822169E+04  0.11436829947E+04  0.17371156390E+04  0.60010243966E+03 0.  0.
         23    2    4    4    0    0  0.47422051273E+03 -0.85818619765E+03  0.95543241290E+03  0.13723040629E+04  0.94861482577E+02 0.  0.
         23    2    4    4    0    0 -0.14825783251E+03 -0.25679601922E+03  0.18825058175E+03  0.36481157608E+03  0.98613508843E+02 0.  0.
          3    1    3    3  502    0 -0.11187306860E+03  0.50036337498E+03  0.38107160799E+03  0.63882287132E+03  0.00000000000E+00 0. -1.
         -3    1    3    3    0  502 -0.21408961163E+03  0.61461884189E+03  0.39860119536E+03  0.76319957780E+03  0.00000000000E+00 0.  1.
         15    1    5    5    0    0  0.52286746362E+02 -0.14606031926E+03  0.11889497107E+03  0.19546532322E+03  0.17770000000E+01 0. -1.
        -15    1    5    5    0    0  0.42193376637E+03 -0.71212587840E+03  0.83653744184E+03  0.11768387397E+04  0.17770000000E+01 0.  1.
          1    1    6    6  503    0 -0.63546207803E+02 -0.16981781274E+03  0.67219361099E+02  0.19337697008E+03  0.00000000000E+00 0. -1.
         -1    1    6    6    0  503 -0.84711624708E+02 -0.86978206477E+02  0.12103122065E+03  0.17143460600E+03  0.00000000000E+00 0.  1.
<mgrwt>
<rscale>  0 0.12245877E+04</rscale>
<asrwt>0</asrwt>
<pdfrwt beam="1">  1        2 0.38942260E+00 0.12245877E+04</pdfrwt>
<pdfrwt beam="2">  1       -2 0.93521716E-01 0.12245877E+04</pdfrwt>
<totfact> 0.31692071E+00</totfact>
</mgrwt>
</event>
<event>
12    1  0.8033771E-008  0.3544770E+03  0.7818608E-02  0.1060792E+00
          3   -1    0    0  501    0  0.00000000000E+00  0.00000000000E+00  0.30134533224E+03  0.30134533224E+03  0.00000000000E+00 0. -1.
         -3   -1    0    0    0  501 -0.00000000000E+00 -0.00000000000E+00 -0.85833599486E+03  0.85833599486E+03  0.00000000000E+00 0.  1.
         23    2    1    2    0    0 -0.26426452212E+03 -0.88929300643E+02 -0.37035411203E+03  0.47236402430E+03  0.90672184217E+02 0.  0.
    5000000    2    1    2    0    0  0.26426452212E+03  0.88929300643E+02 -0.18663655059E+03  0.68731730280E+03  0.59985641161E+03 0.  0.
         23    2    4    4    0    0 -0.45548602024E+02  0.53891033937E+02 -0.31749063193E+03  0.33736404637E+03  0.89639721856E+02 0.  0.
         23    2    4    4    0    0  0.30981312415E+03  0.35038266705E+02  0.13085408133E+03  0.34995325644E+03  0.90181145829E+02 0.  0.
          4    1    3    3  502    0 -0.13612304136E+03 -0.41810206075E+02 -0.11593412359E+03  0.18362542507E+03  0.00000000000E+00 0. -1.
         -4    1    3    3    0  502 -0.12814148076E+03 -0.47119094568E+02 -0.25441998844E+03  0.28873859923E+03  0.00000000000E+00 0.  1.
         15    1    5    5    0    0  0.27301416785E+02  0.12689601979E+02 -0.75365532863E+02  0.81175825401E+02  0.17770000000E+01 0. -1.
        -15    1    5    5    0    0 -0.72850018809E+02  0.41201431958E+02 -0.24212509906E+03  0.25618822097E+03  0.17770000000E+01 0.  1.
          3    1    6    6  503    0  0.17700612026E+03 -0.61279361800E+01  0.11221509914E+03  0.20966865929E+03  0.00000000000E+00 0. -1.
         -3    1    6    6    0  503  0.13280700388E+03  0.41166202885E+02  0.18638982193E+02  0.14028459715E+03  0.00000000000E+00 0.  1.
<mgrwt>
<rscale>  0 0.35447700E+03</rscale>
<asrwt>0</asrwt>
<pdfrwt beam="1">  1        3 0.46360820E-01 0.35447700E+03</pdfrwt>
<pdfrwt beam="2">  1       -3 0.13205169E+00 0.35447700E+03</pdfrwt>
<totfact> 0.53919850E+00</totfact>
</mgrwt>
</event>
<event>
12    1  0.8033771E-008  0.6450212E+03  0.7818608E-02  0.9816167E-01
          2   -1    0    0  501    0  0.00000000000E+00  0.00000000000E+00  0.16331596613E+04  0.16331596613E+04  0.00000000000E+00 0. -1.
         -2   -1    0    0    0  501 -0.00000000000E+00 -0.00000000000E+00 -0.27320829557E+03  0.27320829557E+03  0.00000000000E+00 0.  1.
         23    2    1    2    0    0 -0.47315910876E+03  0.23505641191E+03  0.52620956372E+03  0.75124240804E+03  0.91310413990E+02 0.  0.
    5000000    2    1    2    0    0  0.47315910876E+03 -0.23505641191E+03  0.83374180200E+03  0.11551255488E+04  0.60004881649E+03 0.  0.
         23    2    4    4    0    0 -0.50243116725E+02 -0.21908630609E+03  0.13696394055E+03  0.27867314924E+03  0.91522799356E+02 0.  0.
         23    2    4    4    0    0  0.52340222549E+03 -0.15970105820E+02  0.69677786145E+03  0.87645239958E+03  0.92002644573E+02 0.  0.
          1    1    3    3  502    0 -0.18092690318E+03  0.42712285846E+02  0.16873672446E+03  0.25105968581E+03  0.00000000000E+00 0. -1.
         -1    1    3    3    0  502 -0.29223220558E+03  0.19234412607E+03  0.35747283926E+03  0.50018272223E+03  0.00000000000E+00 0.  1.
         15    1    5    5    0    0 -0.22836645270E+02 -0.95697881637E+02  0.90161778193E+01  0.98813187928E+02  0.17770000000E+01 0. -1.
        -15    1    5    5    0    0 -0.27406471455E+02 -0.12338842446E+03  0.12794776273E+03  0.17985996131E+03  0.17770000000E+01 0.  1.
          1    1    6    6  503    0  0.31625366070E+03  0.28761355582E+02  0.37843011092E+03  0.49401714781E+03  0.00000000000E+00 0. -1.
         -1    1    6    6    0  503  0.20714856479E+03 -0.44731461402E+02  0.31834775053E+03  0.38243525177E+03  0.00000000000E+00 0.  1.
<mgrwt>
<rscale>  0 0.64502121E+03</rscale>
<asrwt>0</asrwt>
<pdfrwt beam="1">  1        2 0.25125533E+00 0.64502121E+03</pdfrwt>
<pdfrwt beam="2">  1       -2 0.42032047E-01 0.64502121E+03</pdfrwt>
<totfact> 0.59343665E+01</totfact>
</mgrwt>
</event>
<event>
12    1  0.8190454E-008  0.1127172E+04  0.7818608E-02  0.9179105E-01
         -1   -1    0    0    0  501 -0.00000000000E+00  0.00000000000E+00  0.16420852416E+04  0.16420852416E+04  0.00000000000E+00 0.  1.
          1   -1    0    0  501    0  0.00000000000E+00 -0.00000000000E+00 -0.10447098906E+04  0.10447098906E+04  0.00000000000E+00 0. -1.
         23    2    1    2    0    0 -0.47978393531E+03  0.97547304670E+03  0.89321080781E+03  0.14098261399E+04  0.89687837392E+02 0.  0.
    5000000    2    1    2    0    0  0.47978393531E+03 -0.97547304670E+03 -0.29583545683E+03  0.12769689923E+04  0.60115796626E+03 0.  0.
         23    2    4    4    0    0  0.12896619404E+03  0.26752314024E+00 -0.16948313177E+03  0.22830308620E+03  0.82252151599E+02 0.  0.
         23    2    4    4    0    0  0.35081774126E+03 -0.97574056984E+03 -0.12635232506E+03  0.10486659061E+04  0.92695875689E+02 0.  0.
          2    1    3    3  502    0 -0.23085898970E+03  0.41134578121E+03  0.43436038922E+03  0.64122552395E+03  0.00000000000E+00 0. -1.
         -2    1    3    3    0  502 -0.24892494561E+03  0.56412726549E+03  0.45885041859E+03  0.76860061596E+03  0.00000000000E+00 0.  1.
         15    1    5    5    0    0  0.87104012437E+02  0.81212472781E+00 -0.16444266936E+03  0.18609760279E+03  0.17770000000E+01 0.  1.
        -15    1    5    5    0    0  0.41862181605E+02 -0.54460158757E+00 -0.50404624023E+01  0.42205483409E+02  0.17770000000E+01 0. -1.
          4    1    6    6  503    0  0.10136636432E+03 -0.30328956168E+03  0.33828242563E+01  0.31979859528E+03  0.00000000000E+00 0. -1.
         -4    1    6    6    0  503  0.24945137694E+03 -0.67245100816E+03 -0.12973514932E+03  0.72886731083E+03  0.00000000000E+00 0.  1.
<mgrwt>
<rscale>  0 0.11271724E+04</rscale>
<asrwt>0</asrwt>
<pdfrwt beam="1">  1        1 0.16072460E+00 0.11271724E+04</pdfrwt>
<pdfrwt beam="2">  1       -1 0.25262850E+00 0.11271724E+04</pdfrwt>
<totfact> 0.92786433E-01</totfact>
</mgrwt>
</event>
<event>
12    1  0.8033771E-008  0.8654646E+03  0.7818608E-02  0.9469813E-01
          1   -1    0    0  501    0  0.00000000000E+00  0.00000000000E+00  0.32252848283E+04  0.32252848283E+04  0.00000000000E+00 0. -1.
         -1   -1    0    0    0  501 -0.00000000000E+00 -0.00000000000E+00 -0.42903476978E+03  0.42903476978E+03  0.00000000000E+00 0.  1.
         23    2    1    2    0    0 -0.12808834931E+03 -0.77927422626E+03  0.12429342059E+03  0.80424600437E+03  0.87680306848E+02 0.  0.
    5000000    2    1    2    0    0  0.12808834931E+03  0.77927422626E+03  0.26719566379E+04  0.28500735937E+04  0.59991021800E+03 0.  0.
         23    2    4    4    0    0 -0.90957918688E+02  0.69455796289E+03  0.16035972866E+04  0.17523598665E+04  0.92502634938E+02 0.  0.
         23    2    4    4    0    0  0.21904626800E+03  0.84716263368E+02  0.10683593514E+04  0.10977137272E+04  0.91791124013E+02 0.  0.
          3    1    3    3  502    0 -0.88439301080E+02 -0.61514145398E+03  0.63166197397E+02  0.62466830148E+03  0.00000000000E+00 0. -1.
         -3    1    3    3    0  502 -0.39649048230E+02 -0.16413277228E+03  0.61127223192E+02  0.17957770290E+03  0.00000000000E+00 0.  1.
         15    1    5    5    0    0 -0.69855846466E+02  0.35978719579E+03  0.93675689289E+03  0.10059042199E+04  0.17770000000E+01 0.  1.
        -15    1    5    5    0    0 -0.21102072222E+02  0.33477076710E+03  0.66684039367E+03  0.74645564658E+03  0.17770000000E+01 0. -1.
          1    1    6    6  503    0  0.17922947496E+03  0.50626928678E+02  0.65234049468E+03  0.67840578682E+03  0.00000000000E+00 0. -1.
         -1    1    6    6    0  503  0.39816793037E+02  0.34089334690E+02  0.41601885671E+03  0.41930794041E+03  0.00000000000E+00 0.  1.
<mgrwt>
<rscale>  0 0.86546462E+03</rscale>
<asrwt>0</asrwt>
<pdfrwt beam="1">  1        1 0.49619765E+00 0.86546462E+03</pdfrwt>
<pdfrwt beam="2">  1       -1 0.66005351E-01 0.86546462E+03</pdfrwt>
<totfact> 0.10015990E+00</totfact>
</mgrwt>
</event>
<event>
12    1  0.8033771E-008  0.7649008E+03  0.7818608E-02  0.9612259E-01
          1   -1    0    0  501    0  0.00000000000E+00  0.00000000000E+00  0.85587462148E+03  0.85587462148E+03  0.00000000000E+00 0. -1.
         -1   -1    0    0    0  501 -0.00000000000E+00 -0.00000000000E+00 -0.92269044587E+03  0.92269044587E+03  0.00000000000E+00 0.  1.
         23    2    1    2    0    0  0.65000514118E+03  0.19345090256E+03  0.36485440936E+03  0.77542201722E+03  0.90722816791E+02 0.  0.
    5000000    2    1    2    0    0 -0.65000514118E+03 -0.19345090256E+03 -0.43167023375E+03  0.10031430501E+04  0.60002237714E+03 0.  0.
         23    2    4    4    0    0 -0.63187695952E+03  0.13280429995E+02 -0.44079742026E+03  0.77581392316E+03  0.90222036473E+02 0.  0.
         23    2    4    4    0    0 -0.18128181666E+02 -0.20673133256E+03  0.91271865152E+01  0.22732912698E+03  0.92351240423E+02 0.  0.
          4    1    3    3  502    0  0.30143639917E+03  0.11820910289E+03  0.21469744222E+03  0.38850004691E+03  0.00000000000E+00 0. -1.
         -4    1    3    3    0  502  0.34856874201E+03  0.75241799667E+02  0.15015696714E+03  0.38692197030E+03  0.00000000000E+00 0.  1.
         15    1    5    5    0    0 -0.29787933270E+03  0.51152943829E+02 -0.21282966894E+03  0.36965977090E+03  0.17770000000E+01 0.  1.
        -15    1    5    5    0    0 -0.33399762682E+03 -0.37872513833E+02 -0.22796775132E+03  0.40615415226E+03  0.17770000000E+01 0. -1.
          3    1    6    6  503    0  0.82201463495E+01 -0.12248827433E+03 -0.36353783511E+02  0.12803337740E+03  0.00000000000E+00 0. -1.
         -3    1    6    6    0  503 -0.26348328016E+02 -0.84243058231E+02  0.45480970026E+02  0.99295749576E+02  0.00000000000E+00 0.  1.
<mgrwt>
<rscale>  0 0.76490077E+03</rscale>
<asrwt>0</asrwt>
<pdfrwt beam="1">  1        1 0.13167302E+00 0.76490077E+03</pdfrwt>
<pdfrwt beam="2">  1       -1 0.14195238E+00 0.76490077E+03</pdfrwt>
<totfact> 0.82469751E+00</totfact>
</mgrwt>
</event>
<event>
12    1  0.1106337E-007  0.7813087E+03  0.7818608E-02  0.9587473E-01
         -1   -1    0    0    0  501 -0.00000000000E+00  0.00000000000E+00  0.11561090390E+04  0.11561090390E+04  0.00000000000E+00 0.  1.
          1   -1    0    0  501    0  0.00000000000E+00 -0.00000000000E+00 -0.66089214940E+03  0.66089214940E+03  0.00000000000E+00 0. -1.
         23    2    1    2    0    0 -0.25055291815E+03 -0.72534846735E+03  0.26075127042E+03  0.81506231343E+03  0.86186924070E+02 0.  0.
    5000000    2    1    2    0    0  0.25055291815E+03  0.72534846735E+03  0.23446561917E+03  0.10019388750E+04  0.60000018225E+03 0.  0.
         23    2    4    4    0    0  0.13996216404E+03  0.23905399189E+03  0.37639767111E+03  0.47590351559E+03  0.89848377427E+02 0.  0.
         23    2    4    4    0    0  0.11059075410E+03  0.48629447545E+03 -0.14193205195E+03  0.52603535937E+03  0.88633290516E+02 0.  0.
          2    1    3    3  502    0 -0.18308989194E+03 -0.41192812942E+03  0.17110914345E+03  0.48216701599E+03  0.00000000000E+00 0. -1.
         -2    1    3    3    0  502 -0.67463026207E+02 -0.31342033793E+03  0.89642126962E+02  0.33289529744E+03  0.00000000000E+00 0.  1.
         15    1    5    5    0    0  0.51557250210E+02  0.24743126733E+02  0.99392574558E+02  0.11468397436E+03  0.17770000000E+01 0. -1.
        -15    1    5    5    0    0  0.88404913834E+02  0.21431086516E+03  0.27700509655E+03  0.36121954122E+03  0.17770000000E+01 0.  1.
          1    1    6    6  503    0  0.49480266503E+02  0.34084692017E+03 -0.64945921617E+02  0.35048950412E+03  0.00000000000E+00 0. -1.
         -1    1    6    6    0  503  0.61110487601E+02  0.14544755528E+03 -0.76986130328E+02  0.17554585525E+03  0.00000000000E+00 0.  1.
<mgrwt>
<rscale>  0 0.78130867E+03</rscale>
<asrwt>0</asrwt>
<pdfrwt beam="1">  1        1 0.10167572E+00 0.78130867E+03</pdfrwt>
<pdfrwt beam="2">  1       -1 0.17786293E+00 0.78130867E+03</pdfrwt>
<totfact> 0.65939319E+00</totfact>
</mgrwt>
</event>
<event>
12    1  0.8033771E-008  0.5277155E+03  0.7818608E-02  0.1006788E+00
         -1   -1    0    0    0  501 -0.00000000000E+00  0.00000000000E+00  0.21926060329E+03  0.21926060329E+03  0.00000000000E+00 0.  1.
          1   -1    0    0  501    0  0.00000000000E+00 -0.00000000000E+00 -0.13042562312E+04  0.13042562312E+04  0.00000000000E+00 0. -1.
         23    2    1    2    0    0  0.33394535997E+03  0.12885596236E+03 -0.41454107865E+03  0.55521897577E+03  0.91106765309E+02 0.  0.
    5000000    2    1    2    0    0 -0.33394535997E+03 -0.12885596236E+03 -0.67045454928E+03  0.96829785874E+03  0.59997339782E+03 0.  0.
         23    2    4    4    0    0 -0.25617837362E+02 -0.31250674867E+03 -0.27217888154E+03  0.42484417539E+03  0.89969373917E+02 0.  0.
         23    2    4    4    0    0 -0.30832752261E+03  0.18365078631E+03 -0.39827566774E+03  0.54345368335E+03  0.89022053005E+02 0.  0.
          1    1    3    3  502    0  0.30747874468E+03  0.94915014411E+02 -0.33337627939E+03  0.46334844561E+03  0.00000000000E+00 0. -1.
         -1    1    3    3    0  502  0.26466615289E+02  0.33940947952E+02 -0.81164799257E+02  0.91870530156E+02  0.00000000000E+00 0.  1.
         15    1    5    5    0    0 -0.35240060741E+02 -0.66311224797E+02 -0.96253291216E+02  0.12209379269E+03  0.17770000000E+01 0. -1.
        -15    1    5    5    0    0  0.96222233789E+01 -0.24619552388E+03 -0.17592559033E+03  0.30275038269E+03  0.17770000000E+01 0.  1.
          2    1    6    6  503    0 -0.18627049964E+03  0.60870126512E+02 -0.22765391115E+03  0.30038005027E+03  0.00000000000E+00 0. -1.
         -2    1    6    6    0  503 -0.12205702296E+03  0.12278065980E+03 -0.17062175659E+03  0.24307363308E+03  0.00000000000E+00 0.  1.
<mgrwt>
<rscale>  0 0.52771546E+03</rscale>
<asrwt>0</asrwt>
<pdfrwt beam="1">  1        1 0.20065480E+00 0.52771546E+03</pdfrwt>
<pdfrwt beam="2">  1       -1 0.33732401E-01 0.52771546E+03</pdfrwt>
<totfact> 0.78096074E+01</totfact>
</mgrwt>
</event>
<event>
12    1  0.8033771E-008  0.9757489E+03  0.7818608E-02  0.9335550E-01
         -1   -1    0    0    0  501 -0.00000000000E+00  0.00000000000E+00  0.18201352582E+04  0.18201352582E+04  0.00000000000E+00 0.  1.
          1   -1    0    0  501    0  0.00000000000E+00 -0.00000000000E+00 -0.62831842438E+03  0.62831842438E+03  0.00000000000E+00 0. -1.
         23    2    1    2    0    0  0.76613174444E+03 -0.49940191500E+03  0.13763185269E+03  0.92932205938E+03  0.91306301083E+02 0.  0.
    5000000    2    1    2    0    0 -0.76613174444E+03  0.49940191500E+03  0.10541849811E+04  0.15191316232E+04  0.60007898780E+03 0.  0.
         23    2    4    4    0    0 -0.35815572129E+03 -0.26600855180E+02  0.60949117675E+03  0.71321796914E+03  0.90649052850E+02 0.  0.
         23    2    4    4    0    0 -0.40797602316E+03  0.52600277018E+03  0.44469380435E+03  0.80591365403E+03  0.92848739460E+02 0.  0.
          3    1    3    3  502    0  0.34196823687E+03 -0.21420837842E+03  0.10604560686E+03  0.41722077507E+03  0.00000000000E+00 0. -1.
         -3    1    3    3    0  502  0.42416350757E+03 -0.28519353658E+03  0.31586245826E+02  0.51210128431E+03  0.00000000000E+00 0.  1.
         15    1    5    5    0    0 -0.33289525615E+02  0.24272146008E+02  0.77955903022E+02  0.88190759904E+02  0.17770000000E+01 0. -1.
        -15    1    5    5    0    0 -0.32486619567E+03 -0.50873001188E+02  0.53153527373E+03  0.62502720923E+03  0.17770000000E+01 0.  1.
          3    1    6    6  503    0 -0.19862594219E+03  0.28743218122E+03  0.28345056950E+03  0.44990415541E+03  0.00000000000E+00 0. -1.
         -3    1    6    6    0  503 -0.20935008097E+03  0.23857058897E+03  0.16124323484E+03  0.35600949862E+03  0.00000000000E+00 0.  1.
<mgrwt>
<rscale>  0 0.97574886E+03</rscale>
<asrwt>0</asrwt>
<pdfrwt beam="1">  1        1 0.96664374E-01 0.97574886E+03</pdfrwt>
<pdfrwt beam="2">  1       -1 0.28002081E+00 0.97574886E+03</pdfrwt>
<totfact> 0.14458783E+00</totfact>
</mgrwt>
</event>
<event>
12    1  0.8033771E-008  0.6436334E+03  0.7818608E-02  0.9818800E-01
         -1   -1    0    0    0  501 -0.00000000000E+00  0.00000000000E+00  0.62107202252E+03  0.62107202252E+03  0.00000000000E+00 0.  1.
          1   -1    0    0  501    0  0.00000000000E+00 -0.00000000000E+00 -0.70997430116E+03  0.70997430116E+03  0.00000000000E+00 0. -1.
         23    2    1    2    0    0 -0.24113699607E+03 -0.46431831065E+03 -0.57786844521E+02  0.53429976666E+03  0.91642658011E+02 0.  0.
    5000000    2    1    2    0    0  0.24113699607E+03  0.46431831065E+03 -0.31115434122E+02  0.79674655703E+03  0.60008196225E+03 0.  0.
         23    2    4    4    0    0  0.34176037800E+03  0.68941336236E+02  0.74882895376E+02  0.36619690116E+03  0.83304613204E+02 0.  0.
         23    2    4    4    0    0 -0.10062338194E+03  0.39537697442E+03 -0.10599832950E+03  0.43054965588E+03  0.87688901379E+02 0.  0.
          2    1    3    3  502    0 -0.11471460978E+03 -0.30565524882E+03 -0.14093376792E+02  0.32677698220E+03  0.00000000000E+00 0.  1.
         -2    1    3    3    0  502 -0.12642238629E+03 -0.15866306184E+03 -0.43693467728E+02  0.20752278446E+03  0.00000000000E+00 0. -1.
         15    1    5    5    0    0  0.12573699804E+03  0.37773836993E+02  0.67899038633E+02  0.14781776826E+03  0.17770000000E+01 0. -1.
        -15    1    5    5    0    0  0.21602337996E+03  0.31167499243E+02  0.69838567431E+01  0.21837913290E+03  0.17770000000E+01 0.  1.
          3    1    6    6  503    0 -0.88443824572E+02  0.36638092412E+03 -0.71067009415E+02  0.38354636160E+03  0.00000000000E+00 0. -1.
         -3    1    6    6    0  503 -0.12179557365E+02  0.28996050295E+02 -0.34931320083E+02  0.47003294279E+02  0.00000000000E+00 0.  1.
<mgrwt>
<rscale>  0 0.64363337E+03</rscale>
<asrwt>0</asrwt>
<pdfrwt beam="1">  1        1 0.10922682E+00 0.64363337E+03</pdfrwt>
<pdfrwt beam="2">  1       -1 0.95549542E-01 0.64363337E+03</pdfrwt>
<totfact> 0.29235385E+01</totfact>
</mgrwt>
</event>
<event>
12    1  0.8033771E-008  0.3842504E+03  0.7818608E-02  0.1049374E+00
         -1   -1    0    0    0  501 -0.00000000000E+00  0.00000000000E+00  0.16371774914E+04  0.16371774914E+04  0.00000000000E+00 0.  1.
          1   -1    0    0  501    0  0.00000000000E+00 -0.00000000000E+00 -0.11352182009E+03  0.11352182009E+03  0.00000000000E+00 0. -1.
         23    2    1    2    0    0 -0.32157672043E+02 -0.12272155518E+03  0.72688375931E+03  0.74494919826E+03  0.10244321577E+03 0.  0.
    5000000    2    1    2    0    0  0.32157672043E+02  0.12272155518E+03  0.79677191203E+03  0.10057501133E+04  0.60049405873E+03 0.  0.
         23    2    4    4    0    0 -0.26710048732E+03  0.92911315308E+02  0.33723999440E+03  0.44937110072E+03  0.90710470723E+02 0.  0.
         23    2    4    4    0    0  0.29925815936E+03  0.29810239875E+02  0.45953191763E+03  0.55637901256E+03  0.89128704394E+02 0.  0.
          4    1    3    3  502    0  0.23453211508E+02 -0.94899409327E+02  0.37037876394E+03  0.38306184853E+03  0.00000000000E+00 0. -1.
         -4    1    3    3    0  502 -0.55610883550E+02 -0.27822145856E+02  0.35650499537E+03  0.36188734973E+03  0.00000000000E+00 0.  1.
         15    1    5    5    0    0 -0.94139692031E+02 -0.82468075978E+01  0.13383292177E+03  0.16384352331E+03  0.17770000000E+01 0.  1.
        -15    1    5    5    0    0 -0.17296079529E+03  0.10115812291E+03  0.20340707263E+03  0.28552757741E+03  0.17770000000E+01 0. -1.
          3    1    6    6  503    0  0.16850825075E+03  0.61070644345E+02  0.26289071074E+03  0.31817633470E+03  0.00000000000E+00 0. -1.
         -3    1    6    6    0  503  0.13074990861E+03 -0.31260404470E+02  0.19664120689E+03  0.23820267785E+03  0.00000000000E+00 0.  1.
<mgrwt>
<rscale>  0 0.38425040E+03</rscale>
<asrwt>0</asrwt>
<pdfrwt beam="1">  1        1 0.17464897E-01 0.38425040E+03</pdfrwt>
<pdfrwt beam="2">  1       -1 0.25187344E+00 0.38425040E+03</pdfrwt>
<totfact> 0.23071510E+01</totfact>
</mgrwt>
</event>
<event>
12    1  0.8033771E-008  0.6383209E+03  0.7818608E-02  0.9828944E-01
         -2   -1    0    0    0  501 -0.00000000000E+00  0.00000000000E+00  0.88212940523E+03  0.88212940523E+03  0.00000000000E+00 0.  1.
          2   -1    0    0  501    0  0.00000000000E+00 -0.00000000000E+00 -0.10991666711E+04  0.10991666711E+04  0.00000000000E+00 0. -1.
         23    2    1    2    0    0  0.26404985737E+03 -0.43647454995E+03  0.63516323348E+03  0.82077147176E+03  0.10000557868E+03 0.  0.
    5000000    2    1    2    0    0 -0.26404985737E+03  0.43647454995E+03 -0.85220049937E+03  0.11605246046E+04  0.60028268910E+03 0.  0.
         23    2    4    4    0    0 -0.21402421000E+03 -0.79744213228E+02 -0.38021194452E+03  0.45341030524E+03  0.94097184512E+02 0.  0.
         23    2    4    4    0    0 -0.50025647374E+02  0.51621876317E+03 -0.47198855485E+03  0.70711429936E+03  0.90846351644E+02 0.  0.
          3    1    3    3  502    0  0.12032025494E+03 -0.25430306228E+03  0.28308885024E+03  0.39910688839E+03  0.00000000000E+00 0. -1.
         -3    1    3    3    0  502  0.14372960243E+03 -0.18217148767E+03  0.35207438324E+03  0.42166458337E+03  0.00000000000E+00 0.  1.
         15    1    5    5    0    0 -0.91742167239E+02 -0.67940064804E+02 -0.11992475861E+03  0.16558255678E+03  0.17770000000E+01 0. -1.
        -15    1    5    5    0    0 -0.12228204276E+03 -0.11804148423E+02 -0.26028718591E+03  0.28782774845E+03  0.17770000000E+01 0.  1.
          2    1    6    6  503    0 -0.74371463826E+02  0.43926444763E+03 -0.39074393632E+03  0.59259192819E+03  0.00000000000E+00 0.  1.
         -2    1    6    6    0  503  0.24345816452E+02  0.76954315547E+02 -0.81244618527E+02  0.11452237118E+03  0.00000000000E+00 0. -1.
<mgrwt>
<rscale>  0 0.63832088E+03</rscale>
<asrwt>0</asrwt>
<pdfrwt beam="1">  1        2 0.16910256E+00 0.63832088E+03</pdfrwt>
<pdfrwt beam="2">  1       -2 0.13571222E+00 0.63832088E+03</pdfrwt>
<totfact> 0.87837796E+00</totfact>
</mgrwt>
</event>
<event>
12    1  0.8033771E-008  0.7991134E+03  0.7818608E-02  0.9561301E-01
          1   -1    0    0  501    0  0.00000000000E+00  0.00000000000E+00  0.19330447909E+04  0.19330447909E+04  0.00000000000E+00 0. -1.
         -1   -1    0    0    0  501 -0.00000000000E+00 -0.00000000000E+00 -0.42051154084E+03  0.42051154084E+03  0.00000000000E+00 0.  1.
         23    2    1    2    0    0 -0.61159101441E+03 -0.50686208394E+03  0.56972288827E+03  0.98169266552E+03  0.90463136470E+02 0.  0.
    5000000    2    1    2    0    0  0.61159101441E+03  0.50686208394E+03  0.94281036175E+03  0.13718636662E+04  0.60180212638E+03 0.  0.
         23    2    4    4    0    0  0.40738489979E+03  0.30922436469E+03  0.93935449306E+03  0.10734580336E+04  0.91340691559E+02 0.  0.
         23    2    4    4    0    0  0.20420611462E+03  0.19763771925E+03  0.34558686896E+01  0.29840563260E+03  0.90956985553E+02 0.  0.
          3    1    3    3  502    0 -0.37665064998E+03 -0.26001411351E+03  0.35071771736E+03  0.57660729151E+03  0.00000000000E+00 0. -1.
         -3    1    3    3    0  502 -0.23494036443E+03 -0.24684797043E+03  0.21900517091E+03  0.40508537401E+03  0.00000000000E+00 0.  1.
         15    1    5    5    0    0  0.33416738409E+03  0.22495264854E+03  0.79223710934E+03  0.88877124718E+03  0.17770000000E+01 0. -1.
        -15    1    5    5    0    0  0.73217515709E+02  0.84271716159E+02  0.14711738372E+03  0.18468678641E+03  0.17770000000E+01 0.  1.
          2    1    6    6  503    0  0.77199637113E+02  0.58257909914E+02 -0.40387727548E+02  0.10480904815E+03  0.00000000000E+00 0. -1.
         -2    1    6    6    0  503  0.12700647750E+03  0.13937980933E+03  0.43843596238E+02  0.19359658444E+03  0.00000000000E+00 0.  1.
<mgrwt>
<rscale>  0 0.79911339E+03</rscale>
<asrwt>0</asrwt>
<pdfrwt beam="1">  1        1 0.29739150E+00 0.79911339E+03</pdfrwt>
<pdfrwt beam="2">  1       -1 0.64694084E-01 0.79911339E+03</pdfrwt>
<totfact> 0.83202352E+00</totfact>
</mgrwt>
</event>
<event>
12    1  0.8033771E-008  0.1226442E+04  0.7818608E-02  0.9090021E-01
          2   -1    0    0  501    0  0.00000000000E+00  0.00000000000E+00  0.25149718165E+04  0.25149718165E+04  0.00000000000E+00 0. -1.
         -2   -1    0    0    0  501 -0.00000000000E+00 -0.00000000000E+00 -0.78473012835E+03  0.78473012835E+03  0.00000000000E+00 0.  1.
         23    2    1    2    0    0  0.12139065142E+04  0.15363613924E+03  0.14656414288E+04  0.19115004869E+04  0.92499865058E+02 0.  0.
    5000000    2    1    2    0    0 -0.12139065142E+04 -0.15363613924E+03  0.26460025928E+03  0.13882014579E+04  0.59993074762E+03 0.  0.
         23    2    4    4    0    0 -0.96662662159E+03 -0.12578880528E+03  0.43631410852E+03  0.10720206372E+04  0.93104221858E+02 0.  0.
         23    2    4    4    0    0 -0.24727989262E+03 -0.27847333970E+02 -0.17171384924E+03  0.31618082072E+03  0.92530244044E+02 0.  0.
          1    1    3    3  502    0  0.39954078683E+03  0.47059512777E+02  0.55079280316E+03  0.68207048763E+03  0.00000000000E+00 0. -1.
         -1    1    3    3    0  502  0.81436572739E+03  0.10657662647E+03  0.91484862568E+03  0.12294299993E+04  0.00000000000E+00 0.  1.
         15    1    5    5    0    0 -0.50124916070E+03 -0.72532485283E+02  0.27686473722E+03  0.57720786807E+03  0.17770000000E+01 0. -1.
        -15    1    5    5    0    0 -0.46537746089E+03 -0.53256319992E+02  0.15944937131E+03  0.49481276910E+03  0.17770000000E+01 0.  1.
          1    1    6    6  503    0 -0.21247766349E+03 -0.42385749373E+02 -0.10787772484E+03  0.24203494117E+03  0.00000000000E+00 0. -1.
         -1    1    6    6    0  503 -0.34802229137E+02  0.14538415403E+02 -0.63836124399E+02  0.74145879546E+02  0.00000000000E+00 0.  1.
<mgrwt>
<rscale>  0 0.12264423E+04</rscale>
<asrwt>0</asrwt>
<pdfrwt beam="1">  1        2 0.38691874E+00 0.12264423E+04</pdfrwt>
<pdfrwt beam="2">  1       -2 0.12072771E+00 0.12264423E+04</pdfrwt>
<totfact> 0.17449941E+00</totfact>
</mgrwt>
</event>
<event>
12    1  0.8033771E-008  0.5363968E+03  0.7818608E-02  0.1004692E+00
          4   -1    0    0  501    0  0.00000000000E+00  0.00000000000E+00  0.42317291469E+03  0.42317291469E+03  0.00000000000E+00 0. -1.
         -4   -1    0    0    0  501 -0.00000000000E+00 -0.00000000000E+00 -0.12483624913E+04  0.12483624913E+04  0.00000000000E+00 0.  1.
         23    2    1    2    0    0 -0.46602019975E+03  0.51345871665E+02  0.82783622261E+02  0.48646934937E+03  0.99940355426E+02 0.  0.
    5000000    2    1    2    0    0  0.46602019975E+03 -0.51345871665E+02 -0.90797319889E+03  0.11850660566E+04  0.60012915575E+03 0.  0.
         23    2    4    4    0    0  0.14058552408E+03 -0.18730068305E+03 -0.54894566090E+02  0.25739976691E+03  0.91626367206E+02 0.  0.
         23    2    4    4    0    0  0.32543467568E+03  0.13595481138E+03 -0.85307863280E+03  0.92766628973E+03  0.91815861897E+02 0.  0.
          1    1    3    3  502    0 -0.17358214266E+03 -0.22874650668E+02  0.62041536890E+01  0.17519275503E+03  0.00000000000E+00 0. -1.
         -1    1    3    3    0  502 -0.29243805710E+03  0.74220522333E+02  0.76579468572E+02  0.31127659434E+03  0.00000000000E+00 0.  1.
         15    1    5    5    0    0  0.99288774742E+02 -0.99529042321E+02  0.95626089091E+01  0.14092158200E+03  0.17770000000E+01 0. -1.
        -15    1    5    5    0    0  0.41296749336E+02 -0.87771640725E+02 -0.64457174999E+02  0.11647818491E+03  0.17770000000E+01 0.  1.
          3    1    6    6  503    0  0.25876294849E+03  0.78593377926E+02 -0.56364658782E+03  0.62516610475E+03  0.00000000000E+00 0. -1.
         -3    1    6    6    0  503  0.66671727186E+02  0.57361433454E+02 -0.28943204498E+03  0.30250018498E+03  0.00000000000E+00 0.  1.
<mgrwt>
<rscale>  0 0.53639679E+03</rscale>
<asrwt>0</asrwt>
<pdfrwt beam="1">  1        4 0.65103526E-01 0.53639679E+03</pdfrwt>
<pdfrwt beam="2">  1       -4 0.19205577E+00 0.53639679E+03</pdfrwt>
<totfact> 0.64574080E-01</totfact>
</mgrwt>
</event>
<event>
12    1  0.8033771E-008  0.7543629E+03  0.7818608E-02  0.9628530E-01
         -1   -1    0    0    0  501 -0.00000000000E+00  0.00000000000E+00  0.30803364779E+03  0.30803364779E+03  0.00000000000E+00 0.  1.
          1   -1    0    0  501    0  0.00000000000E+00 -0.00000000000E+00 -0.20174419835E+04  0.20174419835E+04  0.00000000000E+00 0. -1.
         23    2    1    2    0    0  0.41540971589E+03  0.52603207222E+03 -0.76070764485E+03  0.10180681894E+04  0.92259114936E+02 0.  0.
    5000000    2    1    2    0    0 -0.41540971589E+03 -0.52603207222E+03 -0.94870069088E+03  0.13074074419E+04  0.60000520432E+03 0.  0.
         23    2    4    4    0    0 -0.44368831654E+02  0.82918282611E+02 -0.17865655008E+02  0.13186781579E+03  0.90696771710E+02 0.  0.
         23    2    4    4    0    0 -0.37104088424E+03 -0.60895035483E+03 -0.93083503587E+03  0.11755396261E+04  0.83352721256E+02 0.  0.
          2    1    3    3  502    0  0.18318734784E+03  0.21295777479E+03 -0.25350266435E+03  0.37838105011E+03  0.00000000000E+00 0.  1.
         -2    1    3    3    0  502  0.23222236806E+03  0.31307429743E+03 -0.50720498050E+03  0.63968713930E+03  0.00000000000E+00 0. -1.
         15    1    5    5    0    0  0.24232935216E+02  0.21280447268E+02 -0.22733271187E+02  0.39497492742E+02  0.17770000000E+01 0.  1.
        -15    1    5    5    0    0 -0.68601766870E+02  0.61637835343E+02  0.48676161792E+01  0.92370323046E+02  0.17770000000E+01 0. -1.
          3    1    6    6  503    0 -0.23112321774E+03 -0.40104517784E+03 -0.66467487159E+03  0.80996781502E+03  0.00000000000E+00 0.  1.
         -3    1    6    6    0  503 -0.13991766650E+03 -0.20790517699E+03 -0.26616016428E+03  0.36557181109E+03  0.00000000000E+00 0. -1.
<mgrwt>
<rscale>  0 0.75436293E+03</rscale>
<asrwt>0</asrwt>
<pdfrwt beam="1">  1        1 0.31037569E+00 0.75436293E+03</pdfrwt>
<pdfrwt beam="2">  1       -1 0.47389793E-01 0.75436293E+03</pdfrwt>
<totfact> 0.13445585E+01</totfact>
</mgrwt>
</event>
<event>
12    1  0.8033771E-008  0.7236342E+03  0.7818608E-02  0.9677647E-01
          1   -1    0    0  501    0  0.00000000000E+00  0.00000000000E+00  0.10913186687E+04  0.10913186687E+04  0.00000000000E+00 0. -1.
         -1   -1    0    0    0  501 -0.00000000000E+00 -0.00000000000E+00 -0.56155540653E+03  0.56155540653E+03  0.00000000000E+00 0.  1.
         23    2    1    2    0    0  0.56878625053E+03  0.30824427474E+03  0.38660355259E+03  0.75898647192E+03  0.89809943675E+02 0.  0.
    5000000    2    1    2    0    0 -0.56878625053E+03 -0.30824427474E+03  0.14315970962E+03  0.89388760334E+03  0.60000667766E+03 0.  0.
         23    2    4    4    0    0  0.78217415557E+02 -0.28550680939E+02 -0.81330111823E+02  0.14867417259E+03  0.92500362309E+02 0.  0.
         23    2    4    4    0    0 -0.64700366609E+03 -0.27969359380E+03  0.22448982144E+03  0.74521343075E+03  0.90028479347E+02 0.  0.
          4    1    3    3  502    0  0.35727811039E+03  0.20525841882E+03  0.29396011565E+03  0.50615335250E+03  0.00000000000E+00 0. -1.
         -4    1    3    3    0  502  0.21150814014E+03  0.10298585592E+03  0.92643436939E+02  0.25283311942E+03  0.00000000000E+00 0.  1.
         15    1    5    5    0    0  0.65806872137E+02 -0.35982330607E+02 -0.97833278426E+01  0.75658071407E+02  0.17770000000E+01 0.  1.
        -15    1    5    5    0    0  0.12410543420E+02  0.74316496686E+01 -0.71546783980E+02  0.73016101181E+02  0.17770000000E+01 0. -1.
          2    1    6    6  503    0 -0.56717351979E+03 -0.21128528097E+03  0.19773945201E+03  0.63673241035E+03  0.00000000000E+00 0. -1.
         -2    1    6    6    0  503 -0.79830146295E+02 -0.68408312836E+02  0.26750369433E+02  0.10848102040E+03  0.00000000000E+00 0.  1.
<mgrwt>
<rscale>  0 0.72363419E+03</rscale>
<asrwt>0</asrwt>
<pdfrwt beam="1">  1        1 0.16789518E+00 0.72363419E+03</pdfrwt>
<pdfrwt beam="2">  1       -1 0.86393140E-01 0.72363419E+03</pdfrwt>
<totfact> 0.17590507E+01</totfact>
</mgrwt>
</event>
<event>
12    1  0.8033771E-008  0.4760927E+03  0.7818608E-02  0.1020215E+00
          2   -1    0    0  501    0  0.00000000000E+00  0.00000000000E+00  0.43426756322E+04  0.43426756322E+04  0.00000000000E+00 0. -1.
         -2   -1    0    0    0  501 -0.00000000000E+00 -0.00000000000E+00 -0.80588975148E+02  0.80588975148E+02  0.00000000000E+00 0.  1.
         23    2    1    2    0    0 -0.36804228459E+03 -0.91317907745E+02  0.23821006320E+04  0.24137818575E+04  0.90251598617E+02 0.  0.
    5000000    2    1    2    0    0  0.36804228459E+03  0.91317907745E+02  0.18799860251E+04  0.20094827499E+04  0.59989947830E+03 0.  0.
         23    2    4    4    0    0  0.31229552143E+03 -0.11803994018E+03  0.49255574825E+03  0.60211141901E+03  0.92005845369E+02 0.  0.
         23    2    4    4    0    0  0.55746763166E+02  0.20935784793E+03  0.13874302768E+04  0.14073713309E+04  0.93770356872E+02 0.  0.
          4    1    3    3  502    0 -0.20388634485E+03 -0.24330191133E+02  0.10454229041E+04  0.10653969440E+04  0.00000000000E+00 0. -1.
         -4    1    3    3    0  502 -0.16415593974E+03 -0.66987716612E+02  0.13366777279E+04  0.13483849135E+04  0.00000000000E+00 0.  1.
         15    1    5    5    0    0  0.13035433160E+03 -0.51355042798E+02  0.28836256490E+03  0.32060211907E+03  0.17770000000E+01 0. -1.
        -15    1    5    5    0    0  0.18194118983E+03 -0.66684897384E+02  0.20419318335E+03  0.28150929994E+03  0.17770000000E+01 0.  1.
          1    1    6    6  503    0 -0.16023348839E+02  0.11988815896E+03  0.67002640323E+03  0.68085629864E+03  0.00000000000E+00 0. -1.
         -1    1    6    6    0  503  0.71770112005E+02  0.89469688965E+02  0.71740387360E+03  0.72651503224E+03  0.00000000000E+00 0.  1.
<mgrwt>
<rscale>  0 0.47609275E+03</rscale>
<asrwt>0</asrwt>
<pdfrwt beam="1">  1        2 0.66810376E+00 0.47609275E+03</pdfrwt>
<pdfrwt beam="2">  1       -2 0.12398307E-01 0.47609275E+03</pdfrwt>
<totfact> 0.10084326E+01</totfact>
</mgrwt>
</event>
<event>
12    1  0.8033771E-008  0.6447269E+03  0.7818608E-02  0.9816724E-01
         -2   -1    0    0    0  501 -0.00000000000E+00  0.00000000000E+00  0.48991575553E+03  0.48991575553E+03  0.00000000000E+00 0.  1.
          2   -1    0    0  501    0  0.00000000000E+00 -0.00000000000E+00 -0.11049481312E+04  0.11049481312E+04  0.00000000000E+00 0. -1.
         23    2    1    2    0    0  0.18420502953E+03 -0.50552628997E+03  0.53561100133E+02  0.54772130549E+03  0.87415755372E+02 0.  0.
    5000000    2    1    2    0    0 -0.18420502953E+03  0.50552628997E+03 -0.66859347583E+03  0.10471425813E+04  0.60000168901E+03 0.  0.
         23    2    4    4    0    0  0.45424498402E+02 -0.84422518706E+02 -0.26228386686E+02  0.14089996899E+03  0.99871548868E+02 0.  0.
         23    2    4    4    0    0 -0.22962952793E+03  0.58994880868E+03 -0.64236508915E+03  0.90624261228E+03  0.88732449484E+02 0.  0.
          1    1    3    3  502    0  0.92067421018E+02 -0.21916045100E+03 -0.18354796868E+02  0.23842108099E+03  0.00000000000E+00 0. -1.
         -1    1    3    3    0  502  0.92137608507E+02 -0.28636583898E+03  0.71915897002E+02  0.30930022450E+03  0.00000000000E+00 0.  1.
         15    1    5    5    0    0  0.63628789630E+02 -0.68880087143E+02 -0.50705945971E+02  0.10661772817E+03  0.17770000000E+01 0. -1.
        -15    1    5    5    0    0 -0.18204291227E+02 -0.15542431564E+02  0.24477559285E+02  0.34282240819E+02  0.17770000000E+01 0.  1.
          1    1    6    6  503    0 -0.30480197258E+02  0.86962584232E+02 -0.14239727504E+03  0.16961284568E+03  0.00000000000E+00 0. -1.
         -1    1    6    6    0  503 -0.19914933067E+03  0.50298622445E+03 -0.49996781410E+03  0.73662976659E+03  0.00000000000E+00 0.  1.
<mgrwt>
<rscale>  0 0.64472690E+03</rscale>
<asrwt>0</asrwt>
<pdfrwt beam="1">  1        2 0.16999202E+00 0.64472690E+03</pdfrwt>
<pdfrwt beam="2">  1       -2 0.75371655E-01 0.64472690E+03</pdfrwt>
<totfact> 0.35143953E+01</totfact>
</mgrwt>
</event>
<event>
12    1  0.8033771E-008  0.9410026E+03  0.7818608E-02  0.9375729E-01
          2   -1    0    0  501    0  0.00000000000E+00  0.00000000000E+00  0.15704208382E+04  0.15704208382E+04  0.00000000000E+00 0. -1.
         -2   -1    0    0    0  501 -0.00000000000E+00 -0.00000000000E+00 -0.74535854815E+03  0.74535854815E+03  0.00000000000E+00 0.  1.
         23    2    1    2    0    0 -0.74750603264E+03  0.54244688556E+03 -0.18702900890E+02  0.92820576214E+03  0.90566251405E+02 0.  0.
    5000000    2    1    2    0    0  0.74750603264E+03 -0.54244688556E+03  0.84376519090E+03  0.13875736242E+04  0.60033904804E+03 0.  0.
         23    2    4    4    0    0  0.99305551679E+02 -0.80130096628E+02 -0.69835539627E+02  0.17230315989E+03  0.92352321751E+02 0.  0.
         23    2    4    4    0    0  0.64820048096E+03 -0.46231678893E+03  0.91360073053E+03  0.12152704643E+04  0.91188429455E+02 0.  0.
          1    1    3    3  502    0 -0.15207457701E+03  0.13479327781E+03  0.27764342426E+02  0.20510183672E+03  0.00000000000E+00 0. -1.
         -1    1    3    3    0  502 -0.59543145563E+03  0.40765360774E+03 -0.46467243316E+02  0.72310392542E+03  0.00000000000E+00 0.  1.
         15    1    5    5    0    0 -0.16947139221E+02 -0.52192036806E+01 -0.10994480705E+01  0.17855310972E+02  0.17770000000E+01 0.  1.
        -15    1    5    5    0    0  0.11625269090E+03 -0.74910892948E+02 -0.68736091556E+02  0.15444784892E+03  0.17770000000E+01 0. -1.
          2    1    6    6  503    0  0.37068908319E+03 -0.31724308075E+03  0.53928824646E+03  0.72724506286E+03  0.00000000000E+00 0.  1.
         -2    1    6    6    0  503  0.27751139777E+03 -0.14507370818E+03  0.37431248407E+03  0.48802540141E+03  0.00000000000E+00 0. -1.
<mgrwt>
<rscale>  0 0.94100257E+03</rscale>
<asrwt>0</asrwt>
<pdfrwt beam="1">  1        2 0.24160321E+00 0.94100257E+03</pdfrwt>
<pdfrwt beam="2">  1       -2 0.11467055E+00 0.94100257E+03</pdfrwt>
<totfact> 0.68896103E+00</totfact>
</mgrwt>
</event>
<event>
12    1  0.8033771E-008  0.9573700E+03  0.7818608E-02  0.9356577E-01
         -1   -1    0    0    0  501 -0.00000000000E+00  0.00000000000E+00  0.56648603434E+03  0.56648603434E+03  0.00000000000E+00 0.  1.
          1   -1    0    0  501    0  0.00000000000E+00 -0.00000000000E+00 -0.21154164956E+04  0.21154164956E+04  0.00000000000E+00 0. -1.
         23    2    1    2    0    0 -0.32731599596E+03  0.80035837568E+03 -0.13576448153E+04  0.16121534056E+04  0.90165781039E+02 0.  0.
    5000000    2    1    2    0    0  0.32731599596E+03 -0.80035837568E+03 -0.19128564605E+03  0.10697491244E+04  0.60005308098E+03 0.  0.
         23    2    4    4    0    0 -0.92167485065E+02 -0.52832447090E+03 -0.13306310766E+03  0.55984407915E+03  0.89988946428E+02 0.  0.
         23    2    4    4    0    0  0.41948348102E+03 -0.27203390477E+03 -0.58222538391E+02  0.50990504523E+03  0.81513526324E+02 0.  0.
          1    1    3    3  502    0 -0.25991533488E+03  0.71059902801E+03 -0.12000324019E+04  0.14186559575E+04  0.00000000000E+00 0. -1.
         -1    1    3    3    0  502 -0.67400661083E+02  0.89759347671E+02 -0.15761241331E+03  0.19349744814E+03  0.00000000000E+00 0.  1.
         15    1    5    5    0    0 -0.96725692441E+02 -0.29596974590E+03 -0.78283055097E+02  0.32106906501E+03  0.17770000000E+01 0.  1.
        -15    1    5    5    0    0  0.45582073759E+01 -0.23235472501E+03 -0.54780052561E+02  0.23877501414E+03  0.17770000000E+01 0. -1.
          3    1    6    6  503    0  0.26763027259E+03 -0.19933057948E+03 -0.70598344456E+02  0.34109055830E+03  0.00000000000E+00 0. -1.
         -3    1    6    6    0  503  0.15185320843E+03 -0.72703325293E+02  0.12375806065E+02  0.16881448693E+03  0.00000000000E+00 0.  1.
<mgrwt>
<rscale>  0 0.95737002E+03</rscale>
<asrwt>0</asrwt>
<pdfrwt beam="1">  1        1 0.32544870E+00 0.95737002E+03</pdfrwt>
<pdfrwt beam="2">  1       -1 0.87151696E-01 0.95737002E+03</pdfrwt>
<totfact> 0.32862915E+00</totfact>
</mgrwt>
</event>
<event>
12    1  0.8033771E-008  0.1197221E+04  0.7818608E-02  0.9115292E-01
          2   -1    0    0  501    0  0.00000000000E+00  0.00000000000E+00  0.80705892098E+03  0.80705892098E+03  0.00000000000E+00 0. -1.
         -2   -1    0    0    0  501 -0.00000000000E+00 -0.00000000000E+00 -0.20312714648E+04  0.20312714648E+04  0.00000000000E+00 0.  1.
         23    2    1    2    0    0  0.81539905265E+02  0.11380897209E+04 -0.10198125007E+04  0.15330676738E+04  0.91553192057E+02 0.  0.
    5000000    2    1    2    0    0 -0.81539905265E+02 -0.11380897209E+04 -0.20440004312E+03  0.13052627120E+04  0.60002866660E+03 0.  0.
         23    2    4    4    0    0  0.20834294667E+03 -0.46881102036E+03  0.57268143373E+02  0.52499179154E+03  0.95635687359E+02 0.  0.
         23    2    4    4    0    0 -0.28988285194E+03 -0.66927870050E+03 -0.26166818649E+03  0.78027092042E+03  0.91577413442E+02 0.  0.
          1    1    3    3  502    0  0.91544592492E+02  0.68334016195E+03 -0.59530320716E+03  0.91088972868E+03  0.00000000000E+00 0. -1.
         -1    1    3    3    0  502 -0.10004687227E+02  0.45474955891E+03 -0.42450929350E+03  0.62217794510E+03  0.00000000000E+00 0.  1.
         15    1    5    5    0    0  0.16692048869E+03 -0.41391900171E+03  0.20012166646E+02  0.44676060039E+03  0.17770000000E+01 0. -1.
        -15    1    5    5    0    0  0.41422457987E+02 -0.54892018652E+02  0.37255976727E+02  0.78231191147E+02  0.17770000000E+01 0.  1.
          4    1    6    6  503    0 -0.17811352693E+03 -0.51193106124E+03 -0.19700309792E+03  0.57672182248E+03  0.00000000000E+00 0. -1.
         -4    1    6    6    0  503 -0.11176932501E+03 -0.15734763925E+03 -0.64665088571E+02  0.20354909794E+03  0.00000000000E+00 0.  1.
<mgrwt>
<rscale>  0 0.11972212E+04</rscale>
<asrwt>0</asrwt>
<pdfrwt beam="1">  1        2 0.12416291E+00 0.11972212E+04</pdfrwt>
<pdfrwt beam="2">  1       -2 0.31250330E+00 0.11972212E+04</pdfrwt>
<totfact> 0.89038889E-01</totfact>
</mgrwt>
</event>
<event>
12    1  0.8033771E-008  0.1065738E+04  0.7818608E-02  0.9239245E-01
          2   -1    0    0  501    0  0.00000000000E+00  0.00000000000E+00  0.11948354706E+04  0.11948354706E+04  0.00000000000E+00 0. -1.
         -2   -1    0    0    0  501 -0.00000000000E+00 -0.00000000000E+00 -0.17138931663E+04  0.17138931663E+04  0.00000000000E+00 0.  1.
         23    2    1    2    0    0  0.19141867137E+03 -0.98961425823E+03 -0.11862009011E+04  0.15592663558E+04  0.90892808964E+02 0.  0.
    5000000    2    1    2    0    0 -0.19141867137E+03  0.98961425823E+03  0.66714320535E+03  0.13494622810E+04  0.59999241969E+03 0.  0.
         23    2    4    4    0    0 -0.21501612760E+03  0.10032837195E+04  0.69959067146E+03  0.12453218497E+04  0.92678179261E+02 0.  0.
         23    2    4    4    0    0  0.23597456235E+02 -0.13669461266E+02 -0.32447466109E+02  0.10414043131E+03  0.95124640676E+02 0.  0.
          1    1    3    3  502    0  0.16432128763E+03 -0.63154681762E+03 -0.74454062650E+03  0.99004727812E+03  0.00000000000E+00 0. -1.
         -1    1    3    3    0  502  0.27097383736E+02 -0.35806744061E+03 -0.44166027456E+03  0.56921907765E+03  0.00000000000E+00 0.  1.
         15    1    5    5    0    0 -0.16900617212E+03  0.66874342374E+03  0.42607379148E+03  0.81075451681E+03  0.17770000000E+01 0.  1.
        -15    1    5    5    0    0 -0.46009955481E+02  0.33454029575E+03  0.27351687998E+03  0.43456733293E+03  0.17770000000E+01 0. -1.
          2    1    6    6  503    0 -0.62018267770E+01 -0.47131427419E+02  0.20647842129E+01  0.47582532927E+02  0.00000000000E+00 0.  1.
         -2    1    6    6    0  503  0.29799283012E+02  0.33461966153E+02 -0.34512250322E+02  0.56557898379E+02  0.00000000000E+00 0. -1.
<mgrwt>
<rscale>  0 0.10657377E+04</rscale>
<asrwt>0</asrwt>
<pdfrwt beam="1">  1        2 0.18382084E+00 0.10657377E+04</pdfrwt>
<pdfrwt beam="2">  1       -2 0.26367587E+00 0.10657377E+04</pdfrwt>
<totfact> 0.10002997E+00</totfact>
</mgrwt>
</event>
<event>
12    1  0.8033771E-008  0.6829803E+03  0.7818608E-02  0.9746789E-01
          2   -1    0    0  501    0  0.00000000000E+00  0.00000000000E+00  0.21959565256E+04  0.21959565256E+04  0.00000000000E+00 0. -1.
         -2   -1    0    0    0  501 -0.00000000000E+00 -0.00000000000E+00 -0.23999643100E+03  0.23999643100E+03  0.00000000000E+00 0.  1.
         23    2    1    2    0    0  0.55857753318E+03 -0.15298117507E+03  0.55231706720E+03  0.80327249736E+03  0.69140883659E+02 0.  0.
    5000000    2    1    2    0    0 -0.55857753318E+03  0.15298117507E+03  0.14036430274E+04  0.16326804592E+04  0.60001636066E+03 0.  0.
         23    2    4    4    0    0 -0.41591774834E+02 -0.16477522861E+03  0.17981640350E+03  0.26356366964E+03  0.90835660898E+02 0.  0.
         23    2    4    4    0    0 -0.51698575835E+03  0.31775640368E+03  0.12238266239E+04  0.13691167896E+04  0.92118248677E+02 0.  0.
          1    1    3    3  502    0  0.41381676114E+03 -0.14275001175E+03  0.42735200515E+03  0.61176107588E+03  0.00000000000E+00 0. -1.
         -1    1    3    3    0  502  0.14476077204E+03 -0.10231163328E+02  0.12496506205E+03  0.19151142148E+03  0.00000000000E+00 0.  1.
         15    1    5    5    0    0 -0.29652859494E+02 -0.11080798144E+03  0.17336881891E+03  0.20788844587E+03  0.17770000000E+01 0.  1.
        -15    1    5    5    0    0 -0.11938915340E+02 -0.53967247162E+02  0.64475845904E+01  0.55675223769E+02  0.17770000000E+01 0. -1.
          3    1    6    6  503    0 -0.25640530716E+03  0.10662078628E+03  0.52165207912E+03  0.59095902164E+03  0.00000000000E+00 0. -1.
         -3    1    6    6    0  503 -0.26058045119E+03  0.21113561740E+03  0.70217454475E+03  0.77815776792E+03  0.00000000000E+00 0.  1.
<mgrwt>
<rscale>  0 0.68298027E+03</rscale>
<asrwt>0</asrwt>
<pdfrwt beam="1">  1        2 0.33783945E+00 0.68298027E+03</pdfrwt>
<pdfrwt beam="2">  1       -2 0.36922529E-01 0.68298027E+03</pdfrwt>
<totfact> 0.37494016E+01</totfact>
</mgrwt>
</event>
<event>
12    1  0.8033771E-008  0.1755056E+04  0.7818608E-02  0.8730572E-01
          2   -1    0    0  501    0  0.00000000000E+00  0.00000000000E+00  0.38319020841E+04  0.38319020841E+04  0.00000000000E+00 0. -1.
         -2   -1    0    0    0  501 -0.00000000000E+00 -0.00000000000E+00 -0.87801424874E+03  0.87801424874E+03  0.00000000000E+00 0.  1.
         23    2    1    2    0    0  0.11834981525E+04 -0.12504184734E+04  0.83870078284E+03  0.19173068905E+04  0.91828500190E+02 0.  0.
    5000000    2    1    2    0    0 -0.11834981525E+04  0.12504184734E+04  0.21151870525E+04  0.27926094424E+04  0.60036405179E+03 0.  0.
         23    2    4    4    0    0 -0.90110082608E+03  0.63596974478E+03  0.10378127003E+04  0.15172777856E+04  0.92932571243E+02 0.  0.
         23    2    4    4    0    0 -0.28239732644E+03  0.61444872866E+03  0.10773743522E+04  0.12753316567E+04  0.91868654782E+02 0.  0.
          3    1    3    3  502    0  0.89121526230E+03 -0.99309027805E+03  0.66566297982E+03  0.14911740833E+04  0.00000000000E+00 0. -1.
         -3    1    3    3    0  502  0.29228289022E+03 -0.25732819539E+03  0.17303780302E+03  0.42613280715E+03  0.00000000000E+00 0.  1.
         15    1    5    5    0    0 -0.32628862519E+03  0.28377269219E+03  0.42198749899E+03  0.60420842000E+03  0.17770000000E+01 0. -1.
        -15    1    5    5    0    0 -0.57481220089E+03  0.35219705259E+03  0.61582520132E+03  0.91306936563E+03  0.17770000000E+01 0.  1.
          4    1    6    6  503    0 -0.52109650999E+02  0.18843623287E+03  0.36268091622E+03  0.41202072348E+03  0.00000000000E+00 0.  1.
         -4    1    6    6    0  503 -0.23028767544E+03  0.42601249578E+03  0.71469343599E+03  0.86331093325E+03  0.00000000000E+00 0. -1.
<mgrwt>
<rscale>  0 0.17550558E+04</rscale>
<asrwt>0</asrwt>
<pdfrwt beam="1">  1        2 0.58952339E+00 0.17550558E+04</pdfrwt>
<pdfrwt beam="2">  1       -2 0.13507912E+00 0.17550558E+04</pdfrwt>
<totfact> 0.17029377E-01</totfact>
</mgrwt>
</event>
<event>
12    1  0.8033771E-008  0.9811055E+03  0.7818608E-02  0.9329514E-01
         -2   -1    0    0    0  501 -0.00000000000E+00  0.00000000000E+00  0.38070137519E+03  0.38070137519E+03  0.00000000000E+00 0. -1.
          2   -1    0    0  501    0  0.00000000000E+00 -0.00000000000E+00 -0.27756953182E+04  0.27756953182E+04  0.00000000000E+00 0.  1.
         23    2    1    2    0    0 -0.78067780059E+03 -0.43866314032E+03 -0.15262778888E+04  0.17719551194E+04  0.91747328065E+02 0.  0.
    5000000    2    1    2    0    0  0.78067780059E+03  0.43866314032E+03 -0.86871605421E+03  0.13844415740E+04  0.60010641559E+03 0.  0.
         23    2    4    4    0    0  0.32760071508E+03  0.49925917831E+03 -0.40568293658E+03  0.72721721459E+03  0.87660005228E+02 0.  0.
         23    2    4    4    0    0  0.45307708551E+03 -0.60596037984E+02 -0.46303311763E+03  0.65722435943E+03  0.92700945946E+02 0.  0.
          4    1    3    3  502    0 -0.27190658174E+03 -0.20359109173E+03 -0.58350340388E+03  0.67517312162E+03  0.00000000000E+00 0.  1.
         -4    1    3    3    0  502 -0.50877121885E+03 -0.23507204859E+03 -0.94277448491E+03  0.10967819977E+04  0.00000000000E+00 0. -1.
         15    1    5    5    0    0  0.94559014677E+02  0.21312329397E+03 -0.18093083545E+03  0.29513059929E+03  0.17770000000E+01 0. -1.
        -15    1    5    5    0    0  0.23304170040E+03  0.28613588434E+03 -0.22475210114E+03  0.43208661531E+03  0.17770000000E+01 0.  1.
          3    1    6    6  503    0  0.35781512613E+03 -0.68417897590E+02 -0.31822141467E+03  0.48371225119E+03  0.00000000000E+00 0. -1.
         -3    1    6    6    0  503  0.95261959374E+02  0.78218596064E+01 -0.14481170296E+03  0.17351210824E+03  0.00000000000E+00 0.  1.
<mgrwt>
<rscale>  0 0.98110548E+03</rscale>
<asrwt>0</asrwt>
<pdfrwt beam="1">  1        2 0.42703006E+00 0.98110548E+03</pdfrwt>
<pdfrwt beam="2">  1       -2 0.58569441E-01 0.98110548E+03</pdfrwt>
<totfact> 0.66504024E+00</totfact>
</mgrwt>
</event>
<event>
12    1  0.8033771E-008  0.4609766E+03  0.7818608E-02  0.1024498E+00
          1   -1    0    0  501    0  0.00000000000E+00  0.00000000000E+00  0.11720366019E+04  0.11720366019E+04  0.00000000000E+00 0. -1.
         -1   -1    0    0    0  501 -0.00000000000E+00 -0.00000000000E+00 -0.21131598474E+03  0.21131598474E+03  0.00000000000E+00 0.  1.
         23    2    1    2    0    0  0.24234176638E+02  0.27560072563E+03  0.49460374872E+03  0.57453599179E+03  0.94422890914E+02 0.  0.
    5000000    2    1    2    0    0 -0.24234176638E+02 -0.27560072563E+03  0.46611686842E+03  0.80881659482E+03  0.60031349623E+03 0.  0.
         23    2    4    4    0    0  0.15803821269E+03  0.10855255037E+03  0.23640763945E+03  0.31716408273E+03  0.89133330041E+02 0.  0.
         23    2    4    4    0    0 -0.18227238932E+03 -0.38415327600E+03  0.22970922897E+03  0.49165251210E+03  0.90326626241E+02 0.  0.
          4    1    3    3  502    0  0.34870309307E+02  0.17827614055E+03  0.23458279472E+03  0.29669413264E+03  0.00000000000E+00 0. -1.
         -4    1    3    3    0  502 -0.10636132669E+02  0.97324585075E+02  0.26002095401E+03  0.27784185916E+03  0.00000000000E+00 0.  1.
         15    1    5    5    0    0  0.11793257290E+03  0.28285176174E+02  0.14541588741E+03  0.18935966038E+03  0.17770000000E+01 0. -1.
        -15    1    5    5    0    0  0.40105639789E+02  0.80267374193E+02  0.90991752041E+02  0.12780442235E+03  0.17770000000E+01 0.  1.
          3    1    6    6  503    0 -0.93728619169E+02 -0.27658513316E+03  0.18334009378E+03  0.34481586379E+03  0.00000000000E+00 0. -1.
         -3    1    6    6    0  503 -0.88543770154E+02 -0.10756814284E+03  0.46369135187E+02  0.14683664830E+03  0.00000000000E+00 0.  1.
<mgrwt>
<rscale>  0 0.46097662E+03</rscale>
<asrwt>0</asrwt>
<pdfrwt beam="1">  1        1 0.18031332E+00 0.46097662E+03</pdfrwt>
<pdfrwt beam="2">  1       -1 0.32510152E-01 0.46097662E+03</pdfrwt>
<totfact> 0.10431416E+02</totfact>
</mgrwt>
</event>
<event>
12    1  0.8033771E-008  0.4917238E+03  0.7818608E-02  0.1015962E+00
          1   -1    0    0  501    0  0.00000000000E+00  0.00000000000E+00  0.22495220700E+04  0.22495220700E+04  0.00000000000E+00 0. -1.
         -1   -1    0    0    0  501 -0.00000000000E+00 -0.00000000000E+00 -0.33339774614E+03  0.33339774614E+03  0.00000000000E+00 0.  1.
         23    2    1    2    0    0  0.10781011602E+03 -0.46176288703E+03  0.17296379272E+04  0.17958208044E+04  0.92070720997E+02 0.  0.
    5000000    2    1    2    0    0 -0.10781011602E+03  0.46176288703E+03  0.18648639668E+03  0.78709901168E+03  0.59991640508E+03 0.  0.
         23    2    4    4    0    0 -0.51470036760E+02  0.19267377202E+03  0.38005741309E+03  0.43848361788E+03  0.89732373220E+02 0.  0.
         23    2    4    4    0    0 -0.56340079262E+02  0.26908911501E+03 -0.19357101640E+03  0.34861539380E+03  0.92085818964E+02 0.  0.
          2    1    3    3  502    0  0.11437858783E+03 -0.30288362426E+03  0.11873941914E+04  0.12307420188E+04  0.00000000000E+00 0. -1.
         -2    1    3    3    0  502 -0.65684718050E+01 -0.15887926277E+03  0.54224373579E+03  0.56507878562E+03  0.00000000000E+00 0.  1.
         15    1    5    5    0    0 -0.35202664832E+02  0.20165127492E+02  0.11357074433E+03  0.12061231975E+03  0.17770000000E+01 0. -1.
        -15    1    5    5    0    0 -0.16267371927E+02  0.17250864453E+03  0.26648666875E+03  0.31787129814E+03  0.17770000000E+01 0.  1.
          4    1    6    6  503    0  0.41771690024E+01  0.17411121548E+03 -0.92043991254E+02  0.19698797025E+03  0.00000000000E+00 0. -1.
         -4    1    6    6    0  503 -0.60517248264E+02  0.94977899526E+02 -0.10152702515E+03  0.15162742355E+03  0.00000000000E+00 0.  1.
<mgrwt>
<rscale>  0 0.49172377E+03</rscale>
<asrwt>0</asrwt>
<pdfrwt beam="1">  1        1 0.34608031E+00 0.49172377E+03</pdfrwt>
<pdfrwt beam="2">  1       -1 0.51291962E-01 0.49172377E+03</pdfrwt>
<totfact> 0.85410908E+00</totfact>
</mgrwt>
</event>
<event>
12    1  0.8033771E-008  0.4935787E+03  0.7818608E-02  0.1015469E+00
          2   -1    0    0  501    0  0.00000000000E+00  0.00000000000E+00  0.11335362146E+04  0.11335362146E+04  0.00000000000E+00 0. -1.
         -2   -1    0    0    0  501 -0.00000000000E+00 -0.00000000000E+00 -0.22612918823E+03  0.22612918823E+03  0.00000000000E+00 0.  1.
         23    2    1    2    0    0  0.77441697532E+02 -0.30558276514E+03  0.37200954754E+03  0.49610780171E+03  0.91399149869E+02 0.  0.
    5000000    2    1    2    0    0 -0.77441697532E+02  0.30558276514E+03  0.53539747879E+03  0.86355760108E+03  0.59975263837E+03 0.  0.
         23    2    4    4    0    0 -0.25345216816E+03  0.37995263891E+03  0.38049881768E+03  0.60090263730E+03  0.87764570917E+02 0.  0.
         23    2    4    4    0    0  0.17601047062E+03 -0.74369873774E+02  0.15489866111E+03  0.26265496378E+03  0.92105759252E+02 0.  0.
          3    1    3    3  502    0 -0.12927319037E+02 -0.13052552657E+03  0.14426651116E+03  0.19497911403E+03  0.00000000000E+00 0. -1.
         -3    1    3    3    0  502  0.90369016569E+02 -0.17505723856E+03  0.22774303638E+03  0.30112868768E+03  0.00000000000E+00 0.  1.
         15    1    5    5    0    0 -0.20875467555E+03  0.24989479306E+03  0.24186899869E+03  0.40562259850E+03  0.17770000000E+01 0.  1.
        -15    1    5    5    0    0 -0.44697492611E+02  0.13005784585E+03  0.13862981898E+03  0.19528003880E+03  0.17770000000E+01 0. -1.
          4    1    6    6  503    0  0.75331716546E+02 -0.91810258654E+01  0.11196764543E+03  0.13526238345E+03  0.00000000000E+00 0. -1.
         -4    1    6    6    0  503  0.10067875408E+03 -0.65188847908E+02  0.42931015681E+02  0.12739258032E+03  0.00000000000E+00 0.  1.
<mgrwt>
<rscale>  0 0.49357870E+03</rscale>
<asrwt>0</asrwt>
<pdfrwt beam="1">  1        2 0.17439018E+00 0.49357870E+03</pdfrwt>
<pdfrwt beam="2">  1       -2 0.34789107E-01 0.49357870E+03</pdfrwt>
<totfact> 0.16642912E+02</totfact>
</mgrwt>
</event>
<event>
12    1  0.8033771E-008  0.9569895E+03  0.7818608E-02  0.9357018E-01
         -2   -1    0    0    0  501 -0.00000000000E+00  0.00000000000E+00  0.89913541613E+03  0.89913541613E+03  0.00000000000E+00 0.  1.
          2   -1    0    0  501    0  0.00000000000E+00 -0.00000000000E+00 -0.11154104363E+04  0.11154104363E+04  0.00000000000E+00 0. -1.
         23    2    1    2    0    0  0.33115048265E+03 -0.81236815693E+03 -0.33879716560E+03  0.94466523582E+03  0.89477504429E+02 0.  0.
    5000000    2    1    2    0    0 -0.33115048265E+03  0.81236815693E+03  0.12252214540E+03  0.10698806166E+04  0.60002516045E+03 0.  0.
         23    2    4    4    0    0  0.14312246928E+03  0.25933279344E+03  0.12725494702E+03  0.33539435545E+03  0.92509530117E+02 0.  0.
         23    2    4    4    0    0 -0.47427295193E+03  0.55303536348E+03 -0.47328016109E+01  0.73448626117E+03  0.93084489825E+02 0.  0.
          3    1    3    3  502    0  0.37946913895E+02 -0.98058439316E+02 -0.73210879661E+02  0.12812204610E+03  0.00000000000E+00 0. -1.
         -3    1    3    3    0  502  0.29320356876E+03 -0.71430971761E+03 -0.26558628594E+03  0.81654318973E+03  0.00000000000E+00 0.  1.
         15    1    5    5    0    0 -0.48491184654E+01  0.56589207289E+02  0.76086412295E+01  0.57331505142E+02  0.17770000000E+01 0.  1.
        -15    1    5    5    0    0  0.14797158774E+03  0.20274358616E+03  0.11964630579E+03  0.27806285031E+03  0.17770000000E+01 0. -1.
          4    1    6    6  503    0 -0.12596702692E+03  0.13269007999E+03  0.38182284017E+02  0.18690167472E+03  0.00000000000E+00 0.  1.
         -4    1    6    6    0  503 -0.34830592501E+03  0.42034528349E+03 -0.42915085627E+02  0.54758458646E+03  0.00000000000E+00 0. -1.
<mgrwt>
<rscale>  0 0.95698954E+03</rscale>
<asrwt>0</asrwt>
<pdfrwt beam="1">  1        2 0.17160161E+00 0.95698954E+03</pdfrwt>
<pdfrwt beam="2">  1       -2 0.13832853E+00 0.95698954E+03</pdfrwt>
<totfact> 0.78646800E+00</totfact>
</mgrwt>
</event>
<event>
12    1  0.8033771E-008  0.3010708E+03  0.7818608E-02  0.1084707E+00
          1   -1    0    0  501    0  0.00000000000E+00  0.00000000000E+00  0.28037920562E+04  0.28037920562E+04  0.00000000000E+00 0. -1.
         -1   -1    0    0    0  501 -0.00000000000E+00 -0.00000000000E+00 -0.54442098778E+02  0.54442098778E+02  0.00000000000E+00 0.  1.
         23    2    1    2    0    0  0.10038127409E+03 -0.51723412023E+02  0.29536851915E+03  0.32946378601E+03  0.92477633231E+02 0.  0.
    5000000    2    1    2    0    0 -0.10038127409E+03  0.51723412023E+02  0.24539814383E+04  0.25287703690E+04  0.59991913459E+03 0.  0.
         23    2    4    4    0    0 -0.25704470764E+03 -0.10236222607E+02  0.53214360213E+03  0.59731086800E+03  0.86178290542E+02 0.  0.
         23    2    4    4    0    0  0.15666343355E+03  0.61959634630E+02  0.19218378361E+04  0.19314595010E+04  0.93234691646E+02 0.  0.
          1    1    3    3  502    0  0.66833910539E+02 -0.76029301670E+02  0.17503786949E+03  0.20220158770E+03  0.00000000000E+00 0. -1.
         -1    1    3    3    0  502  0.33547363554E+02  0.24305889647E+02  0.12033064966E+03  0.12726219832E+03  0.00000000000E+00 0.  1.
         15    1    5    5    0    0 -0.25534723023E+03  0.53016359394E+01  0.49618489636E+03  0.55806175683E+03  0.17770000000E+01 0. -1.
        -15    1    5    5    0    0 -0.16974774069E+01 -0.15537858547E+02  0.35958705771E+02  0.39249111168E+02  0.17770000000E+01 0.  1.
          3    1    6    6  503    0  0.10216887789E+03  0.81250913846E+02  0.15017566831E+04  0.15074194259E+04  0.00000000000E+00 0. -1.
         -3    1    6    6    0  503  0.54494555657E+02 -0.19291279215E+02  0.42008115308E+03  0.42404007502E+03  0.00000000000E+00 0.  1.
<mgrwt>
<rscale>  0 0.30107078E+03</rscale>
<asrwt>0</asrwt>
<pdfrwt beam="1">  1        1 0.43135251E+00 0.30107078E+03</pdfrwt>
<pdfrwt beam="2">  1       -1 0.83757097E-02 0.30107078E+03</pdfrwt>
<totfact> 0.78740162E+01</totfact>
</mgrwt>
</event>
<event>
12    1  0.8033771E-008  0.9682518E+03  0.7818608E-02  0.9344068E-01
          2   -1    0    0  501    0  0.00000000000E+00  0.00000000000E+00  0.14057478247E+04  0.14057478247E+04  0.00000000000E+00 0. -1.
         -2   -1    0    0    0  501 -0.00000000000E+00 -0.00000000000E+00 -0.76631189844E+03  0.76631189844E+03  0.00000000000E+00 0.  1.
         23    2    1    2    0    0  0.34486081567E+02  0.90012437406E+03  0.60561204507E+03  0.10892955102E+04  0.91572817209E+02 0.  0.
    5000000    2    1    2    0    0 -0.34486081567E+02 -0.90012437406E+03  0.33823881151E+02  0.10827642129E+04  0.59985090410E+03 0.  0.
         23    2    4    4    0    0 -0.26525568052E+03 -0.48153626757E+03 -0.12308773185E+03  0.57143521815E+03  0.95654930725E+02 0.  0.
         23    2    4    4    0    0  0.23076959895E+03 -0.41858810649E+03  0.15691161300E+03  0.51132899473E+03  0.91462975335E+02 0.  0.
          4    1    3    3  502    0  0.17704472188E+02  0.56535257257E+03  0.32642256451E+03  0.65306100042E+03  0.00000000000E+00 0. -1.
         -4    1    3    3    0  502  0.16781609378E+02  0.33477180149E+03  0.27918948055E+03  0.43623450980E+03  0.00000000000E+00 0.  1.
         15    1    5    5    0    0 -0.67536987217E+02 -0.21338790885E+03 -0.32509528146E+02  0.22617619556E+03  0.17770000000E+01 0. -1.
        -15    1    5    5    0    0 -0.19771869330E+03 -0.26814835872E+03 -0.90578203705E+02  0.34525902259E+03  0.17770000000E+01 0.  1.
          2    1    6    6  503    0  0.28987659731E+02 -0.72382945982E+02 -0.72113245774E+01  0.78304396351E+02  0.00000000000E+00 0. -1.
         -2    1    6    6    0  503  0.20178193922E+03 -0.34620516051E+03  0.16412293758E+03  0.43302459838E+03  0.00000000000E+00 0.  1.
<mgrwt>
<rscale>  0 0.96825182E+03</rscale>
<asrwt>0</asrwt>
<pdfrwt beam="1">  1        2 0.21626890E+00 0.96825182E+03</pdfrwt>
<pdfrwt beam="2">  1       -2 0.11789414E+00 0.96825182E+03</pdfrwt>
<totfact> 0.79428599E+00</totfact>
</mgrwt>
</event>
<event>
12    1  0.8033771E-008  0.2620310E+03  0.7818608E-02  0.1105929E+00
         -1   -1    0    0    0  501 -0.00000000000E+00  0.00000000000E+00  0.11097113411E+03  0.11097113411E+03  0.00000000000E+00 0.  1.
          1   -1    0    0  501    0  0.00000000000E+00 -0.00000000000E+00 -0.21712790379E+04  0.21712790379E+04  0.00000000000E+00 0. -1.
         23    2    1    2    0    0 -0.10279099857E+03 -0.11630334852E+03 -0.12451945482E+04  0.12581095989E+04  0.90762556301E+02 0.  0.
    5000000    2    1    2    0    0  0.10279099857E+03  0.11630334852E+03 -0.81511335551E+03  0.10241405731E+04  0.60030131835E+03 0.  0.
         23    2    4    4    0    0 -0.97264986355E+02 -0.58573579004E+01 -0.75323394315E+03  0.76515148847E+03  0.92739640848E+02 0.  0.
         23    2    4    4    0    0  0.20005598493E+03  0.12216070642E+03 -0.61879412362E+02  0.25898908460E+03  0.91107897407E+02 0.  0.
          2    1    3    3  502    0 -0.99494797856E+02 -0.11999263783E+03 -0.12429343648E+04  0.12526704608E+04  0.00000000000E+00 0. -1.
         -2    1    3    3    0  502 -0.32962007166E+01  0.36892893099E+01 -0.22601833840E+01  0.54391381400E+01  0.00000000000E+00 0.  1.
         15    1    5    5    0    0 -0.80175721542E+02 -0.28301515420E+02 -0.32358070225E+03  0.33456950055E+03  0.17770000000E+01 0. -1.
        -15    1    5    5    0    0 -0.17089264813E+02  0.22444157520E+02 -0.42965324090E+03  0.43058198792E+03  0.17770000000E+01 0.  1.
          1    1    6    6  503    0  0.13795907018E+03  0.12717201379E+03 -0.58741684657E+02  0.19661132127E+03  0.00000000000E+00 0. -1.
         -1    1    6    6    0  503  0.62096914751E+02 -0.50113073681E+01 -0.31377277045E+01  0.62377763332E+02  0.00000000000E+00 0.  1.
<mgrwt>
<rscale>  0 0.26203096E+03</rscale>
<asrwt>0</asrwt>
<pdfrwt beam="1">  1        1 0.33404290E+00 0.26203096E+03</pdfrwt>
<pdfrwt beam="2">  1       -1 0.17072484E-01 0.26203096E+03</pdfrwt>
<totfact> 0.68734055E+01</totfact>
</mgrwt>
</event>
<event>
12    1  0.8829332E-008  0.1291956E+04  0.7818608E-02  0.9035968E-01
         -2   -1    0    0    0  501 -0.00000000000E+00  0.00000000000E+00  0.13450220427E+04  0.13450220427E+04  0.00000000000E+00 0.  1.
          2   -1    0    0  501    0  0.00000000000E+00 -0.00000000000E+00 -0.23626964650E+04  0.23626964650E+04  0.00000000000E+00 0. -1.
         23    2    1    2    0    0  0.54240420877E+03 -0.11136093078E+04  0.76267982446E+03  0.14574172402E+04  0.89757904530E+02 0.  0.
    5000000    2    1    2    0    0 -0.54240420877E+03  0.11136093078E+04 -0.17803542468E+04  0.22503012675E+04  0.59988876856E+03 0.  0.
         23    2    4    4    0    0 -0.59883798153E+03  0.73760005363E+03 -0.14655230073E+04  0.17489164094E+04  0.91050288189E+02 0.  0.
         23    2    4    4    0    0  0.56433772760E+02  0.37600925417E+03 -0.31483123945E+03  0.50138485811E+03  0.87751562294E+02 0.  0.
          2    1    3    3  502    0  0.20225602648E+03 -0.48593000612E+03  0.36111866328E+03  0.63831196140E+03  0.00000000000E+00 0. -1.
         -2    1    3    3    0  502  0.34014818229E+03 -0.62767930168E+03  0.40156116118E+03  0.81910527885E+03  0.00000000000E+00 0.  1.
         15    1    5    5    0    0 -0.27362047280E+03  0.40306380643E+03 -0.71498974866E+03  0.86518327168E+03  0.17770000000E+01 0.  1.
        -15    1    5    5    0    0 -0.32521750873E+03  0.33453624720E+03 -0.75053325865E+03  0.88373313775E+03  0.17770000000E+01 0. -1.
          4    1    6    6  503    0 -0.18007397234E+02  0.16849872186E+03 -0.12714028143E+03  0.21185074176E+03  0.00000000000E+00 0. -1.
         -4    1    6    6    0  503  0.74441169994E+02  0.20751053231E+03 -0.18769095802E+03  0.28953411636E+03  0.00000000000E+00 0.  1.
<mgrwt>
<rscale>  0 0.12919561E+04</rscale>
<asrwt>0</asrwt>
<pdfrwt beam="1">  1        2 0.36349176E+00 0.12919561E+04</pdfrwt>
<pdfrwt beam="2">  1       -2 0.20692647E+00 0.12919561E+04</pdfrwt>
<totfact> 0.48167896E-01</totfact>
</mgrwt>
</event>
<event>
12    1  0.8033771E-008  0.1947015E+04  0.7818608E-02  0.8631802E-01
         -2   -1    0    0    0  501 -0.00000000000E+00  0.00000000000E+00  0.17411715080E+04  0.17411715080E+04  0.00000000000E+00 0.  1.
          2   -1    0    0  501    0  0.00000000000E+00 -0.00000000000E+00 -0.22047200197E+04  0.22047200197E+04  0.00000000000E+00 0. -1.
         23    2    1    2    0    0  0.17833937457E+04 -0.66006823918E+03 -0.42882960678E+03  0.19515385162E+04  0.91784617546E+02 0.  0.
    5000000    2    1    2    0    0 -0.17833937457E+04  0.66006823918E+03 -0.34718904894E+02  0.19943530115E+04  0.60004599801E+03 0.  0.
         23    2    4    4    0    0 -0.10779765563E+04  0.94384097328E+02 -0.24169129774E+02  0.10853986973E+04  0.81020809095E+02 0.  0.
         23    2    4    4    0    0 -0.70541718934E+03  0.56568414186E+03 -0.10549775120E+02  0.90895431419E+03  0.92058069515E+02 0.  0.
          1    1    3    3  502    0  0.11743938901E+04 -0.38798916575E+03 -0.27950605656E+03  0.12680142892E+04  0.00000000000E+00 0. -1.
         -1    1    3    3    0  502  0.60899985558E+03 -0.27207907344E+03 -0.14932355022E+03  0.68352422704E+03  0.00000000000E+00 0.  1.
         15    1    5    5    0    0 -0.52923200637E+03  0.23630081076E+02  0.21732905376E+02  0.53020785943E+03  0.17770000000E+01 0.  1.
        -15    1    5    5    0    0 -0.54874454998E+03  0.70754016251E+02 -0.45902035150E+02  0.55519083792E+03  0.17770000000E+01 0. -1.
          1    1    6    6  503    0 -0.18041370481E+03  0.10548530348E+03  0.21355687405E+02  0.21007693714E+03  0.00000000000E+00 0. -1.
         -1    1    6    6    0  503 -0.52500348453E+03  0.46019883838E+03 -0.31905462525E+02  0.69887737705E+03  0.00000000000E+00 0.  1.
<mgrwt>
<rscale>  0 0.19470145E+04</rscale>
<asrwt>0</asrwt>
<pdfrwt beam="1">  1        2 0.33918769E+00 0.19470145E+04</pdfrwt>
<pdfrwt beam="2">  1       -2 0.26787254E+00 0.19470145E+04</pdfrwt>
<totfact> 0.22942328E-01</totfact>
</mgrwt>
</event>
<event>
12    1  0.8033771E-008  0.2334631E+04  0.7818608E-02  0.8464391E-01
          1   -1    0    0  501    0  0.00000000000E+00  0.00000000000E+00  0.37175456981E+04  0.37175456981E+04  0.00000000000E+00 0. -1.
         -1   -1    0    0    0  501 -0.00000000000E+00 -0.00000000000E+00 -0.15929368227E+04  0.15929368227E+04  0.00000000000E+00 0.  1.
         23    2    1    2    0    0  0.84907670414E+03  0.21718517141E+04  0.44803401262E+03  0.23764053755E+04  0.93257248906E+02 0.  0.
    5000000    2    1    2    0    0 -0.84907670414E+03 -0.21718517141E+04  0.16765748628E+04  0.29340771453E+04  0.60002858811E+03 0.  0.
         23    2    4    4    0    0 -0.59745184530E+03 -0.14123752727E+04  0.76017284177E+03  0.17141322572E+04  0.92919467205E+02 0.  0.
         23    2    4    4    0    0 -0.25162485884E+03 -0.75947644139E+03  0.91640202102E+03  0.12199448881E+04  0.91396560638E+02 0.  0.
          3    1    3    3  502    0  0.52779773139E+03  0.13763051808E+04  0.32785675392E+03  0.15100584251E+04  0.00000000000E+00 0. -1.
         -3    1    3    3    0  502  0.32127897274E+03  0.79554653329E+03  0.12017725870E+03  0.86634695040E+03  0.00000000000E+00 0.  1.
         15    1    5    5    0    0 -0.56904848491E+02 -0.19593205627E+03  0.78628947939E+02  0.21866230045E+03  0.17770000000E+01 0. -1.
        -15    1    5    5    0    0 -0.54054699680E+03 -0.12164432165E+04  0.68154389383E+03  0.14954699568E+04  0.17770000000E+01 0.  1.
          3    1    6    6  503    0 -0.12400085860E+03 -0.46262431864E+03  0.49322123518E+03  0.68750611631E+03  0.00000000000E+00 0. -1.
         -3    1    6    6    0  503 -0.12762400024E+03 -0.29685212275E+03  0.42318078584E+03  0.53243877180E+03  0.00000000000E+00 0.  1.
<mgrwt>
<rscale>  0 0.23346305E+04</rscale>
<asrwt>0</asrwt>
<pdfrwt beam="1">  1        1 0.57193010E+00 0.23346305E+04</pdfrwt>
<pdfrwt beam="2">  1       -1 0.24506720E+00 0.23346305E+04</pdfrwt>
<totfact> 0.10757995E-02</totfact>
</mgrwt>
</event>
<event>
12    1  0.8033771E-008  0.3877057E+03  0.7818608E-02  0.1048122E+00
         -1   -1    0    0    0  501 -0.00000000000E+00  0.00000000000E+00  0.32157062471E+03  0.32157062471E+03  0.00000000000E+00 0.  1.
          1   -1    0    0  501    0  0.00000000000E+00 -0.00000000000E+00 -0.99989258631E+03  0.99989258631E+03  0.00000000000E+00 0. -1.
         23    2    1    2    0    0 -0.92315362424E+02 -0.34712344650E+03 -0.37529206585E+02  0.37291863189E+03  0.92968012852E+02 0.  0.
    5000000    2    1    2    0    0  0.92315362424E+02  0.34712344650E+03 -0.64079275501E+03  0.94854457913E+03  0.60008720240E+03 0.  0.
         23    2    4    4    0    0  0.77052913503E+01  0.11776856596E+03 -0.67009855304E+03  0.68645279301E+03  0.90865612861E+02 0.  0.
         23    2    4    4    0    0  0.84610071073E+02  0.22935488054E+03  0.29305798032E+02  0.26209178612E+03  0.89837348576E+02 0.  0.
          1    1    3    3  502    0  0.13194738697E+02 -0.51956163930E+02  0.13634462652E+02  0.55312228950E+02  0.00000000000E+00 0. -1.
         -1    1    3    3    0  502 -0.10551010112E+03 -0.29516728257E+03 -0.51163669237E+02  0.31760640294E+03  0.00000000000E+00 0.  1.
         15    1    5    5    0    0  0.49074537081E+02  0.61338223556E+02 -0.37880128344E+03  0.38686465065E+03  0.17770000000E+01 0. -1.
        -15    1    5    5    0    0 -0.41369245730E+02  0.56430342399E+02 -0.29129726961E+03  0.29958814236E+03  0.17770000000E+01 0.  1.
          2    1    6    6  503    0  0.66594484313E+02  0.60514428310E+02  0.12522241109E+01  0.89991051999E+02  0.00000000000E+00 0. -1.
         -2    1    6    6    0  503  0.18015586760E+02  0.16884045223E+03  0.28053573921E+02  0.17210073412E+03  0.00000000000E+00 0.  1.
<mgrwt>
<rscale>  0 0.38770567E+03</rscale>
<asrwt>0</asrwt>
<pdfrwt beam="1">  1        1 0.15382963E+00 0.38770567E+03</pdfrwt>
<pdfrwt beam="2">  1       -1 0.49472405E-01 0.38770567E+03</pdfrwt>
<totfact> 0.66344481E+01</totfact>
</mgrwt>
</event>
<event>
12    1  0.8033771E-008  0.1879162E+04  0.7818608E-02  0.8665299E-01
         -1   -1    0    0    0  501 -0.00000000000E+00  0.00000000000E+00  0.19888043828E+04  0.19888043828E+04  0.00000000000E+00 0.  1.
          1   -1    0    0  501    0  0.00000000000E+00 -0.00000000000E+00 -0.23808582676E+04  0.23808582676E+04  0.00000000000E+00 0. -1.
         23    2    1    2    0    0  0.29540186157E+03  0.18228859644E+04  0.88081798428E+03  0.20479637595E+04  0.90220504973E+02 0.  0.
    5000000    2    1    2    0    0 -0.29540186157E+03 -0.18228859644E+04 -0.12728718691E+04  0.23216988909E+04  0.59992286660E+03 0.  0.
         23    2    4    4    0    0 -0.36008856125E+03 -0.17235772690E+04 -0.12686258609E+04  0.21718928843E+04  0.85584765505E+02 0.  0.
         23    2    4    4    0    0  0.64686699682E+02 -0.99308695494E+02 -0.42460081784E+01  0.14980600660E+03  0.91527181266E+02 0.  0.
          3    1    3    3  502    0  0.18639139675E+03  0.12128845248E+04  0.63081312462E+03  0.13797665822E+04  0.00000000000E+00 0. -1.
         -3    1    3    3    0  502  0.10901046482E+03  0.61000143969E+03  0.25000485965E+03  0.66819717728E+03  0.00000000000E+00 0.  1.
         15    1    5    5    0    0 -0.20632253873E+03 -0.84263285701E+03 -0.58674308094E+03  0.10473154837E+04  0.17770000000E+01 0. -1.
        -15    1    5    5    0    0 -0.15376602252E+03 -0.88094441194E+03 -0.68188277998E+03  0.11245774006E+04  0.17770000000E+01 0.  1.
          3    1    6    6  503    0  0.30593672861E+02  0.12353233179E+02 -0.65027456175E+00  0.32999970396E+02  0.00000000000E+00 0. -1.
         -3    1    6    6    0  503  0.34093026821E+02 -0.11166192867E+03 -0.35957336167E+01  0.11680603620E+03  0.00000000000E+00 0.  1.
<mgrwt>
<rscale>  0 0.18791621E+04</rscale>
<asrwt>0</asrwt>
<pdfrwt beam="1">  1        1 0.36628589E+00 0.18791621E+04</pdfrwt>
<pdfrwt beam="2">  1       -1 0.30596991E+00 0.18791621E+04</pdfrwt>
<totfact> 0.44514286E-02</totfact>
</mgrwt>
</event>
<event>
12    1  0.8033771E-008  0.7515344E+03  0.7818608E-02  0.9632946E-01
          2   -1    0    0  501    0  0.00000000000E+00  0.00000000000E+00  0.34578315332E+04  0.34578315332E+04  0.00000000000E+00 0.  1.
         -2   -1    0    0    0  501 -0.00000000000E+00 -0.00000000000E+00 -0.42823645007E+03  0.42823645007E+03  0.00000000000E+00 0. -1.
         23    2    1    2    0    0 -0.62796907380E+03 -0.20144616639E+03 -0.63445440924E+02  0.66703985939E+03  0.77402418774E+02 0.  0.
    5000000    2    1    2    0    0  0.62796907380E+03  0.20144616639E+03  0.30930405240E+04  0.32190281239E+04  0.60026382804E+03 0.  0.
         23    2    4    4    0    0  0.29604528639E+03  0.36614291980E+03  0.13033215191E+04  0.13890083881E+04  0.94836020399E+02 0.  0.
         23    2    4    4    0    0  0.33192378741E+03 -0.16469675340E+03  0.17897190049E+04  0.18300197357E+04  0.92626645155E+02 0.  0.
          1    1    3    3  502    0 -0.49633747151E+03 -0.17529243748E+03 -0.77676866671E+02  0.53208271902E+03  0.00000000000E+00 0. -1.
         -1    1    3    3    0  502 -0.13163160229E+03 -0.26153728917E+02  0.14231425746E+02  0.13495714037E+03  0.00000000000E+00 0.  1.
         15    1    5    5    0    0  0.73577321784E+02  0.11364227960E+03  0.50088131835E+03  0.51885782523E+03  0.17770000000E+01 0.  1.
        -15    1    5    5    0    0  0.22246796461E+03  0.25250064020E+03  0.80244020079E+03  0.87015056292E+03  0.17770000000E+01 0. -1.
          1    1    6    6  503    0  0.11074236605E+03 -0.57052326555E+02  0.40867952830E+03  0.42724442238E+03  0.00000000000E+00 0. -1.
         -1    1    6    6    0  503  0.22118142136E+03 -0.10764442685E+03  0.13810394766E+04  0.14027753133E+04  0.00000000000E+00 0.  1.
<mgrwt>
<rscale>  0 0.75153435E+03</rscale>
<asrwt>0</asrwt>
<pdfrwt beam="1">  1        2 0.53197407E+00 0.75153435E+03</pdfrwt>
<pdfrwt beam="2">  1       -2 0.65882533E-01 0.75153435E+03</pdfrwt>
<totfact> 0.20019753E+00</totfact>
</mgrwt>
</event>
<event>
12    1  0.8033771E-008  0.5823214E+03  0.7818608E-02  0.9942778E-01
         -2   -1    0    0    0  501 -0.00000000000E+00  0.00000000000E+00  0.74572461285E+03  0.74572461285E+03  0.00000000000E+00 0.  1.
          2   -1    0    0  501    0  0.00000000000E+00 -0.00000000000E+00 -0.62108555787E+03  0.62108555787E+03  0.00000000000E+00 0. -1.
         23    2    1    2    0    0 -0.11691234010E+02  0.53453824606E+03 -0.49007062379E+02  0.54456651531E+03  0.91011955168E+02 0.  0.
    5000000    2    1    2    0    0  0.11691234010E+02 -0.53453824606E+03  0.17364611736E+03  0.82224365542E+03  0.60005319210E+03 0.  0.
         23    2    4    4    0    0  0.50356606444E+02 -0.51789352364E+03  0.33961162755E+03  0.62760129272E+03  0.88305353287E+02 0.  0.
         23    2    4    4    0    0 -0.38665372434E+02 -0.16644722415E+02 -0.16596551019E+03  0.19464236269E+03  0.92569114575E+02 0.  0.
          3    1    3    3  502    0  0.17364537061E+02  0.17146208991E+03 -0.53009959346E+02  0.18030760165E+03  0.00000000000E+00 0. -1.
         -3    1    3    3    0  502 -0.29055771071E+02  0.36307615615E+03  0.40028969667E+01  0.36425891366E+03  0.00000000000E+00 0.  1.
         15    1    5    5    0    0 -0.16849905432E+02 -0.23493860605E+03  0.17474002135E+03  0.29328706197E+03  0.17770000000E+01 0.  1.
        -15    1    5    5    0    0  0.67206511876E+02 -0.28295491759E+03  0.16487160620E+03  0.33431423076E+03  0.17770000000E+01 0. -1.
          1    1    6    6  503    0 -0.49548913425E+02  0.27190814590E+02 -0.93246457032E+02  0.10903823627E+03  0.00000000000E+00 0. -1.
         -1    1    6    6    0  503  0.10883540991E+02 -0.43835537005E+02 -0.72719053156E+02  0.85604126425E+02  0.00000000000E+00 0.  1.
<mgrwt>
<rscale>  0 0.58232138E+03</rscale>
<asrwt>0</asrwt>
<pdfrwt beam="1">  1        2 0.95551624E-01 0.58232138E+03</pdfrwt>
<pdfrwt beam="2">  1       -2 0.11472686E+00 0.58232138E+03</pdfrwt>
<totfact> 0.29022526E+01</totfact>
</mgrwt>
</event>
<event>
12    1  0.8033771E-008  0.9515726E+03  0.7818608E-02  0.9363314E-01
          1   -1    0    0  501    0  0.00000000000E+00  0.00000000000E+00  0.13660364193E+04  0.13660364193E+04  0.00000000000E+00 0. -1.
         -1   -1    0    0    0  501 -0.00000000000E+00 -0.00000000000E+00 -0.84197495715E+03  0.84197495715E+03  0.00000000000E+00 0.  1.
         23    2    1    2    0    0  0.11576729288E+03  0.85005870753E+03  0.74295379504E+03  0.11384816347E+04  0.90322858219E+02 0.  0.
    5000000    2    1    2    0    0 -0.11576729288E+03 -0.85005870753E+03 -0.21889233294E+03  0.10695297417E+04  0.59998178518E+03 0.  0.
         23    2    4    4    0    0 -0.30036151028E+03 -0.22034320844E+03 -0.51568894374E+02  0.38628560543E+03  0.88255604550E+02 0.  0.
         23    2    4    4    0    0  0.18459421741E+03 -0.62971549910E+03 -0.16732343857E+03  0.68324413624E+03  0.90602327279E+02 0.  0.
          2    1    3    3  502    0  0.99181318726E+02  0.49657842244E+03  0.39528087449E+03  0.64239709942E+03  0.00000000000E+00 0. -1.
         -2    1    3    3    0  502  0.16585974150E+02  0.35348028510E+03  0.34767292055E+03  0.49608453531E+03  0.00000000000E+00 0.  1.
         15    1    5    5    0    0 -0.17921054860E+03 -0.18251565569E+03 -0.38626484396E+02  0.25869586067E+03  0.17770000000E+01 0.  1.
        -15    1    5    5    0    0 -0.12115096168E+03 -0.37827552743E+02 -0.12942409978E+02  0.12758974476E+03  0.17770000000E+01 0. -1.
          3    1    6    6  503    0  0.16124056350E+03 -0.60516895488E+03 -0.17088569285E+03  0.64917632680E+03  0.00000000000E+00 0.  1.
         -3    1    6    6    0  503  0.23353653910E+02 -0.24546544220E+02  0.35622542812E+01  0.34067809435E+02  0.00000000000E+00 0. -1.
<mgrwt>
<rscale>  0 0.95157256E+03</rscale>
<asrwt>0</asrwt>
<pdfrwt beam="1">  1        1 0.21015945E+00 0.95157256E+03</pdfrwt>
<pdfrwt beam="2">  1       -1 0.12953461E+00 0.95157256E+03</pdfrwt>
<totfact> 0.41984857E+00</totfact>
</mgrwt>
</event>
<event>
12    1  0.8033771E-008  0.8206079E+03  0.7818608E-02  0.9530658E-01
          2   -1    0    0  501    0  0.00000000000E+00  0.00000000000E+00  0.81584479778E+03  0.81584479778E+03  0.00000000000E+00 0. -1.
         -2   -1    0    0    0  501 -0.00000000000E+00 -0.00000000000E+00 -0.85707256337E+03  0.85707256337E+03  0.00000000000E+00 0.  1.
         23    2    1    2    0    0  0.37945989592E+03 -0.61344316970E+03 -0.95971724615E+02  0.73315352225E+03  0.89449316383E+02 0.  0.
    5000000    2    1    2    0    0 -0.37945989592E+03  0.61344316970E+03  0.54743959026E+02  0.93976383890E+03  0.59988068546E+03 0.  0.
         23    2    4    4    0    0 -0.18710652325E+03  0.67930336646E+03  0.82443071082E+02  0.71460056308E+03  0.85995290887E+02 0.  0.
         23    2    4    4    0    0 -0.19235337267E+03 -0.65860196762E+02 -0.27699112056E+02  0.22516327582E+03  0.92703152450E+02 0.  0.
          1    1    3    3  502    0  0.24669113445E+03 -0.46444532872E+03 -0.49312369932E+02  0.52820231826E+03  0.00000000000E+00 0. -1.
         -1    1    3    3    0  502  0.13276876147E+03 -0.14899784098E+03 -0.46659354682E+02  0.20495120399E+03  0.00000000000E+00 0.  1.
         15    1    5    5    0    0 -0.52458335226E+02  0.89569306775E+02  0.26252357408E+02  0.10708352651E+03  0.17770000000E+01 0. -1.
        -15    1    5    5    0    0 -0.13464818802E+03  0.58973405969E+03  0.56190713674E+02  0.60751703657E+03  0.17770000000E+01 0.  1.
          3    1    6    6  503    0 -0.18335105508E+03 -0.52153956807E+02 -0.50385518315E+02  0.19717085247E+03  0.00000000000E+00 0. -1.
         -3    1    6    6    0  503 -0.90023175866E+01 -0.13706239955E+02  0.22686406259E+02  0.27992423343E+02  0.00000000000E+00 0.  1.
<mgrwt>
<rscale>  0 0.82060792E+03</rscale>
<asrwt>0</asrwt>
<pdfrwt beam="1">  1        2 0.12551458E+00 0.82060792E+03</pdfrwt>
<pdfrwt beam="2">  1       -2 0.13185732E+00 0.82060792E+03</pdfrwt>
<totfact> 0.14170857E+01</totfact>
</mgrwt>
</event>
<event>
12    1  0.8033771E-008  0.5137004E+03  0.7818608E-02  0.1010264E+00
          2   -1    0    0  501    0  0.00000000000E+00  0.00000000000E+00  0.25305699223E+04  0.25305699223E+04  0.00000000000E+00 0. -1.
         -2   -1    0    0    0  501 -0.00000000000E+00 -0.00000000000E+00 -0.58052988389E+03  0.58052988389E+03  0.00000000000E+00 0.  1.
         23    2    1    2    0    0 -0.28353849961E+03 -0.25817461732E+03  0.22890196500E+04  0.23227619461E+04  0.92541268888E+02 0.  0.
    5000000    2    1    2    0    0  0.28353849961E+03  0.25817461732E+03 -0.33897961160E+03  0.78833786006E+03  0.59960085952E+03 0.  0.
         23    2    4    4    0    0  0.35487704993E+03  0.34498852124E+03 -0.10697286755E+03  0.51471852420E+03  0.92396777056E+02 0.  0.
         23    2    4    4    0    0 -0.71338550318E+02 -0.86813903920E+02 -0.23200674404E+03  0.27361933586E+03  0.91730959874E+02 0.  0.
          3    1    3    3  502    0 -0.25280238946E+03 -0.18424665292E+03  0.19013180520E+04  0.19268799164E+04  0.00000000000E+00 0. -1.
         -3    1    3    3    0  502 -0.30736110142E+02 -0.73927964401E+02  0.38770159799E+03  0.39588202974E+03  0.00000000000E+00 0.  1.
         15    1    5    5    0    0  0.19064065833E+03  0.19641996494E+03 -0.12717141697E+02  0.27402471906E+03  0.17770000000E+01 0.  1.
        -15    1    5    5    0    0  0.16423639160E+03  0.14856855630E+03 -0.94255725856E+02  0.24069380514E+03  0.17770000000E+01 0. -1.
          4    1    6    6  503    0 -0.23011606082E+02  0.14409176419E+02 -0.81560803537E+02  0.85961171776E+02  0.00000000000E+00 0. -1.
         -4    1    6    6    0  503 -0.48326944237E+02 -0.10122308034E+03 -0.15044594051E+03  0.18765816408E+03  0.00000000000E+00 0.  1.
<mgrwt>
<rscale>  0 0.51370042E+03</rscale>
<asrwt>0</asrwt>
<pdfrwt beam="1">  1        2 0.38931844E+00 0.51370042E+03</pdfrwt>
<pdfrwt beam="2">  1       -2 0.89312291E-01 0.51370042E+03</pdfrwt>
<totfact> 0.39852359E+00</totfact>
</mgrwt>
</event>
<event>
12    1  0.8033771E-008  0.1118379E+04  0.7818608E-02  0.9187461E-01
         -2   -1    0    0    0  501 -0.00000000000E+00  0.00000000000E+00  0.10428650567E+04  0.10428650567E+04  0.00000000000E+00 0.  1.
          2   -1    0    0  501    0  0.00000000000E+00 -0.00000000000E+00 -0.16055525979E+04  0.16055525979E+04  0.00000000000E+00 0. -1.
         23    2    1    2    0    0  0.53109034458E+03 -0.90279681798E+03  0.37882320194E+03  0.11175432150E+04  0.91086609915E+02 0.  0.
    5000000    2    1    2    0    0 -0.53109034458E+03  0.90279681798E+03 -0.94151074314E+03  0.15308744396E+04  0.60002918412E+03 0.  0.
         23    2    4    4    0    0 -0.43291720520E+03  0.20535639736E+03 -0.48351745046E+03  0.68643675346E+03  0.88417956942E+02 0.  0.
         23    2    4    4    0    0 -0.98173139386E+02  0.69744042062E+03 -0.45799329268E+03  0.84443768617E+03  0.85182416414E+02 0.  0.
          1    1    3    3  502    0  0.44199342798E+03 -0.80314975517E+03  0.31434220746E+03  0.96913298520E+03  0.00000000000E+00 0. -1.
         -1    1    3    3    0  502  0.89096916605E+02 -0.99647062812E+02  0.64480994483E+02  0.14841022985E+03  0.00000000000E+00 0.  1.
         15    1    5    5    0    0 -0.28383875493E+03  0.13769812127E+03 -0.25681273043E+03  0.40679374091E+03  0.17770000000E+01 0.  1.
        -15    1    5    5    0    0 -0.14907845027E+03  0.67658276092E+02 -0.22670472002E+03  0.27964301255E+03  0.17770000000E+01 0. -1.
          1    1    6    6  503    0 -0.23435676461E+02  0.39183461891E+03 -0.28784564192E+03  0.48676350837E+03  0.00000000000E+00 0. -1.
         -1    1    6    6    0  503 -0.74737462925E+02  0.30560580171E+03 -0.17014765076E+03  0.35767417780E+03  0.00000000000E+00 0.  1.
<mgrwt>
<rscale>  0 0.11183794E+04</rscale>
<asrwt>0</asrwt>
<pdfrwt beam="1">  1        2 0.24700809E+00 0.11183794E+04</pdfrwt>
<pdfrwt beam="2">  1       -2 0.16044078E+00 0.11183794E+04</pdfrwt>
<totfact> 0.27121319E+00</totfact>
</mgrwt>
</event>
<event>
12    1  0.8033771E-008  0.3553480E+03  0.7818608E-02  0.1060441E+00
          1   -1    0    0  501    0  0.00000000000E+00  0.00000000000E+00  0.24712483678E+03  0.24712483678E+03  0.00000000000E+00 0.  1.
         -1   -1    0    0    0  501 -0.00000000000E+00 -0.00000000000E+00 -0.80578475997E+03  0.80578475997E+03  0.00000000000E+00 0. -1.
         23    2    1    2    0    0 -0.65365892190E+02  0.15529384005E+03 -0.34238104371E+03  0.39334630176E+03  0.95434047370E+02 0.  0.
    5000000    2    1    2    0    0  0.65365892190E+02 -0.15529384005E+03 -0.21627887948E+03  0.65956329498E+03  0.59988191318E+03 0.  0.
         23    2    4    4    0    0  0.94182671605E+02 -0.31399225571E+03  0.40796421103E+02  0.34277091907E+03  0.91466074116E+02 0.  0.
         23    2    4    4    0    0 -0.28816779415E+02  0.15869841565E+03 -0.25707530058E+03  0.31679237591E+03  0.90852107059E+02 0.  0.
          3    1    3    3  502    0 -0.14165783279E+02  0.13769904658E+03 -0.26392727765E+03  0.29802567798E+03  0.00000000000E+00 0. -1.
         -3    1    3    3    0  502 -0.51200108911E+02  0.17594793470E+02 -0.78453766063E+02  0.95320623787E+02  0.00000000000E+00 0.  1.
         15    1    5    5    0    0  0.31470814952E+02 -0.35110112702E+02  0.31568665633E+02  0.56770331922E+02  0.17770000000E+01 0. -1.
        -15    1    5    5    0    0  0.62711856653E+02 -0.27888214300E+03  0.92277554702E+01  0.28600058715E+03  0.17770000000E+01 0.  1.
          1    1    6    6  503    0  0.61913166157E+01  0.14850498365E+03 -0.20847758419E+03  0.25603703966E+03  0.00000000000E+00 0. -1.
         -1    1    6    6    0  503 -0.35008096030E+02  0.10193432006E+02 -0.48597716394E+02  0.60755336247E+02  0.00000000000E+00 0.  1.
<mgrwt>
<rscale>  0 0.35534797E+03</rscale>
<asrwt>0</asrwt>
<pdfrwt beam="1">  1        1 0.38019206E-01 0.35534797E+03</pdfrwt>
<pdfrwt beam="2">  1       -1 0.12396688E+00 0.35534797E+03</pdfrwt>
<totfact> 0.68249685E+01</totfact>
</mgrwt>
</event>
<event>
12    1  0.9180367E-008  0.7393303E+03  0.7818608E-02  0.9652240E-01
         -2   -1    0    0    0  501 -0.00000000000E+00  0.00000000000E+00  0.61236031177E+03  0.61236031177E+03  0.00000000000E+00 0.  1.
          2   -1    0    0  501    0  0.00000000000E+00 -0.00000000000E+00 -0.96341773435E+03  0.96341773435E+03  0.00000000000E+00 0. -1.
         23    2    1    2    0    0 -0.54606927407E+03 -0.32492923851E+03 -0.22022354511E+02  0.64206961583E+03  0.89430114335E+02 0.  0.
    5000000    2    1    2    0    0  0.54606927407E+03  0.32492923851E+03 -0.32903506807E+03  0.93370843030E+03  0.59981388336E+03 0.  0.
         23    2    4    4    0    0  0.63718952437E+03  0.34879074826E+03 -0.32479292686E+03  0.80102108218E+03  0.92080685909E+02 0.  0.
         23    2    4    4    0    0 -0.91120250298E+02 -0.23861509756E+02 -0.42421412075E+01  0.13268734812E+03  0.93357725585E+02 0.  0.
          2    1    3    3  502    0 -0.27727965399E+03 -0.16846867389E+03  0.33391987716E+02  0.32616058229E+03  0.00000000000E+00 0. -1.
         -2    1    3    3    0  502 -0.26878962008E+03 -0.15646056462E+03 -0.55414342226E+02  0.31590903354E+03  0.00000000000E+00 0.  1.
         15    1    5    5    0    0  0.27979560825E+03  0.20479210822E+03 -0.16225271297E+03  0.38282435996E+03  0.17770000000E+01 0.  1.
        -15    1    5    5    0    0  0.35739391612E+03  0.14399864005E+03 -0.16254021389E+03  0.41819672222E+03  0.17770000000E+01 0. -1.
          1    1    6    6  503    0 -0.65946277860E+01  0.16285940650E+02  0.28557463940E+02  0.33529833360E+02  0.00000000000E+00 0.  1.
         -1    1    6    6    0  503 -0.84525622512E+02 -0.40147450406E+02 -0.32799605148E+02  0.99157514758E+02  0.00000000000E+00 0. -1.
<mgrwt>
<rscale>  0 0.73933030E+03</rscale>
<asrwt>0</asrwt>
<pdfrwt beam="1">  1        2 0.14821811E+00 0.73933030E+03</pdfrwt>
<pdfrwt beam="2">  1       -2 0.94209279E-01 0.73933030E+03</pdfrwt>
<totfact> 0.25713003E+01</totfact>
</mgrwt>
</event>
<event>
12    1  0.8033771E-008  0.7932141E+03  0.7818608E-02  0.9569892E-01
         -2   -1    0    0    0  501 -0.00000000000E+00  0.00000000000E+00  0.11406724404E+04  0.11406724404E+04  0.00000000000E+00 0.  1.
          2   -1    0    0  501    0  0.00000000000E+00 -0.00000000000E+00 -0.75753208579E+03  0.75753208579E+03  0.00000000000E+00 0. -1.
         23    2    1    2    0    0 -0.61862740755E+03  0.44156766276E+03  0.51298797378E+03  0.92121295773E+03  0.88288063068E+02 0.  0.
    5000000    2    1    2    0    0  0.61862740755E+03 -0.44156766276E+03 -0.12984761913E+03  0.97699156849E+03  0.59997520828E+03 0.  0.
         23    2    4    4    0    0  0.60763714830E+03 -0.38110059401E+03  0.90955703804E+02  0.72837424736E+03  0.88292340616E+02 0.  0.
         23    2    4    4    0    0  0.10990259247E+02 -0.60467068747E+02 -0.22080332294E+03  0.24861732114E+03  0.96329708541E+02 0.  0.
          2    1    3    3  502    0 -0.44061586741E+03  0.33341310434E+03  0.41492510074E+03  0.69099166419E+03  0.00000000000E+00 0. -1.
         -2    1    3    3    0  502 -0.17801154013E+03  0.10815455842E+03  0.98062873042E+02  0.23022129353E+03  0.00000000000E+00 0.  1.
         15    1    5    5    0    0  0.83120006262E+02 -0.67889818178E+02  0.42816952074E+02  0.11556129095E+03  0.17770000000E+01 0. -1.
        -15    1    5    5    0    0  0.52451714204E+03 -0.31321077584E+03  0.48138751730E+02  0.61281295640E+03  0.17770000000E+01 0.  1.
          4    1    6    6  503    0 -0.38630135960E+02 -0.21257509474E+02 -0.50992368211E+02  0.67412096311E+02  0.00000000000E+00 0. -1.
         -4    1    6    6    0  503  0.49620395207E+02 -0.39209559273E+02 -0.16981095473E+03  0.18120522482E+03  0.00000000000E+00 0.  1.
<mgrwt>
<rscale>  0 0.79321409E+03</rscale>
<asrwt>0</asrwt>
<pdfrwt beam="1">  1        2 0.11654340E+00 0.79321409E+03</pdfrwt>
<pdfrwt beam="2">  1       -2 0.17548807E+00 0.79321409E+03</pdfrwt>
<totfact> 0.73095362E+00</totfact>
</mgrwt>
</event>
<event>
12    1  0.8033771E-008  0.1253880E+04  0.7818608E-02  0.9066960E-01
          1   -1    0    0  501    0  0.00000000000E+00  0.00000000000E+00  0.23052217449E+04  0.23052217449E+04  0.00000000000E+00 0. -1.
         -1   -1    0    0    0  501 -0.00000000000E+00 -0.00000000000E+00 -0.72264599843E+03  0.72264599843E+03  0.00000000000E+00 0.  1.
         23    2    1    2    0    0  0.78287221802E+03  0.91239948789E+03  0.51225580615E+03  0.13100095750E+04  0.91418490027E+02 0.  0.
    5000000    2    1    2    0    0 -0.78287221802E+03 -0.91239948789E+03  0.10703199403E+04  0.17178581683E+04  0.60007514252E+03 0.  0.
         23    2    4    4    0    0 -0.42959259137E+03 -0.15445622296E+03  0.58463586704E+03  0.74732411421E+03  0.91036889687E+02 0.  0.
         23    2    4    4    0    0 -0.35327962665E+03 -0.75794326493E+03  0.48568407323E+03  0.97053405411E+03  0.82236510938E+02 0.  0.
          4    1    3    3  502    0  0.44148886846E+03  0.55469891706E+03  0.26184576793E+03  0.75575559260E+03  0.00000000000E+00 0.  1.
         -4    1    3    3    0  502  0.34138334956E+03  0.35770057083E+03  0.25041003821E+03  0.55425398236E+03  0.00000000000E+00 0. -1.
         15    1    5    5    0    0 -0.40151623516E+03 -0.11615951607E+03  0.52503427663E+03  0.67109795831E+03  0.17770000000E+01 0. -1.
        -15    1    5    5    0    0 -0.28076356205E+02 -0.38296706889E+02  0.59601590406E+02  0.76226155906E+02  0.17770000000E+01 0.  1.
          3    1    6    6  503    0 -0.29250480964E+03 -0.67817394548E+03  0.40867385064E+03  0.84409317032E+03  0.00000000000E+00 0. -1.
         -3    1    6    6    0  503 -0.60774817013E+02 -0.79769319452E+02  0.77010222595E+02  0.12644088379E+03  0.00000000000E+00 0.  1.
<mgrwt>
<rscale>  0 0.12538799E+04</rscale>
<asrwt>0</asrwt>
<pdfrwt beam="1">  1        1 0.35464950E+00 0.12538799E+04</pdfrwt>
<pdfrwt beam="2">  1       -1 0.11117631E+00 0.12538799E+04</pdfrwt>
<totfact> 0.13473951E+00</totfact>
</mgrwt>
</event>
<event>
12    1  0.8033771E-008  0.9014502E+03  0.7818608E-02  0.9423770E-01
          2   -1    0    0  501    0  0.00000000000E+00  0.00000000000E+00  0.13854198079E+04  0.13854198079E+04  0.00000000000E+00 0. -1.
         -2   -1    0    0    0  501 -0.00000000000E+00 -0.00000000000E+00 -0.82879524087E+03  0.82879524087E+03  0.00000000000E+00 0.  1.
         23    2    1    2    0    0  0.86590139052E+03  0.68421453266E+02  0.73787859549E+03  0.11430547506E+04  0.87422124738E+02 0.  0.
    5000000    2    1    2    0    0 -0.86590139052E+03 -0.68421453266E+02 -0.18125402847E+03  0.10711602981E+04  0.60005387097E+03 0.  0.
         23    2    4    4    0    0 -0.17718941324E+03 -0.14692504925E+03  0.15966073326E+03  0.29315240389E+03  0.86392846337E+02 0.  0.
         23    2    4    4    0    0 -0.68871197728E+03  0.78503595981E+02 -0.34091476174E+03  0.77800789424E+03  0.92662864699E+02 0.  0.
          1    1    3    3  502    0  0.27980999490E+03 -0.18807442718E+02  0.23750824063E+03  0.36750172450E+03  0.00000000000E+00 0. -1.
         -1    1    3    3    0  502  0.58609139562E+03  0.87228895984E+02  0.50037035487E+03  0.77555302613E+03  0.00000000000E+00 0.  1.
         15    1    5    5    0    0 -0.59109041337E+01 -0.30160123574E+01 -0.10171955695E+02  0.12274425847E+02  0.17770000000E+01 0. -1.
        -15    1    5    5    0    0 -0.17127850911E+03 -0.14390903689E+03  0.16983268896E+03  0.28087797804E+03  0.17770000000E+01 0.  1.
          1    1    6    6  503    0 -0.41559930220E+03  0.92817201468E+02 -0.20531547425E+03  0.47274967672E+03  0.00000000000E+00 0. -1.
         -1    1    6    6    0  503 -0.27311267508E+03 -0.14313605487E+02 -0.13559928749E+03  0.30525821752E+03  0.00000000000E+00 0.  1.
<mgrwt>
<rscale>  0 0.90145019E+03</rscale>
<asrwt>0</asrwt>
<pdfrwt beam="1">  1        2 0.21314151E+00 0.90145019E+03</pdfrwt>
<pdfrwt beam="2">  1       -2 0.12750696E+00 0.90145019E+03</pdfrwt>
<totfact> 0.67532273E+00</totfact>
</mgrwt>
</event>
<event>
12    1  0.8033771E-008  0.1697855E+04  0.7818608E-02  0.8762589E-01
         -2   -1    0    0    0  501 -0.00000000000E+00  0.00000000000E+00  0.13799388441E+04  0.13799388441E+04  0.00000000000E+00 0.  1.
          2   -1    0    0  501    0  0.00000000000E+00 -0.00000000000E+00 -0.23550877504E+04  0.23550877504E+04  0.00000000000E+00 0. -1.
         23    2    1    2    0    0 -0.32155495281E+03 -0.16394975807E+04 -0.10194252602E+04  0.19592916480E+04  0.90807467129E+02 0.  0.
    5000000    2    1    2    0    0  0.32155495281E+03  0.16394975807E+04  0.44276353926E+02  0.17757349464E+04  0.59993691299E+03 0.  0.
         23    2    4    4    0    0  0.10585164775E+03  0.94963477714E+02 -0.11636614117E+03  0.20534134876E+03  0.91658918109E+02 0.  0.
         23    2    4    4    0    0  0.21570330506E+03  0.15445341030E+04  0.16064249510E+03  0.15703935977E+04  0.90645072588E+02 0.  0.
          2    1    3    3  502    0 -0.11126459433E+03 -0.49022056189E+03 -0.35276689852E+03  0.61411765480E+03  0.00000000000E+00 0. -1.
         -2    1    3    3    0  502 -0.21029035848E+03 -0.11492770188E+04 -0.66665836166E+03  0.13451739932E+04  0.00000000000E+00 0.  1.
         15    1    5    5    0    0 -0.78819824123E+01 -0.78436938795E+01 -0.23574997193E+02  0.26126373687E+02  0.17770000000E+01 0.  1.
        -15    1    5    5    0    0  0.11373363016E+03  0.10280717159E+03 -0.92791143982E+02  0.17921497507E+03  0.17770000000E+01 0. -1.
          2    1    6    6  503    0  0.62097497778E+02  0.59096023006E+03  0.21938546925E+02  0.59461869512E+03  0.00000000000E+00 0. -1.
         -2    1    6    6    0  503  0.15360580728E+03  0.95357387297E+03  0.13870394818E+03  0.97577490257E+03  0.00000000000E+00 0.  1.
<mgrwt>
<rscale>  0 0.16978551E+04</rscale>
<asrwt>0</asrwt>
<pdfrwt beam="1">  1        2 0.36232119E+00 0.16978551E+04</pdfrwt>
<pdfrwt beam="2">  1       -2 0.21229829E+00 0.16978551E+04</pdfrwt>
<totfact> 0.42926720E-01</totfact>
</mgrwt>
</event>
<event>
12    1  0.8033771E-008  0.1082770E+04  0.7818608E-02  0.9222150E-01
         -2   -1    0    0    0  501 -0.00000000000E+00  0.00000000000E+00  0.53647103767E+03  0.53647103767E+03  0.00000000000E+00 0. -1.
          2   -1    0    0  501    0  0.00000000000E+00 -0.00000000000E+00 -0.23015369108E+04  0.23015369108E+04  0.00000000000E+00 0.  1.
         23    2    1    2    0    0 -0.82833810753E+03  0.55957581240E+03 -0.11254455155E+04  0.15081454874E+04  0.92769028776E+02 0.  0.
    5000000    2    1    2    0    0  0.82833810753E+03 -0.55957581240E+03 -0.63962035764E+03  0.13298624610E+04  0.60012569776E+03 0.  0.
         23    2    4    4    0    0  0.80109215026E+03 -0.64853358269E+03 -0.54893973968E+03  0.11715033375E+04  0.93492196672E+02 0.  0.
         23    2    4    4    0    0  0.27245957278E+02  0.88957770292E+02 -0.90680617954E+02  0.15835912354E+03  0.90547282973E+02 0.  0.
          2    1    3    3  502    0 -0.24668383170E+03  0.11699850546E+03 -0.30190440011E+03  0.40704769979E+03  0.00000000000E+00 0. -1.
         -2    1    3    3    0  502 -0.58165427583E+03  0.44257730693E+03 -0.82354111535E+03  0.11010977876E+04  0.00000000000E+00 0.  1.
         15    1    5    5    0    0  0.32981338240E+03 -0.31814010678E+03 -0.27051730058E+03  0.53213979591E+03  0.17770000000E+01 0. -1.
        -15    1    5    5    0    0  0.47127876786E+03 -0.33039347590E+03 -0.27842243910E+03  0.63936354156E+03  0.17770000000E+01 0.  1.
          1    1    6    6  503    0 -0.92247294779E+01  0.90836273425E+02 -0.51617382496E+02  0.10488411881E+03  0.00000000000E+00 0. -1.
         -1    1    6    6    0  503  0.36470686755E+02 -0.18785031330E+01 -0.39063235458E+02  0.53475004730E+02  0.00000000000E+00 0.  1.
<mgrwt>
<rscale>  0 0.10827704E+04</rscale>
<asrwt>0</asrwt>
<pdfrwt beam="1">  1        2 0.35408260E+00 0.10827704E+04</pdfrwt>
<pdfrwt beam="2">  1       -2 0.82534007E-01 0.10827704E+04</pdfrwt>
<totfact> 0.58082996E+00</totfact>
</mgrwt>
</event>
<event>
12    1  0.8033771E-008  0.3336826E+03  0.7818608E-02  0.1069519E+00
         -2   -1    0    0    0  501 -0.00000000000E+00  0.00000000000E+00  0.21829854516E+03  0.21829854516E+03  0.00000000000E+00 0.  1.
          2   -1    0    0  501    0  0.00000000000E+00 -0.00000000000E+00 -0.84647206728E+03  0.84647206728E+03  0.00000000000E+00 0. -1.
         23    2    1    2    0    0  0.44986705335E+02 -0.19796998875E+03 -0.11566037880E+03  0.24995746469E+03  0.88800286197E+02 0.  0.
    5000000    2    1    2    0    0 -0.44986705335E+02  0.19796998875E+03 -0.51251314332E+03  0.81481314776E+03  0.60002901894E+03 0.  0.
         23    2    4    4    0    0 -0.21081835654E+03  0.75110570415E+02  0.14210713028E+02  0.24247453498E+03  0.92227861885E+02 0.  0.
         23    2    4    4    0    0  0.16583165120E+03  0.12285941833E+03 -0.52672385635E+03  0.57233861278E+03  0.86826802377E+02 0.  0.
          2    1    3    3  502    0 -0.26539853960E+02 -0.66517538861E+02 -0.43772682453E+02  0.83934465826E+02  0.00000000000E+00 0. -1.
         -2    1    3    3    0  502  0.71526559295E+02 -0.13145244989E+03 -0.71887696342E+02  0.16602299886E+03  0.00000000000E+00 0.  1.
         15    1    5    5    0    0 -0.18191762707E+03  0.27618245891E+02  0.25344928905E+02  0.18574798437E+03  0.17770000000E+01 0.  1.
        -15    1    5    5    0    0 -0.28900729463E+02  0.47492324524E+02 -0.11134215877E+02  0.56726550612E+02  0.17770000000E+01 0. -1.
          1    1    6    6  503    0  0.13857051072E+03  0.10523263180E+03 -0.50267510043E+03  0.53193791915E+03  0.00000000000E+00 0. -1.
         -1    1    6    6    0  503  0.27261140484E+02  0.17626786539E+02 -0.24048755918E+02  0.40400693625E+02  0.00000000000E+00 0.  1.
<mgrwt>
<rscale>  0 0.33368265E+03</rscale>
<asrwt>0</asrwt>
<pdfrwt beam="1">  1        2 0.13022647E+00 0.33368265E+03</pdfrwt>
<pdfrwt beam="2">  1       -2 0.33584391E-01 0.33368265E+03</pdfrwt>
<totfact> 0.27413416E+02</totfact>
</mgrwt>
</event>
<event>
12    1  0.8033771E-008  0.1376892E+04  0.7818608E-02  0.8970717E-01
          1   -1    0    0  501    0  0.00000000000E+00  0.00000000000E+00  0.13389195093E+04  0.13389195093E+04  0.00000000000E+00 0. -1.
         -1   -1    0    0    0  501 -0.00000000000E+00 -0.00000000000E+00 -0.14958095345E+04  0.14958095345E+04  0.00000000000E+00 0.  1.
         23    2    1    2    0    0 -0.13132900354E+04 -0.21467036348E+03  0.15218689617E+03  0.13425159998E+04  0.91511072110E+02 0.  0.
    5000000    2    1    2    0    0  0.13132900354E+04  0.21467036348E+03 -0.30907692139E+03  0.14922130441E+04  0.60029754582E+03 0.  0.
         23    2    4    4    0    0  0.12944169528E+04  0.28858302581E+03 -0.22840690538E+03  0.13488257827E+04  0.91465113739E+02 0.  0.
         23    2    4    4    0    0  0.18873082537E+02 -0.73912662333E+02 -0.80670016003E+02  0.14338726136E+03  0.90735772111E+02 0.  0.
          4    1    3    3  502    0 -0.16432781470E+03 -0.12351737343E+02 -0.77023305701E+01  0.16497127627E+03  0.00000000000E+00 0. -1.
         -4    1    3    3    0  502 -0.11489622207E+04 -0.20231862613E+03  0.15988922674E+03  0.11775447235E+04  0.00000000000E+00 0.  1.
         15    1    5    5    0    0  0.93257451720E+03  0.24548470862E+03 -0.14768853306E+03  0.97558855714E+03  0.17770000000E+01 0. -1.
        -15    1    5    5    0    0  0.36184243565E+03  0.43098317189E+02 -0.80718372326E+02  0.37323722555E+03  0.17770000000E+01 0.  1.
          1    1    6    6  503    0  0.16720832166E+02 -0.82794023641E+02 -0.26606727041E+02  0.88557069186E+02  0.00000000000E+00 0. -1.
         -1    1    6    6    0  503  0.21522503714E+01  0.88813613079E+01 -0.54063288962E+02  0.54830192173E+02  0.00000000000E+00 0.  1.
<mgrwt>
<rscale>  0 0.13768920E+04</rscale>
<asrwt>0</asrwt>
<pdfrwt beam="1">  1        1 0.20598762E+00 0.13768920E+04</pdfrwt>
<pdfrwt beam="2">  1       -1 0.23012454E+00 0.13768920E+04</pdfrwt>
<totfact> 0.76756900E-01</totfact>
</mgrwt>
</event>
<event>
12    1  0.8033771E-008  0.8847410E+03  0.7818608E-02  0.9444859E-01
         -1   -1    0    0    0  501 -0.00000000000E+00  0.00000000000E+00  0.29296413064E+03  0.29296413064E+03  0.00000000000E+00 0.  1.
          1   -1    0    0  501    0  0.00000000000E+00 -0.00000000000E+00 -0.32659194372E+04  0.32659194372E+04  0.00000000000E+00 0. -1.
         23    2    1    2    0    0 -0.17671511132E+03 -0.83628371389E+03 -0.94290097896E+03  0.12759699545E+04  0.91860698994E+02 0.  0.
    5000000    2    1    2    0    0  0.17671511132E+03  0.83628371389E+03 -0.20300543276E+04  0.22829136134E+04  0.59997942649E+03 0.  0.
         23    2    4    4    0    0 -0.23910572454E+02  0.59309423473E+03 -0.74581139238E+03  0.95721650298E+03  0.87728637452E+02 0.  0.
         23    2    4    4    0    0  0.20062568377E+03  0.24318947916E+03 -0.12842429353E+04  0.13256971104E+04  0.93814305658E+02 0.  0.
          4    1    3    3  502    0 -0.12270569001E+03 -0.53628837156E+03 -0.66915318546E+03  0.86627241064E+03  0.00000000000E+00 0. -1.
         -4    1    3    3    0  502 -0.54009421311E+02 -0.29999534233E+03 -0.27374779350E+03  0.40969754387E+03  0.00000000000E+00 0.  1.
         15    1    5    5    0    0  0.25326251448E+02  0.35638260291E+03 -0.41810635959E+03  0.54996914853E+03  0.17770000000E+01 0. -1.
        -15    1    5    5    0    0 -0.49236823902E+02  0.23671163182E+03 -0.32770503279E+03  0.40724735445E+03  0.17770000000E+01 0.  1.
          3    1    6    6  503    0  0.10332960529E+03  0.11684640648E+03 -0.44778951451E+03  0.47417880524E+03  0.00000000000E+00 0. -1.
         -3    1    6    6    0  503  0.97296078483E+02  0.12634307268E+03 -0.83645342075E+03  0.85151830514E+03  0.00000000000E+00 0.  1.
<mgrwt>
<rscale>  0 0.88474103E+03</rscale>
<asrwt>0</asrwt>
<pdfrwt beam="1">  1        1 0.50244917E+00 0.88474103E+03</pdfrwt>
<pdfrwt beam="2">  1       -1 0.45071403E-01 0.88474103E+03</pdfrwt>
<totfact> 0.19492112E+00</totfact>
</mgrwt>
</event>
<event>
12    1  0.8033771E-008  0.5284713E+03  0.7818608E-02  0.1006604E+00
         -2   -1    0    0    0  501 -0.00000000000E+00  0.00000000000E+00  0.61386926500E+03  0.61386926500E+03  0.00000000000E+00 0.  1.
          2   -1    0    0  501    0  0.00000000000E+00 -0.00000000000E+00 -0.81294094947E+03  0.81294094947E+03  0.00000000000E+00 0. -1.
         23    2    1    2    0    0  0.48832806240E+03 -0.17290148988E+03 -0.32813511803E+03  0.62369202018E+03  0.11384137478E+03 0.  0.
    5000000    2    1    2    0    0 -0.48832806240E+03  0.17290148988E+03  0.12906343356E+03  0.80311819429E+03  0.59998520181E+03 0.  0.
         23    2    4    4    0    0 -0.17706477380E+03  0.26277893696E+02 -0.22462584497E+03  0.30117438506E+03  0.90591269826E+02 0.  0.
         23    2    4    4    0    0 -0.31126328860E+03  0.14662359618E+03  0.35368927853E+03  0.50194380923E+03  0.92022649916E+02 0.  0.
          2    1    3    3  502    0  0.36642335529E+03 -0.12535928076E+03 -0.18316622641E+03  0.42840505491E+03  0.00000000000E+00 0.  1.
         -2    1    3    3    0  502  0.12190470711E+03 -0.47542209120E+02 -0.14496889163E+03  0.19528696527E+03  0.00000000000E+00 0. -1.
         15    1    5    5    0    0 -0.16217444683E+03  0.42374029056E+02 -0.22318903278E+03  0.27912830674E+03  0.17770000000E+01 0.  1.
        -15    1    5    5    0    0 -0.14890326973E+02 -0.16096135360E+02 -0.14368121903E+01  0.22046078317E+02  0.17770000000E+01 0. -1.
          2    1    6    6  503    0 -0.25298922397E+03  0.91640806209E+02  0.31070756064E+03  0.41102405409E+03  0.00000000000E+00 0. -1.
         -2    1    6    6    0  503 -0.58274064633E+02  0.54982789976E+02  0.42981717886E+02  0.90919755140E+02  0.00000000000E+00 0.  1.
<mgrwt>
<rscale>  0 0.52847132E+03</rscale>
<asrwt>0</asrwt>
<pdfrwt beam="1">  1        2 0.12506784E+00 0.52847132E+03</pdfrwt>
<pdfrwt beam="2">  1       -2 0.94441425E-01 0.52847132E+03</pdfrwt>
<totfact> 0.33066809E+01</totfact>
</mgrwt>
</event>
<event>
12    1  0.8033771E-008  0.1006474E+04  0.7818608E-02  0.9301472E-01
         -2   -1    0    0    0  501 -0.00000000000E+00  0.00000000000E+00  0.82569030704E+03  0.82569030704E+03  0.00000000000E+00 0.  1.
          2   -1    0    0  501    0  0.00000000000E+00 -0.00000000000E+00 -0.12928019315E+04  0.12928019315E+04  0.00000000000E+00 0. -1.
         23    2    1    2    0    0  0.74678301419E+03  0.56364191566E+03 -0.34120999599E+03  0.99996635596E+03  0.90174122168E+02 0.  0.
    5000000    2    1    2    0    0 -0.74678301419E+03 -0.56364191566E+03 -0.12590162845E+03  0.11185258826E+04  0.59989319927E+03 0.  0.
         23    2    4    4    0    0 -0.80177247951E+03 -0.43294339636E+03 -0.19575917837E+03  0.93567506326E+03  0.82988401148E+02 0.  0.
         23    2    4    4    0    0  0.54989465320E+02 -0.13069851930E+03  0.69857549920E+02  0.18285081930E+03  0.91915181527E+02 0.  0.
          3    1    3    3  502    0  0.59365185215E+03  0.40991109576E+03 -0.23783475283E+03  0.75961503253E+03  0.00000000000E+00 0. -1.
         -3    1    3    3    0  502  0.15313116204E+03  0.15373081991E+03 -0.10337524316E+03  0.24035132343E+03  0.00000000000E+00 0.  1.
         15    1    5    5    0    0 -0.49408189938E+03 -0.29838997095E+03 -0.15302650867E+03  0.59713798082E+03  0.17770000000E+01 0.  1.
        -15    1    5    5    0    0 -0.30769058014E+03 -0.13455342542E+03 -0.42732669701E+02  0.33853708244E+03  0.17770000000E+01 0. -1.
          4    1    6    6  503    0 -0.19706151973E+02 -0.34389129026E+02  0.42154117413E+02  0.57861163449E+02  0.00000000000E+00 0. -1.
         -4    1    6    6    0  503  0.74695617293E+02 -0.96309390271E+02  0.27703432507E+02  0.12498965585E+03  0.00000000000E+00 0.  1.
<mgrwt>
<rscale>  0 0.10064745E+04</rscale>
<asrwt>0</asrwt>
<pdfrwt beam="1">  1        2 0.19889260E+00 0.10064745E+04</pdfrwt>
<pdfrwt beam="2">  1       -2 0.12702928E+00 0.10064745E+04</pdfrwt>
<totfact> 0.76235379E+00</totfact>
</mgrwt>
</event>
<event>
12    1  0.8033771E-008  0.6671205E+03  0.7818608E-02  0.9775174E-01
         -2   -1    0    0    0  501 -0.00000000000E+00  0.00000000000E+00  0.12656916541E+03  0.12656916541E+03  0.00000000000E+00 0. -1.
          2   -1    0    0  501    0  0.00000000000E+00 -0.00000000000E+00 -0.41466919793E+04  0.41466919793E+04  0.00000000000E+00 0.  1.
         23    2    1    2    0    0 -0.83036610335E+02 -0.54169351342E+03 -0.23632350094E+04  0.24278095545E+04  0.95145059245E+02 0.  0.
    5000000    2    1    2    0    0  0.83036610335E+02  0.54169351342E+03 -0.16568878045E+04  0.18454515902E+04  0.60007285713E+03 0.  0.
         23    2    4    4    0    0  0.31350403639E+03  0.38749640621E+03 -0.87788283179E+03  0.10137679764E+04  0.92784685835E+02 0.  0.
         23    2    4    4    0    0 -0.23046742605E+03  0.15419710722E+03 -0.77900497268E+03  0.83168361378E+03  0.89201477658E+02 0.  0.
          3    1    3    3  502    0  0.45794027752E+00 -0.13551968949E+03 -0.44082900034E+03  0.46118976949E+03  0.00000000000E+00 0. -1.
         -3    1    3    3    0  502 -0.83494550613E+02 -0.40617382393E+03 -0.19224060091E+04  0.19666197850E+04  0.00000000000E+00 0.  1.
         15    1    5    5    0    0  0.67531124250E+02  0.14943888483E+03 -0.26006368742E+03  0.30745521997E+03  0.17770000000E+01 0. -1.
        -15    1    5    5    0    0  0.24597291214E+03  0.23805752137E+03 -0.61781914437E+03  0.70631275641E+03  0.17770000000E+01 0.  1.
          3    1    6    6  503    0 -0.16976101039E+03  0.12177927876E+03 -0.67801609443E+03  0.70947502965E+03  0.00000000000E+00 0. -1.
         -3    1    6    6    0  503 -0.60706415667E+02  0.32417828456E+02 -0.10098887825E+03  0.12220858413E+03  0.00000000000E+00 0.  1.
<mgrwt>
<rscale>  0 0.66712045E+03</rscale>
<asrwt>0</asrwt>
<pdfrwt beam="1">  1        2 0.63795259E+00 0.66712045E+03</pdfrwt>
<pdfrwt beam="2">  1       -2 0.19472180E-01 0.66712045E+03</pdfrwt>
<totfact> 0.65413629E+00</totfact>
</mgrwt>
</event>
<event>
12    1  0.8033771E-008  0.9960141E+03  0.7818608E-02  0.9312927E-01
         -1   -1    0    0    0  501 -0.00000000000E+00  0.00000000000E+00  0.65842455052E+03  0.65842455052E+03  0.00000000000E+00 0.  1.
          1   -1    0    0  501    0  0.00000000000E+00 -0.00000000000E+00 -0.17243325385E+04  0.17243325385E+04  0.00000000000E+00 0. -1.
         23    2    1    2    0    0  0.97191784267E+03 -0.42757932945E+02 -0.37090702473E+03  0.10450840997E+04  0.90422456876E+02 0.  0.
    5000000    2    1    2    0    0 -0.97191784267E+03  0.42757932945E+02 -0.69500096328E+03  0.13376729893E+04  0.59990845445E+03 0.  0.
         23    2    4    4    0    0 -0.49449404614E+03  0.15977931835E+03 -0.64758222764E+03  0.83531293499E+03  0.91275218793E+02 0.  0.
         23    2    4    4    0    0 -0.47742379653E+03 -0.11702138541E+03 -0.47418735639E+02  0.50236005435E+03  0.92139033962E+02 0.  0.
          4    1    3    3  502    0  0.44471049886E+03 -0.99055247404E+01 -0.12262223122E+03  0.46141278569E+03  0.00000000000E+00 0. -1.
         -4    1    3    3    0  502  0.52720734382E+03 -0.32852408204E+02 -0.24828479351E+03  0.58367131400E+03  0.00000000000E+00 0.  1.
         15    1    5    5    0    0 -0.70632391275E+02  0.36557931381E+01 -0.51948616381E+02  0.87773093791E+02  0.17770000000E+01 0. -1.
        -15    1    5    5    0    0 -0.42386165487E+03  0.15612352522E+03 -0.59563361126E+03  0.74753984120E+03  0.17770000000E+01 0.  1.
          1    1    6    6  503    0 -0.21360492264E+03 -0.88338041861E+02 -0.52081724998E+02  0.23694551841E+03  0.00000000000E+00 0. -1.
         -1    1    6    6    0  503 -0.26381887389E+03 -0.28683343548E+02  0.46629893598E+01  0.26541453594E+03  0.00000000000E+00 0.  1.
<mgrwt>
<rscale>  0 0.99601411E+03</rscale>
<asrwt>0</asrwt>
<pdfrwt beam="1">  1        1 0.26528192E+00 0.99601411E+03</pdfrwt>
<pdfrwt beam="2">  1       -1 0.10129609E+00 0.99601411E+03</pdfrwt>
<totfact> 0.42799691E+00</totfact>
</mgrwt>
</event>
<event>
12    1  0.8033771E-008  0.1448043E+04  0.7818608E-02  0.8919759E-01
         -1   -1    0    0    0  501 -0.00000000000E+00  0.00000000000E+00  0.12659311431E+04  0.12659311431E+04  0.00000000000E+00 0.  1.
          1   -1    0    0  501    0  0.00000000000E+00 -0.00000000000E+00 -0.16849495234E+04  0.16849495234E+04  0.00000000000E+00 0. -1.
         23    2    1    2    0    0 -0.28791592438E+03  0.13604016979E+04 -0.34096540698E+03  0.14343156975E+04  0.86114760575E+02 0.  0.
    5000000    2    1    2    0    0  0.28791592438E+03 -0.13604016979E+04 -0.78052973303E+02  0.15165649691E+04  0.60024051808E+03 0.  0.
         23    2    4    4    0    0 -0.15521797698E+03 -0.20072898191E+03 -0.22770819231E+02  0.27068152338E+03  0.91461644055E+02 0.  0.
         23    2    4    4    0    0  0.44313390136E+03 -0.11596727160E+04 -0.55282154072E+02  0.12458834457E+04  0.89224329035E+02 0.  0.
          2    1    3    3  502    0 -0.17198626989E+03  0.99601093595E+03 -0.25335287538E+03  0.10420195493E+04  0.00000000000E+00 0. -1.
         -2    1    3    3    0  502 -0.11592965449E+03  0.36439076197E+03 -0.87612531609E+02  0.39229614820E+03  0.00000000000E+00 0.  1.
         15    1    5    5    0    0 -0.72097967379E+02 -0.14308997851E+03  0.18743419329E+02  0.16132988671E+03  0.17770000000E+01 0.  1.
        -15    1    5    5    0    0 -0.83120009602E+02 -0.57639003404E+02 -0.41514238560E+02  0.10935163667E+03  0.17770000000E+01 0. -1.
          4    1    6    6  503    0  0.38996252232E+03 -0.10063825777E+04 -0.77720474147E+02  0.10820892448E+04  0.00000000000E+00 0. -1.
         -4    1    6    6    0  503  0.53171379041E+02 -0.15329013826E+03  0.22438320076E+02  0.16379420089E+03  0.00000000000E+00 0.  1.
<mgrwt>
<rscale>  0 0.14480426E+04</rscale>
<asrwt>0</asrwt>
<pdfrwt beam="1">  1        1 0.25922300E+00 0.14480426E+04</pdfrwt>
<pdfrwt beam="2">  1       -1 0.19475864E+00 0.14480426E+04</pdfrwt>
<totfact> 0.76040790E-01</totfact>
</mgrwt>
</event>
<event>
12    1  0.8033771E-008  0.6261824E+03  0.7818608E-02  0.9852527E-01
          2   -1    0    0  501    0  0.00000000000E+00  0.00000000000E+00  0.20106662940E+04  0.20106662940E+04  0.00000000000E+00 0. -1.
         -2   -1    0    0    0  501 -0.00000000000E+00 -0.00000000000E+00 -0.21037017963E+03  0.21037017963E+03  0.00000000000E+00 0.  1.
         23    2    1    2    0    0  0.44298842609E+03  0.24640966674E+03  0.68648099955E+03  0.85818906945E+03  0.90971680582E+02 0.  0.
    5000000    2    1    2    0    0 -0.44298842609E+03 -0.24640966674E+03  0.11138151148E+04  0.13628474041E+04  0.59984370259E+03 0.  0.
         23    2    4    4    0    0 -0.43455540813E+03  0.49172342649E+02  0.46951542201E+03  0.64803739924E+03  0.90837312166E+02 0.  0.
         23    2    4    4    0    0 -0.84330179577E+01 -0.29558200939E+03  0.64429969278E+03  0.71481000491E+03  0.91604633832E+02 0.  0.
          3    1    3    3  502    0  0.36971766162E+03  0.16370914361E+03  0.54823435439E+03  0.68121416628E+03  0.00000000000E+00 0. -1.
         -3    1    3    3    0  502  0.73270764468E+02  0.82700523129E+02  0.13824664517E+03  0.17697490317E+03  0.00000000000E+00 0.  1.
         15    1    5    5    0    0 -0.11639368343E+03  0.40461808470E+02  0.17751034735E+03  0.21609657247E+03  0.17770000000E+01 0.  1.
        -15    1    5    5    0    0 -0.31816172470E+03  0.87105341797E+01  0.29200507467E+03  0.43194082677E+03  0.17770000000E+01 0. -1.
          1    1    6    6  503    0 -0.11873453476E+02 -0.18967000148E+03  0.30513080645E+03  0.35947252663E+03  0.00000000000E+00 0. -1.
         -1    1    6    6    0  503  0.34404355187E+01 -0.10591200791E+03  0.33916888632E+03  0.35533747827E+03  0.00000000000E+00 0.  1.
<mgrwt>
<rscale>  0 0.62618242E+03</rscale>
<asrwt>0</asrwt>
<pdfrwt beam="1">  1        2 0.30933326E+00 0.62618242E+03</pdfrwt>
<pdfrwt beam="2">  1       -2 0.32364644E-01 0.62618242E+03</pdfrwt>
<totfact> 0.61251206E+01</totfact>
</mgrwt>
</event>
<event>
12    1  0.8033771E-008  0.8800590E+03  0.7818608E-02  0.9450858E-01
         -1   -1    0    0    0  501 -0.00000000000E+00  0.00000000000E+00  0.44025905998E+03  0.44025905998E+03  0.00000000000E+00 0.  1.
          1   -1    0    0  501    0  0.00000000000E+00 -0.00000000000E+00 -0.21446365719E+04  0.21446365719E+04  0.00000000000E+00 0. -1.
         23    2    1    2    0    0  0.29094413553E+03 -0.74834465070E+03 -0.30517679407E+03  0.86371654519E+03  0.90582495956E+02 0.  0.
    5000000    2    1    2    0    0 -0.29094413553E+03  0.74834465070E+03 -0.13992007178E+04  0.17211790867E+04  0.60002216075E+03 0.  0.
         23    2    4    4    0    0 -0.16528675176E+03 -0.20581189255E+02 -0.13661271616E+03  0.23470529953E+03  0.93167847212E+02 0.  0.
         23    2    4    4    0    0 -0.12565738377E+03  0.76892583995E+03 -0.12625880017E+04  0.14864737871E+04  0.91864750850E+02 0.  0.
          3    1    3    3  502    0  0.17314890840E+03 -0.47951658364E+03 -0.23793151402E+03  0.56260830408E+03  0.00000000000E+00 0. -1.
         -3    1    3    3    0  502  0.11779522712E+03 -0.26882806706E+03 -0.67245280058E+02  0.30110824111E+03  0.00000000000E+00 0.  1.
         15    1    5    5    0    0 -0.97886449803E+02  0.12969303233E+02 -0.28206125667E+02  0.10270687969E+03  0.17770000000E+01 0.  1.
        -15    1    5    5    0    0 -0.67400301955E+02 -0.33550492488E+02 -0.10840659049E+03  0.13199841984E+03  0.17770000000E+01 0. -1.
          4    1    6    6  503    0 -0.61513278954E+02  0.17799341010E+03 -0.34828221737E+03  0.39593691475E+03  0.00000000000E+00 0. -1.
         -4    1    6    6    0  503 -0.64144104813E+02  0.59093242985E+03 -0.91430578432E+03  0.10905368724E+04  0.00000000000E+00 0.  1.
<mgrwt>
<rscale>  0 0.88005902E+03</rscale>
<asrwt>0</asrwt>
<pdfrwt beam="1">  1        1 0.32994409E+00 0.88005902E+03</pdfrwt>
<pdfrwt beam="2">  1       -1 0.67732163E-01 0.88005902E+03</pdfrwt>
<totfact> 0.54032503E+00</totfact>
</mgrwt>
</event>
<event>
12    1  0.8033771E-008  0.1247120E+04  0.7818608E-02  0.9072583E-01
         -1   -1    0    0    0  501 -0.00000000000E+00  0.00000000000E+00  0.58541384167E+03  0.58541384167E+03  0.00000000000E+00 0.  1.
          1   -1    0    0  501    0  0.00000000000E+00 -0.00000000000E+00 -0.29463520159E+04  0.29463520159E+04  0.00000000000E+00 0. -1.
         23    2    1    2    0    0 -0.12348868575E+04 -0.31181923076E+02 -0.93344015674E+03  0.15509837862E+04  0.91226727096E+02 0.  0.
    5000000    2    1    2    0    0  0.12348868575E+04  0.31181923076E+02 -0.14274980175E+04  0.19807820714E+04  0.59985761722E+03 0.  0.
         23    2    4    4    0    0  0.68593609074E+03 -0.87920965228E+02 -0.39668255564E+03  0.80320402987E+03  0.97679306700E+02 0.  0.
         23    2    4    4    0    0  0.54895076680E+03  0.11910288830E+03 -0.10308154619E+04  0.11775780415E+04  0.92612552821E+02 0.  0.
          1    1    3    3  502    0 -0.75018174257E+03 -0.53727811095E+02 -0.60201763688E+03  0.96337145467E+03  0.00000000000E+00 0. -1.
         -1    1    3    3    0  502 -0.48470511497E+03  0.22545888019E+02 -0.33142251986E+03  0.58761233157E+03  0.00000000000E+00 0.  1.
         15    1    5    5    0    0  0.75206546115E+02  0.98787031090E+01 -0.72232705691E+02  0.10475845958E+03  0.17770000000E+01 0.  1.
        -15    1    5    5    0    0  0.61072954462E+03 -0.97799668337E+02 -0.32444984995E+03  0.69844557029E+03  0.17770000000E+01 0. -1.
          2    1    6    6  503    0  0.47107762632E+03  0.11279804021E+03 -0.94231513106E+03  0.10595259950E+04  0.00000000000E+00 0. -1.
         -2    1    6    6    0  503  0.77873140485E+02  0.63048480903E+01 -0.88500330842E+02  0.11805204648E+03  0.00000000000E+00 0.  1.
<mgrwt>
<rscale>  0 0.12471205E+04</rscale>
<asrwt>0</asrwt>
<pdfrwt beam="1">  1        1 0.45328493E+00 0.12471205E+04</pdfrwt>
<pdfrwt beam="2">  1       -1 0.90063668E-01 0.12471205E+04</pdfrwt>
<totfact> 0.78077206E-01</totfact>
</mgrwt>
</event>
<event>
12    1  0.8033771E-008  0.1364790E+04  0.7818608E-02  0.8979707E-01
          1   -1    0    0  501    0  0.00000000000E+00  0.00000000000E+00  0.14384548601E+04  0.14384548601E+04  0.00000000000E+00 0. -1.
         -1   -1    0    0    0  501 -0.00000000000E+00 -0.00000000000E+00 -0.15496386966E+04  0.15496386966E+04  0.00000000000E+00 0.  1.
         23    2    1    2    0    0 -0.79737415356E+03 -0.11032302763E+04 -0.49582962190E+03  0.14515754526E+04  0.91113650748E+02 0.  0.
    5000000    2    1    2    0    0  0.79737415356E+03  0.11032302763E+04  0.38464578539E+03  0.15365181042E+04  0.60001076730E+03 0.  0.
         23    2    4    4    0    0  0.36199537245E+03  0.54890988706E+03 -0.10619705208E+03  0.67261516981E+03  0.93758407672E+02 0.  0.
         23    2    4    4    0    0  0.43537878111E+03  0.55432038925E+03  0.49084283746E+03  0.86390293435E+03  0.92605679671E+02 0.  0.
          2    1    3    3  502    0 -0.31692697395E+03 -0.51082642775E+03 -0.20170632873E+03  0.63409130979E+03  0.00000000000E+00 0. -1.
         -2    1    3    3    0  502 -0.48044717961E+03 -0.59240384856E+03 -0.29412329317E+03  0.81748414283E+03  0.00000000000E+00 0.  1.
         15    1    5    5    0    0  0.27383143424E+03  0.39955437128E+03 -0.11870557466E+03  0.49871988248E+03  0.17770000000E+01 0.  1.
        -15    1    5    5    0    0  0.88163938203E+02  0.14935551577E+03  0.12508522584E+02  0.17389528734E+03  0.17770000000E+01 0. -1.
          3    1    6    6  503    0  0.15629524169E+02  0.46265418256E+02  0.15135930766E+02  0.51125994878E+02  0.00000000000E+00 0. -1.
         -3    1    6    6    0  503  0.41974925694E+03  0.50805497099E+03  0.47570690670E+03  0.81277693947E+03  0.00000000000E+00 0.  1.
<mgrwt>
<rscale>  0 0.13647905E+04</rscale>
<asrwt>0</asrwt>
<pdfrwt beam="1">  1        1 0.22130075E+00 0.13647905E+04</pdfrwt>
<pdfrwt beam="2">  1       -1 0.23840595E+00 0.13647905E+04</pdfrwt>
<totfact> 0.57616690E-01</totfact>
</mgrwt>
</event>
<event>
12    1  0.8033771E-008  0.5325604E+03  0.7818608E-02  0.1005613E+00
         -2   -1    0    0    0  501 -0.00000000000E+00  0.00000000000E+00  0.28771208445E+03  0.28771208445E+03  0.00000000000E+00 0.  1.
          2   -1    0    0  501    0  0.00000000000E+00 -0.00000000000E+00 -0.10824327487E+04  0.10824327487E+04  0.00000000000E+00 0. -1.
         23    2    1    2    0    0  0.20306508686E+03  0.31862488673E+03 -0.16801003887E+03  0.42396284848E+03  0.93594208083E+02 0.  0.
    5000000    2    1    2    0    0 -0.20306508686E+03 -0.31862488673E+03 -0.62671062541E+03  0.94618198469E+03  0.59978070343E+03 0.  0.
         23    2    4    4    0    0 -0.35603027612E+03 -0.34845796873E+03 -0.34875900643E+03  0.61507000810E+03  0.92183278368E+02 0.  0.
         23    2    4    4    0    0  0.15296518926E+03  0.29833082004E+02 -0.27795161898E+03  0.33111197659E+03  0.89942629733E+02 0.  0.
          4    1    3    3  502    0  0.17059968418E+02  0.80785862945E+02 -0.99714951602E+01  0.83167474952E+02  0.00000000000E+00 0. -1.
         -4    1    3    3    0  502  0.18600511844E+03  0.23783902378E+03 -0.15803854371E+03  0.34079537353E+03  0.00000000000E+00 0.  1.
         15    1    5    5    0    0 -0.30591325858E+03 -0.25982012377E+03 -0.24796129891E+03  0.47178107420E+03  0.17770000000E+01 0.  1.
        -15    1    5    5    0    0 -0.50117017539E+02 -0.88637844960E+02 -0.10079770752E+03  0.14328893390E+03  0.17770000000E+01 0. -1.
          2    1    6    6  503    0  0.27064555400E+02  0.43018428769E+02 -0.10635220351E+03  0.11787224680E+03  0.00000000000E+00 0.  1.
         -2    1    6    6    0  503  0.12590063386E+03 -0.13185346766E+02 -0.17159941547E+03  0.21323972980E+03  0.00000000000E+00 0. -1.
<mgrwt>
<rscale>  0 0.53256039E+03</rscale>
<asrwt>0</asrwt>
<pdfrwt beam="1">  1        2 0.16652811E+00 0.53256039E+03</pdfrwt>
<pdfrwt beam="2">  1       -2 0.44263398E-01 0.53256039E+03</pdfrwt>
<totfact> 0.11172341E+02</totfact>
</mgrwt>
</event>
<event>
12    1  0.8033771E-008  0.4891992E+03  0.7818608E-02  0.1016637E+00
         -2   -1    0    0    0  501 -0.00000000000E+00  0.00000000000E+00  0.62816471008E+03  0.62816471008E+03  0.00000000000E+00 0.  1.
          2   -1    0    0  501    0  0.00000000000E+00 -0.00000000000E+00 -0.61436491085E+03  0.61436491085E+03  0.00000000000E+00 0. -1.
         23    2    1    2    0    0 -0.25479053764E+03  0.39123730367E+03 -0.57463873292E+02  0.47944507877E+03  0.92631749263E+02 0.  0.
    5000000    2    1    2    0    0  0.25479053764E+03 -0.39123730367E+03  0.71263672519E+02  0.76308454216E+03  0.59936187867E+03 0.  0.
         23    2    4    4    0    0  0.12114029878E+03 -0.99868641004E+02 -0.24453575929E+03  0.30475125652E+03  0.91798002887E+02 0.  0.
         23    2    4    4    0    0  0.13365023887E+03 -0.29136866266E+03  0.31579943181E+03  0.45833328564E+03  0.87074885411E+02 0.  0.
          1    1    3    3  502    0 -0.17852916497E+03  0.29580206790E+03 -0.81396239430E+02  0.35496038358E+03  0.00000000000E+00 0. -1.
         -1    1    3    3    0  502 -0.76261372670E+02  0.95435235770E+02  0.23932366138E+02  0.12448469519E+03  0.00000000000E+00 0.  1.
         15    1    5    5    0    0  0.34838865915E+02 -0.85205413602E+02 -0.10142664071E+03  0.13698259108E+03  0.17770000000E+01 0.  1.
        -15    1    5    5    0    0  0.86301432862E+02 -0.14663227402E+02 -0.14310911858E+03  0.16776866543E+03  0.17770000000E+01 0. -1.
          3    1    6    6  503    0 -0.77762457983E+01 -0.55851288811E+02  0.68282645238E+02  0.88557078211E+02  0.00000000000E+00 0. -1.
         -3    1    6    6    0  503  0.14142648467E+03 -0.23551737385E+03  0.24751678657E+03  0.36977620743E+03  0.00000000000E+00 0.  1.
<mgrwt>
<rscale>  0 0.48919922E+03</rscale>
<asrwt>0</asrwt>
<pdfrwt beam="1">  1        2 0.94517678E-01 0.48919922E+03</pdfrwt>
<pdfrwt beam="2">  1       -2 0.96640725E-01 0.48919922E+03</pdfrwt>
<totfact> 0.44731012E+01</totfact>
</mgrwt>
</event>
<event>
12    1  0.8033771E-008  0.1698108E+04  0.7818608E-02  0.8762444E-01
          2   -1    0    0  501    0  0.00000000000E+00  0.00000000000E+00  0.12485420001E+04  0.12485420001E+04  0.00000000000E+00 0. -1.
         -2   -1    0    0    0  501 -0.00000000000E+00 -0.00000000000E+00 -0.25089981757E+04  0.25089981757E+04  0.00000000000E+00 0.  1.
         23    2    1    2    0    0  0.11577799771E+04 -0.12203412408E+04 -0.24310801183E+03  0.17021186702E+04  0.91756430017E+02 0.  0.
    5000000    2    1    2    0    0 -0.11577799771E+04  0.12203412408E+04 -0.10173481637E+04  0.20554215057E+04  0.60006088035E+03 0.  0.
         23    2    4    4    0    0 -0.10634798904E+04  0.10564094146E+04 -0.10633936402E+04  0.18401137485E+04  0.90676594784E+02 0.  0.
         23    2    4    4    0    0 -0.94300086774E+02  0.16393182620E+03  0.46045476502E+02  0.21530775714E+03  0.92038548302E+02 0.  0.
          1    1    3    3  502    0  0.87875672498E+03 -0.98055357736E+03 -0.19622712255E+03  0.13312414444E+04  0.00000000000E+00 0. -1.
         -1    1    3    3    0  502  0.27902325217E+03 -0.23978766347E+03 -0.46880889282E+02  0.37087722576E+03  0.00000000000E+00 0.  1.
         15    1    5    5    0    0 -0.58420928783E+03  0.52124100251E+03 -0.53361955576E+03  0.94749441301E+03  0.17770000000E+01 0.  1.
        -15    1    5    5    0    0 -0.47927060254E+03  0.53516841213E+03 -0.52977408448E+03  0.89261933550E+03  0.17770000000E+01 0. -1.
          2    1    6    6  503    0  0.24730899563E+01  0.85943595182E+02  0.16291240561E+02  0.87508983801E+02  0.00000000000E+00 0. -1.
         -2    1    6    6    0  503 -0.96773176731E+02  0.77988231017E+02  0.29754235941E+02  0.12779877334E+03  0.00000000000E+00 0.  1.
<mgrwt>
<rscale>  0 0.16981079E+04</rscale>
<asrwt>0</asrwt>
<pdfrwt beam="1">  1        2 0.19208339E+00 0.16981079E+04</pdfrwt>
<pdfrwt beam="2">  1       -2 0.38599971E+00 0.16981079E+04</pdfrwt>
<totfact> 0.15021705E-01</totfact>
</mgrwt>
</event>
<event>
12    1  0.8033771E-008  0.1305086E+04  0.7818608E-02  0.9025542E-01
         -2   -1    0    0    0  501 -0.00000000000E+00  0.00000000000E+00  0.65133546492E+03  0.65133546492E+03  0.00000000000E+00 0.  1.
          2   -1    0    0  501    0  0.00000000000E+00 -0.00000000000E+00 -0.29815874004E+04  0.29815874004E+04  0.00000000000E+00 0. -1.
         23    2    1    2    0    0 -0.12660276577E+04 -0.11583394929E+03 -0.16094783661E+04  0.20530654077E+04  0.91724717623E+02 0.  0.
    5000000    2    1    2    0    0  0.12660276577E+04  0.11583394929E+03 -0.72077356942E+03  0.15798574576E+04  0.60015957389E+03 0.  0.
         23    2    4    4    0    0  0.36827600892E+02 -0.10452136959E+02  0.58799320612E+02  0.11583971442E+03  0.92173531878E+02 0.  0.
         23    2    4    4    0    0  0.12292000568E+04  0.12628608624E+03 -0.77957289003E+03  0.14640177432E+04  0.93451090256E+02 0.  0.
          1    1    3    3  502    0 -0.62125662079E+03 -0.89846085207E+02 -0.74214719301E+03  0.97201572209E+03  0.00000000000E+00 0. -1.
         -1    1    3    3    0  502 -0.64477103688E+03 -0.25987864078E+02 -0.86733117306E+03  0.10810496857E+04  0.00000000000E+00 0.  1.
         15    1    5    5    0    0 -0.22138070840E+02  0.21990071403E+02  0.10457931008E+02  0.32957297687E+02  0.17770000000E+01 0.  1.
        -15    1    5    5    0    0  0.58965671732E+02 -0.32442208362E+02  0.48341389604E+02  0.82882416737E+02  0.17770000000E+01 0. -1.
          3    1    6    6  503    0  0.90750440395E+03  0.55585796664E+02 -0.55160583520E+03  0.10634486454E+04  0.00000000000E+00 0. -1.
         -3    1    6    6    0  503  0.32169565283E+03  0.70700289580E+02 -0.22796705483E+03  0.40056909777E+03  0.00000000000E+00 0.  1.
<mgrwt>
<rscale>  0 0.13050856E+04</rscale>
<asrwt>0</asrwt>
<pdfrwt beam="1">  1        2 0.45870575E+00 0.13050856E+04</pdfrwt>
<pdfrwt beam="2">  1       -2 0.10020546E+00 0.13050856E+04</pdfrwt>
<totfact> 0.14363369E+00</totfact>
</mgrwt>
</event>
<event>
12    1  0.8033771E-008  0.8239856E+03  0.7818608E-02  0.9525933E-01
         -1   -1    0    0    0  501 -0.00000000000E+00  0.00000000000E+00  0.36681921021E+03  0.36681921021E+03  0.00000000000E+00 0.  1.
          1   -1    0    0  501    0  0.00000000000E+00 -0.00000000000E+00 -0.19815743931E+04  0.19815743931E+04  0.00000000000E+00 0. -1.
         23    2    1    2    0    0  0.25027005030E+03 -0.67843569193E+03 -0.47110917751E+03  0.86816568416E+03  0.94115417714E+02 0.  0.
    5000000    2    1    2    0    0 -0.25027005030E+03  0.67843569193E+03 -0.11436460054E+04  0.14802279191E+04  0.60019865116E+03 0.  0.
         23    2    4    4    0    0  0.62760059572E+02  0.58816764797E+03 -0.67455782620E+03  0.90184796230E+03  0.91768616699E+02 0.  0.
         23    2    4    4    0    0 -0.31303010987E+03  0.90268043956E+02 -0.46908817916E+03  0.57837995684E+03  0.91342680059E+02 0.  0.
          3    1    3    3  502    0  0.13367374965E+03 -0.31794082949E+03 -0.17177467746E+03  0.38530712713E+03  0.00000000000E+00 0.  1.
         -3    1    3    3    0  502  0.11659630065E+03 -0.36049486244E+03 -0.29933450006E+03  0.48285855703E+03  0.00000000000E+00 0. -1.
         15    1    5    5    0    0 -0.15086371786E+02  0.28319561383E+03 -0.30740164642E+03  0.41824189682E+03  0.17770000000E+01 0. -1.
        -15    1    5    5    0    0  0.77846431359E+02  0.30497203415E+03 -0.36715617978E+03  0.48360606548E+03  0.17770000000E+01 0.  1.
          1    1    6    6  503    0 -0.25462241342E+03  0.71169153586E+02 -0.30765680043E+03  0.40564803548E+03  0.00000000000E+00 0. -1.
         -1    1    6    6    0  503 -0.58407696457E+02  0.19098890370E+02 -0.16143137874E+03  0.17273192137E+03  0.00000000000E+00 0.  1.
<mgrwt>
<rscale>  0 0.82398561E+03</rscale>
<asrwt>0</asrwt>
<pdfrwt beam="1">  1        1 0.30485760E+00 0.82398561E+03</pdfrwt>
<pdfrwt beam="2">  1       -1 0.56433725E-01 0.82398561E+03</pdfrwt>
<totfact> 0.10077538E+01</totfact>
</mgrwt>
</event>
<event>
12    1  0.8033771E-008  0.5732547E+03  0.7818608E-02  0.9962502E-01
          1   -1    0    0  501    0  0.00000000000E+00  0.00000000000E+00  0.39849068241E+03  0.39849068241E+03  0.00000000000E+00 0. -1.
         -1   -1    0    0    0  501 -0.00000000000E+00 -0.00000000000E+00 -0.90368954450E+03  0.90368954450E+03  0.00000000000E+00 0.  1.
         23    2    1    2    0    0 -0.13744941575E+03  0.40644396535E+03 -0.65828651356E+02  0.44364111348E+03  0.91624163673E+02 0.  0.
    5000000    2    1    2    0    0  0.13744941575E+03 -0.40644396535E+03 -0.43937021074E+03  0.85853911343E+03  0.59996182241E+03 0.  0.
         23    2    4    4    0    0  0.26540224684E+03  0.84089438930E+01 -0.25245975161E+03  0.37715269587E+03  0.89438061526E+02 0.  0.
         23    2    4    4    0    0 -0.12795283109E+03 -0.41485290924E+03 -0.18691045913E+03  0.48138641756E+03  0.91227736980E+02 0.  0.
          4    1    3    3  502    0 -0.40083128647E+02  0.70986012427E+02  0.20020932120E+02  0.83943486259E+02  0.00000000000E+00 0. -1.
         -4    1    3    3    0  502 -0.97366287108E+02  0.33545795292E+03 -0.85849583476E+02  0.35969762722E+03  0.00000000000E+00 0.  1.
         15    1    5    5    0    0  0.11455797824E+03  0.36394719916E+02 -0.15186954246E+03  0.19368949809E+03  0.17770000000E+01 0.  1.
        -15    1    5    5    0    0  0.15084426861E+03 -0.27985776023E+02 -0.10059020915E+03  0.18346319777E+03  0.17770000000E+01 0. -1.
          3    1    6    6  503    0 -0.35268402340E+02 -0.25369349479E+03 -0.12820234568E+03  0.28642641453E+03  0.00000000000E+00 0. -1.
         -3    1    6    6    0  503 -0.92684428750E+02 -0.16115941445E+03 -0.58708113450E+02  0.19496000303E+03  0.00000000000E+00 0.  1.
<mgrwt>
<rscale>  0 0.57325472E+03</rscale>
<asrwt>0</asrwt>
<pdfrwt beam="1">  1        1 0.61306259E-01 0.57325472E+03</pdfrwt>
<pdfrwt beam="2">  1       -1 0.13902916E+00 0.57325472E+03</pdfrwt>
<totfact> 0.26882208E+01</totfact>
</mgrwt>
</event>
<event>
12    1  0.8033771E-008  0.4666241E+03  0.7818608E-02  0.1022877E+00
         -2   -1    0    0    0  501 -0.00000000000E+00  0.00000000000E+00  0.16043314383E+03  0.16043314383E+03  0.00000000000E+00 0.  1.
          2   -1    0    0  501    0  0.00000000000E+00 -0.00000000000E+00 -0.15432432734E+04  0.15432432734E+04  0.00000000000E+00 0. -1.
         23    2    1    2    0    0  0.29975671609E+03 -0.53125448810E+02 -0.36841657510E+03  0.48651150037E+03  0.91028924146E+02 0.  0.
    5000000    2    1    2    0    0 -0.29975671609E+03  0.53125448810E+02 -0.10143935545E+04  0.12171649169E+04  0.59984977231E+03 0.  0.
         23    2    4    4    0    0 -0.28070667785E+03 -0.21242006903E+03 -0.39317646642E+03  0.53540587627E+03  0.90295037952E+02 0.  0.
         23    2    4    4    0    0 -0.19050038238E+02  0.26554551784E+03 -0.62121708805E+03  0.68175904059E+03  0.89484037361E+02 0.  0.
          3    1    3    3  502    0  0.23005713154E+03 -0.40958581003E+02 -0.33453055132E+03  0.40806197923E+03  0.00000000000E+00 0. -1.
         -3    1    3    3    0  502  0.69699584551E+02 -0.12166867808E+02 -0.33886023779E+02  0.78449521135E+02  0.00000000000E+00 0.  1.
         15    1    5    5    0    0 -0.22131134340E+03 -0.16597598686E+03 -0.35733096581E+03  0.45190188735E+03  0.17770000000E+01 0.  1.
        -15    1    5    5    0    0 -0.59395334450E+02 -0.46444082166E+02 -0.35845500613E+02  0.83503988922E+02  0.17770000000E+01 0. -1.
          4    1    6    6  503    0  0.29178534059E+02  0.84243123056E+02 -0.14894491667E+03  0.17358824509E+03  0.00000000000E+00 0. -1.
         -4    1    6    6    0  503 -0.48228572297E+02  0.18130239478E+03 -0.47227217138E+03  0.50817079550E+03  0.00000000000E+00 0.  1.
<mgrwt>
<rscale>  0 0.46662412E+03</rscale>
<asrwt>0</asrwt>
<pdfrwt beam="1">  1        2 0.23742204E+00 0.46662412E+03</pdfrwt>
<pdfrwt beam="2">  1       -2 0.24682022E-01 0.46662412E+03</pdfrwt>
<totfact> 0.18391528E+02</totfact>
</mgrwt>
</event>
<event>
12    1  0.8033771E-008  0.7753762E+03  0.7818608E-02  0.9596359E-01
          2   -1    0    0  501    0  0.00000000000E+00  0.00000000000E+00  0.15308729691E+04  0.15308729691E+04  0.00000000000E+00 0. -1.
         -2   -1    0    0    0  501 -0.00000000000E+00 -0.00000000000E+00 -0.50648814041E+03  0.50648814041E+03  0.00000000000E+00 0.  1.
         23    2    1    2    0    0 -0.28637197430E+03 -0.60180957602E+03  0.91261204254E+03  0.11336691021E+04  0.90339467561E+02 0.  0.
    5000000    2    1    2    0    0  0.28637197430E+03  0.60180957602E+03  0.11177278616E+03  0.90369200742E+03  0.59998534575E+03 0.  0.
         23    2    4    4    0    0  0.94592237758E+00 -0.93175213538E+02  0.69501329892E+02  0.14579674088E+03  0.87998520488E+02 0.  0.
         23    2    4    4    0    0  0.28542605192E+03  0.69498478955E+03  0.42271456271E+02  0.75789526654E+03  0.90257798592E+02 0.  0.
          2    1    3    3  502    0 -0.14031270170E+03 -0.19970616753E+03  0.30713711415E+03  0.39230525678E+03  0.00000000000E+00 0. -1.
         -2    1    3    3    0  502 -0.14605927260E+03 -0.40210340849E+03  0.60547492839E+03  0.74136384531E+03  0.00000000000E+00 0.  1.
         15    1    5    5    0    0 -0.41300006738E+02 -0.36912732263E+02  0.16925648044E+02  0.57947179831E+02  0.17770000000E+01 0. -1.
        -15    1    5    5    0    0  0.42245929115E+02 -0.56262481276E+02  0.52575681848E+02  0.87849561051E+02  0.17770000000E+01 0.  1.
          3    1    6    6  503    0  0.21739976194E+02  0.99039965055E+02 -0.19651506721E+02  0.10328466953E+03  0.00000000000E+00 0. -1.
         -3    1    6    6    0  503  0.26368607573E+03  0.59594482450E+03  0.61922962992E+02  0.65461059701E+03  0.00000000000E+00 0.  1.
<mgrwt>
<rscale>  0 0.77537616E+03</rscale>
<asrwt>0</asrwt>
<pdfrwt beam="1">  1        2 0.23551892E+00 0.77537616E+03</pdfrwt>
<pdfrwt beam="2">  1       -2 0.77921253E-01 0.77537616E+03</pdfrwt>
<totfact> 0.18266640E+01</totfact>
</mgrwt>
</event>
<event>
12    1  0.8033771E-008  0.4750467E+03  0.7818608E-02  0.1020505E+00
         -2   -1    0    0    0  501 -0.00000000000E+00  0.00000000000E+00  0.14396669907E+03  0.14396669907E+03  0.00000000000E+00 0.  1.
          2   -1    0    0  501    0  0.00000000000E+00 -0.00000000000E+00 -0.30355225714E+04  0.30355225714E+04  0.00000000000E+00 0. -1.
         23    2    1    2    0    0 -0.31444487605E+03 -0.33110043910E+03 -0.55783935236E+03  0.72698167757E+03  0.93885758412E+02 0.  0.
    5000000    2    1    2    0    0  0.31444487605E+03  0.33110043910E+03 -0.23337165200E+04  0.24525075929E+04  0.60004801208E+03 0.  0.
         23    2    4    4    0    0  0.18401555555E+03  0.25687308286E+03 -0.22186437799E+04  0.22430251375E+04  0.94530629830E+02 0.  0.
         23    2    4    4    0    0  0.13042932050E+03  0.74227356243E+02 -0.11507274004E+03  0.20948245538E+03  0.90109131326E+02 0.  0.
          4    1    3    3  502    0 -0.24756080151E+03 -0.30207041681E+03 -0.49649346883E+03  0.63169506231E+03  0.00000000000E+00 0. -1.
         -4    1    3    3    0  502 -0.66884074540E+02 -0.29030022285E+02 -0.61345883530E+02  0.95286615256E+02  0.00000000000E+00 0.  1.
         15    1    5    5    0    0  0.14079923274E+03  0.14624304236E+03 -0.16234222631E+04  0.16360667632E+04  0.17770000000E+01 0.  1.
        -15    1    5    5    0    0  0.43216322816E+02  0.11063004050E+03 -0.59522151681E+03  0.60695837438E+03  0.17770000000E+01 0. -1.
          1    1    6    6  503    0  0.67964541109E+02  0.76489406850E+02 -0.35521433116E+02  0.10831242043E+03  0.00000000000E+00 0. -1.
         -1    1    6    6    0  503  0.62464779390E+02 -0.22620506071E+01 -0.79551306929E+02  0.10117003495E+03  0.00000000000E+00 0.  1.
<mgrwt>
<rscale>  0 0.47504669E+03</rscale>
<asrwt>0</asrwt>
<pdfrwt beam="1">  1        2 0.46700352E+00 0.47504669E+03</pdfrwt>
<pdfrwt beam="2">  1       -2 0.22148721E-01 0.47504669E+03</pdfrwt>
<totfact> 0.32913582E+01</totfact>
</mgrwt>
</event>
<event>
12    1  0.8033771E-008  0.6620252E+03  0.7818608E-02  0.9784473E-01
          2   -1    0    0  501    0  0.00000000000E+00  0.00000000000E+00  0.14291185758E+04  0.14291185758E+04  0.00000000000E+00 0. -1.
         -2   -1    0    0    0  501 -0.00000000000E+00 -0.00000000000E+00 -0.37452533756E+03  0.37452533756E+03  0.00000000000E+00 0.  1.
         23    2    1    2    0    0 -0.57767867404E+03 -0.48478164527E+01  0.22266758973E+03  0.62649007737E+03  0.95774786678E+02 0.  0.
    5000000    2    1    2    0    0  0.57767867404E+03  0.48478164527E+01  0.83192564853E+03  0.11771538360E+04  0.59987891877E+03 0.  0.
         23    2    4    4    0    0 -0.49333815890E+01 -0.11618733193E+03 -0.32158239491E+01  0.14760027337E+03  0.90838674700E+02 0.  0.
         23    2    4    4    0    0  0.58261205563E+03  0.12103514838E+03  0.83514147248E+03  0.10295535626E+04  0.91831066472E+02 0.  0.
          3    1    3    3  502    0 -0.42912179885E+03 -0.17516002470E+02  0.20642498030E+03  0.47651191075E+03  0.00000000000E+00 0. -1.
         -3    1    3    3    0  502 -0.14855687518E+03  0.12668186017E+02  0.16242609429E+02  0.14997816662E+03  0.00000000000E+00 0.  1.
         15    1    5    5    0    0  0.32971180193E+02 -0.96841424316E+01  0.14785927591E+01  0.34441621674E+02  0.17770000000E+01 0. -1.
        -15    1    5    5    0    0 -0.37904561782E+02 -0.10650318950E+03 -0.46944167082E+01  0.11315865170E+03  0.17770000000E+01 0.  1.
          3    1    6    6  503    0  0.30755590400E+03  0.33602726628E+02  0.37200016365E+03  0.48384284543E+03  0.00000000000E+00 0. -1.
         -3    1    6    6    0  503  0.27505615163E+03  0.87432421755E+02  0.46314130883E+03  0.54571071720E+03  0.00000000000E+00 0.  1.
<mgrwt>
<rscale>  0 0.66202517E+03</rscale>
<asrwt>0</asrwt>
<pdfrwt beam="1">  1        2 0.21986439E+00 0.66202517E+03</pdfrwt>
<pdfrwt beam="2">  1       -2 0.57619284E-01 0.66202517E+03</pdfrwt>
<totfact> 0.40526471E+01</totfact>
</mgrwt>
</event>
<event>
12    1  0.8033771E-008  0.1099579E+04  0.7818608E-02  0.9205603E-01
         -2   -1    0    0    0  501 -0.00000000000E+00  0.00000000000E+00  0.53145302530E+03  0.53145302530E+03  0.00000000000E+00 0.  1.
          2   -1    0    0  501    0  0.00000000000E+00 -0.00000000000E+00 -0.25775503284E+04  0.25775503284E+04  0.00000000000E+00 0. -1.
         23    2    1    2    0    0  0.91662742412E+03 -0.59160736735E+03 -0.91649785690E+03  0.14278628599E+04  0.92838102566E+02 0.  0.
    5000000    2    1    2    0    0 -0.91662742412E+03  0.59160736735E+03 -0.11295994462E+04  0.16811404938E+04  0.60002778202E+03 0.  0.
         23    2    4    4    0    0 -0.58594786979E+03  0.39486129827E+03 -0.10628372955E+04  0.12795221680E+04  0.91123601391E+02 0.  0.
         23    2    4    4    0    0 -0.33067955433E+03  0.19674606908E+03 -0.66762150664E+02  0.40161832574E+03  0.93712920457E+02 0.  0.
          2    1    3    3  502    0  0.61104645914E+03 -0.34182193604E+03 -0.59389071099E+03  0.91811011746E+03  0.00000000000E+00 0.  1.
         -2    1    3    3    0  502  0.30558096498E+03 -0.24978543131E+03 -0.32260714591E+03  0.50975274246E+03  0.00000000000E+00 0. -1.
         15    1    5    5    0    0 -0.22953877606E+03  0.18386852919E+03 -0.51023099655E+03  0.58892657718E+03  0.17770000000E+01 0.  1.
        -15    1    5    5    0    0 -0.35640909374E+03  0.21099276908E+03 -0.55260629897E+03  0.69059559084E+03  0.17770000000E+01 0. -1.
          1    1    6    6  503    0 -0.88802901992E+02  0.10455672339E+03 -0.23690205233E+02  0.13920951704E+03  0.00000000000E+00 0. -1.
         -1    1    6    6    0  503 -0.24187665233E+03  0.92189345684E+02 -0.43071945431E+02  0.26240880870E+03  0.00000000000E+00 0.  1.
<mgrwt>
<rscale>  0 0.10995786E+04</rscale>
<asrwt>0</asrwt>
<pdfrwt beam="1">  1        2 0.39654621E+00 0.10995786E+04</pdfrwt>
<pdfrwt beam="2">  1       -2 0.81762003E-01 0.10995786E+04</pdfrwt>
<totfact> 0.41227693E+00</totfact>
</mgrwt>
</event>
<event>
12    1  0.8033771E-008  0.7454841E+03  0.7818608E-02  0.9642462E-01
         -1   -1    0    0    0  501 -0.00000000000E+00  0.00000000000E+00  0.69547017193E+03  0.69547017193E+03  0.00000000000E+00 0.  1.
          1   -1    0    0  501    0  0.00000000000E+00 -0.00000000000E+00 -0.13218433939E+04  0.13218433939E+04  0.00000000000E+00 0. -1.
         23    2    1    2    0    0 -0.14468981517E+02 -0.69478319428E+03  0.25381333947E+03  0.74535131957E+03  0.90522592792E+02 0.  0.
    5000000    2    1    2    0    0  0.14468981517E+02  0.69478319428E+03 -0.88018656143E+03  0.12719622463E+04  0.60018874907E+03 0.  0.
         23    2    4    4    0    0  0.11698266427E+03  0.63777201567E+03 -0.39594801363E+03  0.76477590290E+03  0.87574336717E+02 0.  0.
         23    2    4    4    0    0 -0.10251368275E+03  0.57011178612E+02 -0.48423854781E+03  0.50718634337E+03  0.94824501465E+02 0.  0.
          3    1    3    3  502    0 -0.37163087749E+02 -0.40791786572E+03  0.11256584996E+03  0.42479306827E+03  0.00000000000E+00 0. -1.
         -3    1    3    3    0  502  0.22694106232E+02 -0.28686532855E+03  0.14124748951E+03  0.32055825130E+03  0.00000000000E+00 0.  1.
         15    1    5    5    0    0  0.54965425675E+02  0.40717618196E+03 -0.20586253217E+03  0.45956085675E+03  0.17770000000E+01 0.  1.
        -15    1    5    5    0    0  0.62017238591E+02  0.23059583370E+03 -0.19008548146E+03  0.30521504615E+03  0.17770000000E+01 0. -1.
          4    1    6    6  503    0 -0.10967903056E+03  0.69275978348E+02 -0.37029554449E+03  0.39236136557E+03  0.00000000000E+00 0.  1.
         -4    1    6    6    0  503  0.71653478103E+01 -0.12264799736E+02 -0.11394300331E+03  0.11482497780E+03  0.00000000000E+00 0. -1.
<mgrwt>
<rscale>  0 0.74548413E+03</rscale>
<asrwt>0</asrwt>
<pdfrwt beam="1">  1        1 0.20336052E+00 0.74548413E+03</pdfrwt>
<pdfrwt beam="2">  1       -1 0.10699541E+00 0.74548413E+03</pdfrwt>
<totfact> 0.73817547E+00</totfact>
</mgrwt>
</event>
<event>
12    1  0.8033771E-008  0.1707579E+04  0.7818608E-02  0.8757053E-01
          1   -1    0    0  501    0  0.00000000000E+00  0.00000000000E+00  0.19240686928E+04  0.19240686928E+04  0.00000000000E+00 0. -1.
         -1   -1    0    0    0  501 -0.00000000000E+00 -0.00000000000E+00 -0.16938472344E+04  0.16938472344E+04  0.00000000000E+00 0.  1.
         23    2    1    2    0    0  0.11536735034E+03 -0.16957650642E+04  0.54671376443E+03  0.17878361733E+04  0.92376749264E+02 0.  0.
    5000000    2    1    2    0    0 -0.11536735034E+03  0.16957650642E+04 -0.31649230603E+03  0.18300797538E+04  0.60007978386E+03 0.  0.
         23    2    4    4    0    0  0.40565673037E+02  0.66217227313E+03 -0.39544427785E+03  0.77782490230E+03  0.92291433104E+02 0.  0.
         23    2    4    4    0    0 -0.15593302337E+03  0.10335927911E+04  0.78951971817E+02  0.10522548515E+04  0.91529738961E+02 0.  0.
          4    1    3    3  502    0  0.84907105527E+02 -0.10406334888E+04  0.29076463985E+03  0.10838225640E+04  0.00000000000E+00 0. -1.
         -4    1    3    3    0  502  0.30460244811E+02 -0.65513157544E+03  0.25594912459E+03  0.70401360927E+03  0.00000000000E+00 0.  1.
         15    1    5    5    0    0  0.41967183386E+02  0.11189215539E+03 -0.71069991140E+02  0.13905107079E+03  0.17770000000E+01 0. -1.
        -15    1    5    5    0    0 -0.14015103493E+01  0.55028011774E+03 -0.32437428671E+03  0.63877383151E+03  0.17770000000E+01 0.  1.
          2    1    6    6  503    0 -0.67862011306E+02  0.50650871970E+03 -0.64918000124E+01  0.51107580571E+03  0.00000000000E+00 0.  1.
         -2    1    6    6    0  503 -0.88071012069E+02  0.52708407139E+03  0.85443771829E+02  0.54117904581E+03  0.00000000000E+00 0. -1.
<mgrwt>
<rscale>  0 0.17075792E+04</rscale>
<asrwt>0</asrwt>
<pdfrwt beam="1">  1        1 0.29601057E+00 0.17075792E+04</pdfrwt>
<pdfrwt beam="2">  1       -1 0.26059188E+00 0.17075792E+04</pdfrwt>
<totfact> 0.18392538E-01</totfact>
</mgrwt>
</event>
<event>
12    1  0.8033771E-008  0.1219094E+04  0.7818608E-02  0.9096306E-01
         -2   -1    0    0    0  501 -0.00000000000E+00  0.00000000000E+00  0.19301470535E+04  0.19301470535E+04  0.00000000000E+00 0.  1.
          2   -1    0    0  501    0  0.00000000000E+00 -0.00000000000E+00 -0.95091593324E+03  0.95091593324E+03  0.00000000000E+00 0. -1.
         23    2    1    2    0    0  0.11748926869E+04  0.10259179364E+03 -0.80373160661E+02  0.11858936503E+04  0.94794530948E+02 0.  0.
    5000000    2    1    2    0    0 -0.11748926869E+04 -0.10259179364E+03  0.10596042809E+04  0.16951693364E+04  0.59994995220E+03 0.  0.
         23    2    4    4    0    0 -0.10387464567E+04 -0.21525651045E+03  0.10512212010E+04  0.14964875043E+04  0.95285207016E+02 0.  0.
         23    2    4    4    0    0 -0.13614623023E+03  0.11266471681E+03  0.83830799175E+01  0.19868183208E+03  0.90416038124E+02 0.  0.
          1    1    3    3  502    0  0.95075199807E+03  0.62032185345E+02 -0.33634353470E+02  0.95336699313E+03  0.00000000000E+00 0. -1.
         -1    1    3    3    0  502  0.22414068882E+03  0.40559608295E+02 -0.46738807191E+02  0.23252665720E+03  0.00000000000E+00 0.  1.
         15    1    5    5    0    0 -0.37785250808E+03 -0.46565623562E+02  0.42419768737E+03  0.56998921995E+03  0.17770000000E+01 0. -1.
        -15    1    5    5    0    0 -0.66089394858E+03 -0.16869088689E+03  0.62702351362E+03  0.92649828437E+03  0.17770000000E+01 0.  1.
          1    1    6    6  503    0 -0.63023078577E+02  0.30881540779E+01  0.20614056693E+02  0.66380603057E+02  0.00000000000E+00 0. -1.
         -1    1    6    6    0  503 -0.73123151651E+02  0.10957656273E+03 -0.12230976776E+02  0.13230122902E+03  0.00000000000E+00 0.  1.
<mgrwt>
<rscale>  0 0.12190942E+04</rscale>
<asrwt>0</asrwt>
<pdfrwt beam="1">  1        2 0.14629476E+00 0.12190942E+04</pdfrwt>
<pdfrwt beam="2">  1       -2 0.29694570E+00 0.12190942E+04</pdfrwt>
<totfact> 0.87827680E-01</totfact>
</mgrwt>
</event>
<event>
12    1  0.8033771E-008  0.1330445E+04  0.7818608E-02  0.9005765E-01
          2   -1    0    0  501    0  0.00000000000E+00  0.00000000000E+00  0.19223990146E+04  0.19223990146E+04  0.00000000000E+00 0. -1.
         -2   -1    0    0    0  501 -0.00000000000E+00 -0.00000000000E+00 -0.11970203281E+04  0.11970203281E+04  0.00000000000E+00 0.  1.
         23    2    1    2    0    0  0.17552786918E+03  0.13029088263E+04 -0.29494913733E+03  0.13503955034E+04  0.90507345496E+02 0.  0.
    5000000    2    1    2    0    0 -0.17552786918E+03 -0.13029088263E+04  0.10203278239E+04  0.17690238393E+04  0.59999586110E+03 0.  0.
         23    2    4    4    0    0  0.27028113115E+02 -0.77854573499E+03  0.88676037519E+03  0.11842030730E+04  0.95545668242E+02 0.  0.
         23    2    4    4    0    0 -0.20255598230E+03 -0.52436309128E+03  0.13356744869E+03  0.58482076629E+03  0.90495789250E+02 0.  0.
          1    1    3    3  502    0  0.47567935311E+02  0.42110176745E+03 -0.52951492415E+02  0.42707524813E+03  0.00000000000E+00 0. -1.
         -1    1    3    3    0  502  0.12795993387E+03  0.88180705882E+03 -0.24199764492E+03  0.92332025528E+03  0.00000000000E+00 0.  1.
         15    1    5    5    0    0  0.10769162193E+02 -0.46025145992E+03  0.45241465486E+03  0.64546848016E+03  0.17770000000E+01 0.  1.
        -15    1    5    5    0    0  0.16258950922E+02 -0.31829427507E+03  0.43434572032E+03  0.53873459284E+03  0.17770000000E+01 0. -1.
          4    1    6    6  503    0 -0.10155065701E+03 -0.16556222407E+03  0.20507218920E+02  0.19530471578E+03  0.00000000000E+00 0. -1.
         -4    1    6    6    0  503 -0.10100532528E+03 -0.35880086721E+03  0.11306022977E+03  0.38951605050E+03  0.00000000000E+00 0.  1.
<mgrwt>
<rscale>  0 0.13304449E+04</rscale>
<asrwt>0</asrwt>
<pdfrwt beam="1">  1        2 0.29575370E+00 0.13304449E+04</pdfrwt>
<pdfrwt beam="2">  1       -2 0.18415697E+00 0.13304449E+04</pdfrwt>
<totfact> 0.11990002E+00</totfact>
</mgrwt>
</event>
<event>
12    1  0.8033771E-008  0.1013550E+04  0.7818608E-02  0.9293807E-01
          2   -1    0    0  501    0  0.00000000000E+00  0.00000000000E+00  0.36424348415E+04  0.36424348415E+04  0.00000000000E+00 0. -1.
         -2   -1    0    0    0  501 -0.00000000000E+00 -0.00000000000E+00 -0.70634451003E+03  0.70634451003E+03  0.00000000000E+00 0.  1.
         23    2    1    2    0    0  0.68207888972E+03  0.69411619040E+03 -0.21162514782E+03  0.99990735327E+03  0.89446153416E+02 0.  0.
    5000000    2    1    2    0    0 -0.68207888972E+03 -0.69411619040E+03  0.31477154793E+04  0.33488719983E+04  0.59983499783E+03 0.  0.
         23    2    4    4    0    0 -0.41431946962E+03 -0.16672074239E+03  0.75497804781E+03  0.88201814477E+03  0.92237336195E+02 0.  0.
         23    2    4    4    0    0 -0.26775942010E+03 -0.52739544801E+03  0.23927374315E+04  0.24668538535E+04  0.10165851088E+03 0.  0.
          1    1    3    3  502    0  0.19740880133E+03  0.21010626876E+03 -0.10433400428E+03  0.30659495016E+03  0.00000000000E+00 0.  1.
         -1    1    3    3    0  502  0.48467008839E+03  0.48400992164E+03 -0.10729114354E+03  0.69331240311E+03  0.00000000000E+00 0. -1.
         15    1    5    5    0    0 -0.33853389919E+03 -0.94955663334E+02  0.57722688789E+03  0.67588151087E+03  0.17770000000E+01 0. -1.
        -15    1    5    5    0    0 -0.75785570431E+02 -0.71765079053E+02  0.17775115991E+03  0.20613663390E+03  0.17770000000E+01 0.  1.
          3    1    6    6  503    0 -0.19789889599E+03 -0.29537180589E+03  0.15270214678E+04  0.15678657595E+04  0.00000000000E+00 0. -1.
         -3    1    6    6    0  503 -0.69860524112E+02 -0.23202364212E+03  0.86571596372E+03  0.89898809401E+03  0.00000000000E+00 0.  1.
<mgrwt>
<rscale>  0 0.10135503E+04</rscale>
<asrwt>0</asrwt>
<pdfrwt beam="1">  1        2 0.56037458E+00 0.10135503E+04</pdfrwt>
<pdfrwt beam="2">  1       -2 0.10866839E+00 0.10135503E+04</pdfrwt>
<totfact> 0.45044392E-01</totfact>
</mgrwt>
</event>
<event>
12    1  0.8033771E-008  0.9877832E+03  0.7818608E-02  0.9322046E-01
          2   -1    0    0  501    0  0.00000000000E+00  0.00000000000E+00  0.17055519648E+04  0.17055519648E+04  0.00000000000E+00 0. -1.
         -2   -1    0    0    0  501 -0.00000000000E+00 -0.00000000000E+00 -0.13514410400E+04  0.13514410400E+04  0.00000000000E+00 0.  1.
         23    2    1    2    0    0  0.52965435997E+03  0.75801754205E+03  0.13044918184E+04  0.16015562820E+04  0.90328761932E+02 0.  0.
    5000000    2    1    2    0    0 -0.52965435997E+03 -0.75801754205E+03 -0.95038089353E+03  0.14554367228E+04  0.59995656194E+03 0.  0.
         23    2    4    4    0    0 -0.62390543269E+03 -0.66405746855E+03 -0.68053513429E+03  0.11410771570E+04  0.93266814930E+02 0.  0.
         23    2    4    4    0    0  0.94251072716E+02 -0.93960073500E+02 -0.26984575924E+03  0.31435956580E+03  0.91068340876E+02 0.  0.
          2    1    3    3  502    0  0.25494561816E+03  0.29923424685E+03  0.59443593981E+03  0.71266576265E+03  0.00000000000E+00 0.  1.
         -2    1    3    3    0  502  0.27470874181E+03  0.45878329519E+03  0.71005587854E+03  0.88889051937E+03  0.00000000000E+00 0. -1.
         15    1    5    5    0    0 -0.46339646434E+02 -0.36246307971E+02 -0.19975268474E+02  0.62155665492E+02  0.17770000000E+01 0.  1.
        -15    1    5    5    0    0 -0.57756578625E+03 -0.62781116057E+03 -0.66055986582E+03  0.10789214915E+04  0.17770000000E+01 0. -1.
          2    1    6    6  503    0  0.46465079083E+02 -0.27724369547E+02 -0.31955879320E+02  0.62839656779E+02  0.00000000000E+00 0.  1.
         -2    1    6    6    0  503  0.47785993633E+02 -0.66235703953E+02 -0.23788987992E+03  0.25151990902E+03  0.00000000000E+00 0. -1.
<mgrwt>
<rscale>  0 0.98778320E+03</rscale>
<asrwt>0</asrwt>
<pdfrwt beam="1">  1        2 0.26239261E+00 0.98778320E+03</pdfrwt>
<pdfrwt beam="2">  1       -2 0.20791401E+00 0.98778320E+03</pdfrwt>
<totfact> 0.11472718E+00</totfact>
</mgrwt>
</event>
<event>
12    1  0.8033771E-008  0.8130693E+03  0.7818608E-02  0.9541290E-01
          2   -1    0    0  501    0  0.00000000000E+00  0.00000000000E+00  0.83068501004E+03  0.83068501004E+03  0.00000000000E+00 0. -1.
         -2   -1    0    0    0  501 -0.00000000000E+00 -0.00000000000E+00 -0.10581146935E+04  0.10581146935E+04  0.00000000000E+00 0.  1.
         23    2    1    2    0    0 -0.69567526659E+03  0.37790355206E+03 -0.38168775353E+03  0.88353260835E+03  0.90383392361E+02 0.  0.
    5000000    2    1    2    0    0  0.69567526659E+03 -0.37790355206E+03  0.15425807006E+03  0.10052670952E+04  0.59999267437E+03 0.  0.
         23    2    4    4    0    0  0.61507897376E+03 -0.33348957925E+03  0.33410356056E+03  0.78070146779E+03  0.91280606948E+02 0.  0.
         23    2    4    4    0    0  0.80596292833E+02 -0.44413972805E+02 -0.17984549050E+03  0.22456562740E+03  0.98066085677E+02 0.  0.
          4    1    3    3  502    0 -0.29510778791E+03  0.16137104948E+03 -0.11299098401E+03  0.35481852342E+03  0.00000000000E+00 0. -1.
         -4    1    3    3    0  502 -0.40056747868E+03  0.21653250258E+03 -0.26869676952E+03  0.52871408492E+03  0.00000000000E+00 0.  1.
         15    1    5    5    0    0  0.16995603645E+03 -0.11873914299E+03  0.61395915583E+02  0.21623287119E+03  0.17770000000E+01 0. -1.
        -15    1    5    5    0    0  0.44512293731E+03 -0.21475043626E+03  0.27270764497E+03  0.56446859660E+03  0.17770000000E+01 0.  1.
          1    1    6    6  503    0 -0.22221840749E+02 -0.50112368756E+01 -0.45319980442E+02  0.50723005910E+02  0.00000000000E+00 0. -1.
         -1    1    6    6    0  503  0.10281813358E+03 -0.39402735929E+02 -0.13452551005E+03  0.17384262149E+03  0.00000000000E+00 0.  1.
<mgrwt>
<rscale>  0 0.81306932E+03</rscale>
<asrwt>0</asrwt>
<pdfrwt beam="1">  1        2 0.12779769E+00 0.81306932E+03</pdfrwt>
<pdfrwt beam="2">  1       -2 0.16278687E+00 0.81306932E+03</pdfrwt>
<totfact> 0.79486683E+00</totfact>
</mgrwt>
</event>
<event>
12    1  0.8033771E-008  0.1616050E+04  0.7818608E-02  0.8810748E-01
          2   -1    0    0  501    0  0.00000000000E+00  0.00000000000E+00  0.11640117776E+04  0.11640117776E+04  0.00000000000E+00 0. -1.
         -2   -1    0    0    0  501 -0.00000000000E+00 -0.00000000000E+00 -0.23674785924E+04  0.23674785924E+04  0.00000000000E+00 0.  1.
         23    2    1    2    0    0 -0.10853552061E+04  0.11781502296E+04 -0.48916796744E+03  0.16777818878E+04  0.98147213748E+02 0.  0.
    5000000    2    1    2    0    0  0.10853552061E+04 -0.11781502296E+04 -0.71429884732E+03  0.18537084822E+04  0.59998200539E+03 0.  0.
         23    2    4    4    0    0  0.47046987122E+03 -0.71365494420E+03 -0.64452620574E+03  0.10743964516E+04  0.90930886590E+02 0.  0.
         23    2    4    4    0    0  0.61488533492E+03 -0.46449528540E+03 -0.69772641580E+02  0.77931203067E+03  0.92839508665E+02 0.  0.
          2    1    3    3  502    0 -0.35709342750E+03  0.37233390424E+03 -0.11111797975E+03  0.52772668839E+03  0.00000000000E+00 0. -1.
         -2    1    3    3    0  502 -0.72826177864E+03  0.80581632536E+03 -0.37804998769E+03  0.11500551994E+04  0.00000000000E+00 0.  1.
         15    1    5    5    0    0  0.35853828462E+03 -0.56027408313E+03 -0.45358402317E+03  0.80510767825E+03  0.17770000000E+01 0. -1.
        -15    1    5    5    0    0  0.11193158660E+03 -0.15338086107E+03 -0.19094218256E+03  0.26928877331E+03  0.17770000000E+01 0.  1.
          3    1    6    6  503    0  0.39348676041E+03 -0.24668338679E+03 -0.62884706086E+02  0.46865660157E+03  0.00000000000E+00 0. -1.
         -3    1    6    6    0  503  0.22139857451E+03 -0.21781189861E+03 -0.68879354943E+01  0.31065542910E+03  0.00000000000E+00 0.  1.
<mgrwt>
<rscale>  0 0.16160501E+04</rscale>
<asrwt>0</asrwt>
<pdfrwt beam="1">  1        2 0.17907873E+00 0.16160501E+04</pdfrwt>
<pdfrwt beam="2">  1       -2 0.36422748E+00 0.16160501E+04</pdfrwt>
<totfact> 0.23533487E-01</totfact>
</mgrwt>
</event>
<event>
12    1  0.9546699E-008  0.1048733E+04  0.7818608E-02  0.9256653E-01
          2   -1    0    0  501    0  0.00000000000E+00  0.00000000000E+00  0.21382649962E+04  0.21382649962E+04  0.00000000000E+00 0. -1.
         -2   -1    0    0    0  501 -0.00000000000E+00 -0.00000000000E+00 -0.59426162865E+03  0.59426162865E+03  0.00000000000E+00 0.  1.
         23    2    1    2    0    0  0.41163251368E+03 -0.90629326146E+03  0.11080809248E+04  0.14912178744E+04  0.71264372255E+02 0.  0.
    5000000    2    1    2    0    0 -0.41163251368E+03  0.90629326146E+03  0.43592244272E+03  0.12413087505E+04  0.60000852986E+03 0.  0.
         23    2    4    4    0    0 -0.20509308316E+03  0.83919998313E+03  0.16820601430E+03  0.88493655857E+03  0.92193627765E+02 0.  0.
         23    2    4    4    0    0 -0.20653943052E+03  0.67093278328E+02  0.26771642842E+03  0.35637219192E+03  0.90382568963E+02 0.  0.
          4    1    3    3  502    0  0.23180819394E+03 -0.49889382827E+03  0.55960287248E+03  0.78471999181E+03  0.00000000000E+00 0. -1.
         -4    1    3    3    0  502  0.17982431974E+03 -0.40739943319E+03  0.54847805236E+03  0.70649788256E+03  0.00000000000E+00 0.  1.
         15    1    5    5    0    0 -0.54587479487E+02  0.38874553755E+03  0.52017574320E+02  0.39599478740E+03  0.17770000000E+01 0. -1.
        -15    1    5    5    0    0 -0.15050560367E+03  0.45045444559E+03  0.11618843998E+03  0.48894177117E+03  0.17770000000E+01 0.  1.
          3    1    6    6  503    0 -0.96651448077E+02 -0.14401482017E+02  0.98195190724E+02  0.13853230880E+03  0.00000000000E+00 0. -1.
         -3    1    6    6    0  503 -0.10988798245E+03  0.81494760345E+02  0.16952123770E+03  0.21783988313E+03  0.00000000000E+00 0.  1.
<mgrwt>
<rscale>  0 0.10487334E+04</rscale>
<asrwt>0</asrwt>
<pdfrwt beam="1">  1        2 0.32896384E+00 0.10487334E+04</pdfrwt>
<pdfrwt beam="2">  1       -2 0.91424867E-01 0.10487334E+04</pdfrwt>
<totfact> 0.56842508E+00</totfact>
</mgrwt>
</event>
<event>
12    1  0.8033771E-008  0.1176530E+04  0.7818608E-02  0.9133652E-01
          3   -1    0    0  501    0  0.00000000000E+00  0.00000000000E+00  0.25129104173E+04  0.25129104173E+04  0.00000000000E+00 0. -1.
         -3   -1    0    0    0  501 -0.00000000000E+00 -0.00000000000E+00 -0.68056242648E+03  0.68056242648E+03  0.00000000000E+00 0.  1.
         23    2    1    2    0    0  0.47233954829E+03 -0.99984205818E+03  0.19171101088E+03  0.11259586536E+04  0.90779886391E+02 0.  0.
    5000000    2    1    2    0    0 -0.47233954829E+03  0.99984205818E+03  0.16406369800E+04  0.20675141902E+04  0.60011368624E+03 0.  0.
         23    2    4    4    0    0 -0.54695854855E+03  0.98967252615E+03  0.14047526144E+04  0.18053494862E+04  0.85682536296E+02 0.  0.
         23    2    4    4    0    0  0.74619000255E+02  0.10169532032E+02  0.23588436558E+03  0.26216470394E+03  0.86124813426E+02 0.  0.
          3    1    3    3  502    0  0.31508866189E+03 -0.67504235948E+03  0.85855855694E+02  0.74988951179E+03  0.00000000000E+00 0. -1.
         -3    1    3    3    0  502  0.15725088640E+03 -0.32479969871E+03  0.10585515519E+03  0.37606914183E+03  0.00000000000E+00 0.  1.
         15    1    5    5    0    0 -0.33010173671E+03  0.66785127367E+03  0.95830402150E+03  0.12138130975E+04  0.17770000000E+01 0.  1.
        -15    1    5    5    0    0 -0.21685681184E+03  0.32182125248E+03  0.44644859288E+03  0.59153638874E+03  0.17770000000E+01 0. -1.
          3    1    6    6  503    0 -0.35314121418E+01 -0.27292691696E+02  0.64058507305E+02  0.69719826806E+02  0.00000000000E+00 0. -1.
         -3    1    6    6    0  503  0.78150412396E+02  0.37462223728E+02  0.17182585828E+03  0.19244487714E+03  0.00000000000E+00 0.  1.
<mgrwt>
<rscale>  0 0.11765295E+04</rscale>
<asrwt>0</asrwt>
<pdfrwt beam="1">  1        3 0.38660160E+00 0.11765295E+04</pdfrwt>
<pdfrwt beam="2">  1       -3 0.10470191E+00 0.11765295E+04</pdfrwt>
<totfact> 0.25977992E-02</totfact>
</mgrwt>
</event>
<event>
12    1  0.8033771E-008  0.1046704E+03  0.7818608E-02  0.1270770E+00
          3   -1    0    0  501    0  0.00000000000E+00  0.00000000000E+00  0.12071243354E+04  0.12071243354E+04  0.00000000000E+00 0. -1.
         -3   -1    0    0    0  501 -0.00000000000E+00 -0.00000000000E+00 -0.10372318525E+03  0.10372318525E+03  0.00000000000E+00 0.  1.
         23    2    1    2    0    0  0.37740269705E+02 -0.38392303244E+02  0.15232047015E+03  0.18504437942E+03  0.90230814153E+02 0.  0.
    5000000    2    1    2    0    0 -0.37740269705E+02  0.38392303244E+02  0.95108068002E+03  0.11258031413E+04  0.59998329647E+03 0.  0.
         23    2    4    4    0    0  0.13604063923E+02  0.60257277001E+02 -0.48953980933E+02  0.12003686411E+03  0.90533676109E+02 0.  0.
         23    2    4    4    0    0 -0.51344333629E+02 -0.21864973757E+02  0.10000346610E+04  0.10057662771E+04  0.91554155858E+02 0.  0.
          2    1    3    3  502    0  0.20194529376E+01 -0.16684945542E+02  0.14064419788E+03  0.14164482339E+03  0.00000000000E+00 0. -1.
         -2    1    3    3    0  502  0.35720816768E+02 -0.21707357703E+02  0.11676272270E+02  0.43399556024E+02  0.00000000000E+00 0.  1.
         15    1    5    5    0    0 -0.22232624150E+01  0.46543484243E+02  0.17906841824E+02  0.49950490832E+02  0.17770000000E+01 0. -1.
        -15    1    5    5    0    0  0.15827326338E+02  0.13713792758E+02 -0.66860822757E+02  0.70086373280E+02  0.17770000000E+01 0.  1.
          2    1    6    6  503    0 -0.26884308399E+02  0.20743555040E+02  0.13052475413E+03  0.13486946487E+03  0.00000000000E+00 0. -1.
         -2    1    6    6    0  503 -0.24460025229E+02 -0.42608528796E+02  0.86950990682E+03  0.87089681227E+03  0.00000000000E+00 0.  1.
<mgrwt>
<rscale>  0 0.10467043E+03</rscale>
<asrwt>0</asrwt>
<pdfrwt beam="1">  1        3 0.18571143E+00 0.10467043E+03</pdfrwt>
<pdfrwt beam="2">  1       -3 0.15957414E-01 0.10467043E+03</pdfrwt>
<totfact> 0.15505786E+01</totfact>
</mgrwt>
</event>
<event>
12    1  0.8033771E-008  0.1083978E+04  0.7818608E-02  0.9220951E-01
          2   -1    0    0  501    0  0.00000000000E+00  0.00000000000E+00  0.23041014922E+04  0.23041014922E+04  0.00000000000E+00 0. -1.
         -2   -1    0    0    0  501 -0.00000000000E+00 -0.00000000000E+00 -0.63669477600E+03  0.63669477600E+03  0.00000000000E+00 0.  1.
         23    2    1    2    0    0 -0.30276875657E+03 -0.10324413731E+04  0.34531363419E+03  0.11337445585E+04  0.92364002876E+02 0.  0.
    5000000    2    1    2    0    0  0.30276875657E+03  0.10324413731E+04  0.13220930820E+04  0.18070517098E+04  0.59991804042E+03 0.  0.
         23    2    4    4    0    0  0.10778011787E+03  0.25920042542E+03  0.42864599616E+02  0.29752258989E+03  0.88774451563E+02 0.  0.
         23    2    4    4    0    0  0.19498863870E+03  0.77324094771E+03  0.12792284824E+04  0.15095291199E+04  0.79564571331E+02 0.  0.
          3    1    3    3  502    0 -0.13158901668E+03 -0.30884119164E+03  0.89999700857E+02  0.34756078191E+03  0.00000000000E+00 0. -1.
         -3    1    3    3    0  502 -0.17117973990E+03 -0.72360018149E+03  0.25531393333E+03  0.78618377658E+03  0.00000000000E+00 0.  1.
         15    1    5    5    0    0  0.10141609898E+03  0.14592347706E+03  0.45931319718E+01  0.17777272254E+03  0.17770000000E+01 0. -1.
        -15    1    5    5    0    0  0.63640188914E+01  0.11327694836E+03  0.38271467645E+02  0.11974986735E+03  0.17770000000E+01 0.  1.
          2    1    6    6  503    0  0.94037996904E+02  0.35534463738E+03  0.66437033806E+03  0.75927656508E+03  0.00000000000E+00 0. -1.
         -2    1    6    6    0  503  0.10095064180E+03  0.41789631033E+03  0.61485814437E+03  0.75025255479E+03  0.00000000000E+00 0.  1.
<mgrwt>
<rscale>  0 0.10839775E+04</rscale>
<asrwt>0</asrwt>
<pdfrwt beam="1">  1        2 0.35447715E+00 0.10839775E+04</pdfrwt>
<pdfrwt beam="2">  1       -2 0.97953044E-01 0.10839775E+04</pdfrwt>
<totfact> 0.38904223E+00</totfact>
</mgrwt>
</event>
<event>
12    1  0.8033771E-008  0.4371054E+03  0.7818608E-02  0.1031639E+00
         -2   -1    0    0    0  501 -0.00000000000E+00  0.00000000000E+00  0.22630366742E+03  0.22630366742E+03  0.00000000000E+00 0.  1.
          2   -1    0    0  501    0  0.00000000000E+00 -0.00000000000E+00 -0.22463054836E+04  0.22463054836E+04  0.00000000000E+00 0. -1.
         23    2    1    2    0    0 -0.23664467064E+03  0.73922225813E+02  0.78388607845E+02  0.27606964390E+03  0.92760330057E+02 0.  0.
    5000000    2    1    2    0    0  0.23664467064E+03 -0.73922225813E+02 -0.20983904241E+04  0.21965395072E+04  0.60006519573E+03 0.  0.
         23    2    4    4    0    0  0.41740958939E+03 -0.49363972313E+02 -0.11716059591E+04  0.12476398520E+04  0.85305978253E+02 0.  0.
         23    2    4    4    0    0 -0.18076491875E+03 -0.24558253500E+02 -0.92678446498E+03  0.94889965514E+03  0.90565155184E+02 0.  0.
          1    1    3    3  502    0 -0.12473491459E+03  0.83914201077E+02  0.27940875143E+02  0.15290874588E+03  0.00000000000E+00 0. -1.
         -1    1    3    3    0  502 -0.11190975604E+03 -0.99919752639E+01  0.50447732702E+02  0.12316089802E+03  0.00000000000E+00 0.  1.
         15    1    5    5    0    0  0.21345954874E+03 -0.14955926996E+02 -0.71572295764E+03  0.74702822472E+03  0.17770000000E+01 0. -1.
        -15    1    5    5    0    0  0.20395004064E+03 -0.34408045317E+02 -0.45588300143E+03  0.50061162730E+03  0.17770000000E+01 0.  1.
          3    1    6    6  503    0 -0.43263084433E+02 -0.30706005977E+02 -0.43480028577E+03  0.43802493283E+03  0.00000000000E+00 0. -1.
         -3    1    6    6    0  503 -0.13750183432E+03  0.61477524766E+01 -0.49198417922E+03  0.51087472232E+03  0.00000000000E+00 0.  1.
<mgrwt>
<rscale>  0 0.43710538E+03</rscale>
<asrwt>0</asrwt>
<pdfrwt beam="1">  1        2 0.34558547E+00 0.43710538E+03</pdfrwt>
<pdfrwt beam="2">  1       -2 0.34815947E-01 0.43710538E+03</pdfrwt>
<totfact> 0.41149317E+01</totfact>
</mgrwt>
</event>
<event>
12    1  0.8033771E-008  0.1636576E+04  0.7818608E-02  0.8798388E-01
          2   -1    0    0  501    0  0.00000000000E+00  0.00000000000E+00  0.39261991798E+04  0.39261991798E+04  0.00000000000E+00 0.  1.
         -2   -1    0    0    0  501 -0.00000000000E+00 -0.00000000000E+00 -0.69576251299E+03  0.69576251299E+03  0.00000000000E+00 0. -1.
         23    2    1    2    0    0  0.42955392769E+03 -0.15322064021E+04  0.17523347645E+04  0.23687963438E+04  0.91356203291E+02 0.  0.
    5000000    2    1    2    0    0 -0.42955392769E+03  0.15322064021E+04  0.14781019023E+04  0.22531653490E+04  0.59982982662E+03 0.  0.
         23    2    4    4    0    0 -0.52916424598E+03  0.96095945681E+03  0.83042256576E+03  0.13788590301E+04  0.90513591911E+02 0.  0.
         23    2    4    4    0    0  0.99610318293E+02  0.57124694531E+03  0.64767933655E+03  0.87430631891E+03  0.93154324937E+02 0.  0.
          1    1    3    3  502    0  0.25174052106E+03 -0.10556385051E+04  0.11919146454E+04  0.16119573397E+04  0.00000000000E+00 0. -1.
         -1    1    3    3    0  502  0.17781340663E+03 -0.47656789707E+03  0.56042011914E+03  0.75683900403E+03  0.00000000000E+00 0.  1.
         15    1    5    5    0    0 -0.28001587475E+03  0.43451545490E+03  0.42515771743E+03  0.66930920588E+03  0.17770000000E+01 0. -1.
        -15    1    5    5    0    0 -0.24914837124E+03  0.52644400191E+03  0.40526484833E+03  0.70954982422E+03  0.17770000000E+01 0.  1.
          1    1    6    6  503    0  0.23754854854E+02  0.15145099212E+03  0.23629542198E+03  0.28166863971E+03  0.00000000000E+00 0. -1.
         -1    1    6    6    0  503  0.75855463439E+02  0.41979595319E+03  0.41138391457E+03  0.59263767920E+03  0.00000000000E+00 0.  1.
<mgrwt>
<rscale>  0 0.16365764E+04</rscale>
<asrwt>0</asrwt>
<pdfrwt beam="1">  1        2 0.60403063E+00 0.16365764E+04</pdfrwt>
<pdfrwt beam="2">  1       -2 0.10704039E+00 0.16365764E+04</pdfrwt>
<totfact> 0.26165711E-01</totfact>
</mgrwt>
</event>
<event>
12    1  0.8033771E-008  0.3392550E+03  0.7818608E-02  0.1067114E+00
         -1   -1    0    0    0  501 -0.00000000000E+00  0.00000000000E+00  0.27131899268E+03  0.27131899268E+03  0.00000000000E+00 0.  1.
          1   -1    0    0  501    0  0.00000000000E+00 -0.00000000000E+00 -0.76822031050E+03  0.76822031050E+03  0.00000000000E+00 0. -1.
         23    2    1    2    0    0  0.61558958404E+02  0.65077667804E+02 -0.40667913311E+03  0.42619323671E+03  0.90709147854E+02 0.  0.
    5000000    2    1    2    0    0 -0.61558958404E+02 -0.65077667804E+02 -0.90222184704E+02  0.61334606647E+03  0.60002395488E+03 0.  0.
         23    2    4    4    0    0  0.25191880739E+03 -0.62589486283E+01 -0.84500643282E+02  0.28136719408E+03  0.92330272568E+02 0.  0.
         23    2    4    4    0    0 -0.31347776580E+03 -0.58818719176E+02 -0.57215414224E+01  0.33197887239E+03  0.91919988595E+02 0.  0.
          3    1    3    3  502    0  0.38507395551E+02  0.36479969656E+02 -0.71604005147E+02  0.89110836890E+02  0.00000000000E+00 0. -1.
         -3    1    3    3    0  502  0.23051562853E+02  0.28597698148E+02 -0.33507512796E+03  0.33708239982E+03  0.00000000000E+00 0.  1.
         15    1    5    5    0    0  0.20247171161E+03  0.29033720770E+02 -0.82491418371E+02  0.22055779917E+03  0.17770000000E+01 0. -1.
        -15    1    5    5    0    0  0.49447095787E+02 -0.35292669398E+02 -0.20092249109E+01  0.60809394905E+02  0.17770000000E+01 0.  1.
          4    1    6    6  503    0 -0.17716638489E+03 -0.60125232613E+02  0.33642429894E+02  0.19009151643E+03  0.00000000000E+00 0. -1.
         -4    1    6    6    0  503 -0.13631138091E+03  0.13065134368E+01 -0.39363971317E+02  0.14188735596E+03  0.00000000000E+00 0.  1.
<mgrwt>
<rscale>  0 0.33925505E+03</rscale>
<asrwt>0</asrwt>
<pdfrwt beam="1">  1        1 0.11818774E+00 0.33925505E+03</pdfrwt>
<pdfrwt beam="2">  1       -1 0.41741384E-01 0.33925505E+03</pdfrwt>
<totfact> 0.14039169E+02</totfact>
</mgrwt>
</event>
<event>
12    1  0.8033771E-008  0.6003453E+03  0.7818608E-02  0.9904690E-01
         -2   -1    0    0    0  501 -0.00000000000E+00  0.00000000000E+00  0.20934178447E+03  0.20934178447E+03  0.00000000000E+00 0. -1.
          2   -1    0    0  501    0  0.00000000000E+00 -0.00000000000E+00 -0.21065479389E+04  0.21065479389E+04  0.00000000000E+00 0.  1.
         23    2    1    2    0    0 -0.46665652776E+03 -0.92443092136E+01 -0.11745065511E+04  0.12670650582E+04  0.90191191453E+02 0.  0.
    5000000    2    1    2    0    0  0.46665652776E+03  0.92443092136E+01 -0.72269960331E+03  0.10488246651E+04  0.59990390015E+03 0.  0.
         23    2    4    4    0    0 -0.79051853734E+02  0.13456142466E+03 -0.98689373315E+02  0.20573053577E+03  0.90716527462E+02 0.  0.
         23    2    4    4    0    0  0.54570838149E+03 -0.12531711545E+03 -0.62401023000E+03  0.84309412937E+03  0.88977113771E+02 0.  0.
          2    1    3    3  502    0 -0.31402939338E+03  0.27136491023E+02 -0.85149868504E+03  0.90796523044E+03  0.00000000000E+00 0. -1.
         -2    1    3    3    0  502 -0.15262713438E+03 -0.36380800236E+02 -0.32300786606E+03  0.35909982778E+03  0.00000000000E+00 0.  1.
         15    1    5    5    0    0 -0.40653121592E+02  0.11688265118E+03 -0.33852434834E+02  0.12830968597E+03  0.17770000000E+01 0.  1.
        -15    1    5    5    0    0 -0.38398732142E+02  0.17678773489E+02 -0.64836938482E+02  0.77420849794E+02  0.17770000000E+01 0. -1.
          3    1    6    6  503    0  0.23271378855E+03 -0.26113243731E+02 -0.31241722573E+03  0.39043838414E+03  0.00000000000E+00 0. -1.
         -3    1    6    6    0  503  0.31299459295E+03 -0.99203871720E+02 -0.31159300427E+03  0.45265574523E+03  0.00000000000E+00 0.  1.
<mgrwt>
<rscale>  0 0.60034535E+03</rscale>
<asrwt>0</asrwt>
<pdfrwt beam="1">  1        2 0.32408430E+00 0.60034535E+03</pdfrwt>
<pdfrwt beam="2">  1       -2 0.32206428E-01 0.60034535E+03</pdfrwt>
<totfact> 0.55033064E+01</totfact>
</mgrwt>
</event>
<event>
12    1  0.8033771E-008  0.9960920E+03  0.7818608E-02  0.9312841E-01
          2   -1    0    0  501    0  0.00000000000E+00  0.00000000000E+00  0.10728584709E+04  0.10728584709E+04  0.00000000000E+00 0. -1.
         -2   -1    0    0    0  501 -0.00000000000E+00 -0.00000000000E+00 -0.15453647106E+04  0.15453647106E+04  0.00000000000E+00 0.  1.
         23    2    1    2    0    0 -0.77648534850E+03  0.49236648501E+03 -0.10328835564E+04  0.13856070652E+04  0.87773834943E+02 0.  0.
    5000000    2    1    2    0    0  0.77648534850E+03 -0.49236648501E+03  0.56037731667E+03  0.12326161163E+04  0.59997125018E+03 0.  0.
         23    2    4    4    0    0  0.40245112610E+03  0.51580794953E+02  0.12208971955E+03  0.43352697708E+03  0.91718334764E+02 0.  0.
         23    2    4    4    0    0  0.37403422240E+03 -0.54394727996E+03  0.43828759712E+03  0.79908913918E+03  0.10328209749E+03 0.  0.
          2    1    3    3  502    0 -0.30988881269E+03  0.23281350296E+03 -0.38888470994E+03  0.54905784852E+03  0.00000000000E+00 0.  1.
         -2    1    3    3    0  502 -0.46659653581E+03  0.25955298205E+03 -0.64399884649E+03  0.83654921672E+03  0.00000000000E+00 0. -1.
         15    1    5    5    0    0  0.27989131985E+03  0.58737164981E+02  0.47632119545E+02  0.28993306472E+03  0.17770000000E+01 0. -1.
        -15    1    5    5    0    0  0.12255980625E+03 -0.71563700285E+01  0.74457600001E+02  0.14359391236E+03  0.17770000000E+01 0.  1.
          3    1    6    6  503    0  0.29890310020E+03 -0.46596776388E+03  0.32305728700E+03  0.64096414172E+03  0.00000000000E+00 0. -1.
         -3    1    6    6    0  503  0.75131122201E+02 -0.77979516078E+02  0.11523031013E+03  0.15812499746E+03  0.00000000000E+00 0.  1.
<mgrwt>
<rscale>  0 0.99609200E+03</rscale>
<asrwt>0</asrwt>
<pdfrwt beam="1">  1        2 0.16505515E+00 0.99609200E+03</pdfrwt>
<pdfrwt beam="2">  1       -2 0.23774842E+00 0.99609200E+03</pdfrwt>
<totfact> 0.17253332E+00</totfact>
</mgrwt>
</event>
<event>
12    1  0.8033771E-008  0.5095313E+03  0.7818608E-02  0.1011321E+00
          2   -1    0    0  501    0  0.00000000000E+00  0.00000000000E+00  0.93977464465E+03  0.93977464465E+03  0.00000000000E+00 0.  1.
         -2   -1    0    0    0  501 -0.00000000000E+00 -0.00000000000E+00 -0.39685713121E+03  0.39685713121E+03  0.00000000000E+00 0. -1.
         23    2    1    2    0    0  0.38411081210E+03  0.24165182404E+03  0.13972145670E+03  0.48306460929E+03  0.88840369513E+02 0.  0.
    5000000    2    1    2    0    0 -0.38411081210E+03 -0.24165182404E+03  0.40319605673E+03  0.85356716657E+03  0.60006093661E+03 0.  0.
         23    2    4    4    0    0 -0.10538420390E+02 -0.15320385194E+03 -0.10716532421E+03  0.20850144914E+03  0.91684071825E+02 0.  0.
         23    2    4    4    0    0 -0.37357239171E+03 -0.88447972095E+02  0.51036138095E+03  0.64506571742E+03  0.90893701735E+02 0.  0.
          1    1    3    3  502    0  0.27837680529E+03  0.15200487721E+03  0.13401587686E+03  0.34432453248E+03  0.00000000000E+00 0. -1.
         -1    1    3    3    0  502  0.10573400681E+03  0.89646946833E+02  0.57055798431E+01  0.13874007681E+03  0.00000000000E+00 0.  1.
         15    1    5    5    0    0  0.40591933473E+02 -0.60337405559E+02 -0.46755588533E+02  0.86472830188E+02  0.17770000000E+01 0.  1.
        -15    1    5    5    0    0 -0.51130353862E+02 -0.92866446384E+02 -0.60409735681E+02  0.12202861896E+03  0.17770000000E+01 0. -1.
          4    1    6    6  503    0 -0.44630527949E+02 -0.17831410176E+02  0.12267056358E+03  0.13174942270E+03  0.00000000000E+00 0. -1.
         -4    1    6    6    0  503 -0.32894186376E+03 -0.70616561919E+02  0.38769081737E+03  0.51331629472E+03  0.00000000000E+00 0.  1.
<mgrwt>
<rscale>  0 0.50953134E+03</rscale>
<asrwt>0</asrwt>
<pdfrwt beam="1">  1        2 0.14458071E+00 0.50953134E+03</pdfrwt>
<pdfrwt beam="2">  1       -2 0.61054944E-01 0.50953134E+03</pdfrwt>
<totfact> 0.71401482E+01</totfact>
</mgrwt>
</event>
<event>
12    1  0.8033771E-008  0.6245712E+03  0.7818608E-02  0.9855700E-01
         -2   -1    0    0    0  501 -0.00000000000E+00  0.00000000000E+00  0.29747569886E+03  0.29747569886E+03  0.00000000000E+00 0.  1.
          2   -1    0    0  501    0  0.00000000000E+00 -0.00000000000E+00 -0.15875692707E+04  0.15875692707E+04  0.00000000000E+00 0. -1.
         23    2    1    2    0    0  0.51323585641E+03 -0.19913975349E+03 -0.47535726100E+03  0.73314713916E+03  0.92046272882E+02 0.  0.
    5000000    2    1    2    0    0 -0.51323585641E+03  0.19913975349E+03 -0.81473631082E+03  0.11518978304E+04  0.60000472475E+03 0.  0.
         23    2    4    4    0    0 -0.43877607317E+03  0.31182234917E+03 -0.32381794618E+03  0.63460220087E+03  0.90023726050E+02 0.  0.
         23    2    4    4    0    0 -0.74459783238E+02 -0.11268259568E+03 -0.49091836464E+03  0.51729562950E+03  0.91390923343E+02 0.  0.
          3    1    3    3  502    0  0.10882618739E+03 -0.45462329043E+01 -0.10468034179E+03  0.15106879642E+03  0.00000000000E+00 0. -1.
         -3    1    3    3    0  502  0.40440966902E+03 -0.19459352059E+03 -0.37067691921E+03  0.58207834274E+03  0.00000000000E+00 0.  1.
         15    1    5    5    0    0 -0.20981589187E+03  0.20033323763E+03 -0.19153336744E+03  0.34762667210E+03  0.17770000000E+01 0.  1.
        -15    1    5    5    0    0 -0.22896018130E+03  0.11148911154E+03 -0.13228457873E+03  0.28697552877E+03  0.17770000000E+01 0. -1.
          3    1    6    6  503    0 -0.66170898832E+02 -0.48744488725E+02 -0.38186655684E+03  0.39061065047E+03  0.00000000000E+00 0. -1.
         -3    1    6    6    0  503 -0.82888844065E+01 -0.63938106955E+02 -0.10905180781E+03  0.12668497903E+03  0.00000000000E+00 0.  1.
<mgrwt>
<rscale>  0 0.62457115E+03</rscale>
<asrwt>0</asrwt>
<pdfrwt beam="1">  1        2 0.24424143E+00 0.62457115E+03</pdfrwt>
<pdfrwt beam="2">  1       -2 0.45765491E-01 0.62457115E+03</pdfrwt>
<totfact> 0.53247974E+01</totfact>
</mgrwt>
</event>
<event>
12    1  0.8033771E-008  0.4638421E+03  0.7818608E-02  0.1023673E+00
         -1   -1    0    0    0  501 -0.00000000000E+00  0.00000000000E+00  0.60121134407E+03  0.60121134407E+03  0.00000000000E+00 0.  1.
          1   -1    0    0  501    0  0.00000000000E+00 -0.00000000000E+00 -0.38125032592E+03  0.38125032592E+03  0.00000000000E+00 0. -1.
         23    2    1    2    0    0 -0.25371558390E+03 -0.11664641866E+03  0.43242372964E+02  0.29743212073E+03  0.92833071276E+02 0.  0.
    5000000    2    1    2    0    0  0.25371558390E+03  0.11664641866E+03  0.17671864518E+03  0.68502954927E+03  0.60004834748E+03 0.  0.
         23    2    4    4    0    0  0.39602276219E+03  0.18953735832E+03  0.35519707291E+02  0.44990648805E+03  0.91628379961E+02 0.  0.
         23    2    4    4    0    0 -0.14230717829E+03 -0.72890939667E+02  0.14119893789E+03  0.23512306121E+03  0.98900413426E+02 0.  0.
          4    1    3    3  502    0 -0.16365801027E+03 -0.24719201357E+02  0.27501498283E+02  0.16778353807E+03  0.00000000000E+00 0. -1.
         -4    1    3    3    0  502 -0.90057573634E+02 -0.91927217300E+02  0.15740874682E+02  0.12964858266E+03  0.00000000000E+00 0.  1.
         15    1    5    5    0    0  0.27365087579E+03  0.17262198474E+03  0.97509615351E+01  0.32369953725E+03  0.17770000000E+01 0.  1.
        -15    1    5    5    0    0  0.12237188639E+03  0.16915373584E+02  0.25768745756E+02  0.12620695080E+03  0.17770000000E+01 0. -1.
          2    1    6    6  503    0 -0.92271056409E+02  0.65400017602E+01  0.54664558865E+02  0.10744735208E+03  0.00000000000E+00 0.  1.
         -2    1    6    6    0  503 -0.50036121876E+02 -0.79430941427E+02  0.86534379026E+02  0.12767570913E+03  0.00000000000E+00 0. -1.
<mgrwt>
<rscale>  0 0.46384208E+03</rscale>
<asrwt>0</asrwt>
<pdfrwt beam="1">  1        1 0.58653896E-01 0.46384208E+03</pdfrwt>
<pdfrwt beam="2">  1       -1 0.92494053E-01 0.46384208E+03</pdfrwt>
<totfact> 0.75968361E+01</totfact>
</mgrwt>
</event>
<event>
12    1  0.8033771E-008  0.1005398E+04  0.7818608E-02  0.9302644E-01
          3   -1    0    0  501    0  0.00000000000E+00  0.00000000000E+00  0.12539221301E+04  0.12539221301E+04  0.00000000000E+00 0. -1.
         -3   -1    0    0    0  501 -0.00000000000E+00 -0.00000000000E+00 -0.82708546409E+03  0.82708546409E+03  0.00000000000E+00 0.  1.
         23    2    1    2    0    0  0.15542682368E+03 -0.91444332780E+03  0.19708107748E+03  0.95261580492E+03  0.90949565093E+02 0.  0.
    5000000    2    1    2    0    0 -0.15542682368E+03  0.91444332780E+03  0.22975558852E+03  0.11283917893E+04  0.60009691078E+03 0.  0.
         23    2    4    4    0    0  0.91187363480E+02  0.77892166543E+03  0.25896211506E+03  0.83079242572E+03  0.90114268947E+02 0.  0.
         23    2    4    4    0    0 -0.24661418715E+03  0.13552166238E+03 -0.29206526537E+02  0.29759936354E+03  0.92345447683E+02 0.  0.
          1    1    3    3  502    0  0.25734816112E+02 -0.40028717733E+03  0.10226343101E+03  0.41394433734E+03  0.00000000000E+00 0. -1.
         -1    1    3    3    0  502  0.12969200756E+03 -0.51415615047E+03  0.94817646470E+02  0.53867146757E+03  0.00000000000E+00 0.  1.
         15    1    5    5    0    0  0.21915419675E+01  0.25056263376E+02 -0.74588481483E+01  0.26294701658E+02  0.17770000000E+01 0.  1.
        -15    1    5    5    0    0  0.88995821512E+02  0.75386540205E+03  0.26642096321E+03  0.80449772406E+03  0.17770000000E+01 0. -1.
          2    1    6    6  503    0 -0.22347518044E+03  0.84206624088E+02 -0.13672762797E+02  0.23920463259E+03  0.00000000000E+00 0. -1.
         -2    1    6    6    0  503 -0.23139006718E+02  0.51315038288E+02 -0.15533763740E+02  0.58394730947E+02  0.00000000000E+00 0.  1.
<mgrwt>
<rscale>  0 0.10053979E+04</rscale>
<asrwt>0</asrwt>
<pdfrwt beam="1">  1        3 0.19291110E+00 0.10053979E+04</pdfrwt>
<pdfrwt beam="2">  1       -3 0.12724392E+00 0.10053979E+04</pdfrwt>
<totfact> 0.20328172E-01</totfact>
</mgrwt>
</event>
<event>
12    1  0.8785660E-008  0.1092629E+04  0.7818608E-02  0.9212406E-01
          2   -1    0    0  501    0  0.00000000000E+00  0.00000000000E+00  0.12864558813E+04  0.12864558813E+04  0.00000000000E+00 0.  1.
         -2   -1    0    0    0  501 -0.00000000000E+00 -0.00000000000E+00 -0.10146523031E+04  0.10146523031E+04  0.00000000000E+00 0. -1.
         23    2    1    2    0    0  0.20957408984E+03 -0.10157600003E+04  0.35478866735E+03  0.11000277535E+04  0.92175823993E+02 0.  0.
    5000000    2    1    2    0    0 -0.20957408984E+03  0.10157600003E+04 -0.82985089224E+02  0.12010804309E+04  0.60001499906E+03 0.  0.
         23    2    4    4    0    0 -0.22953039033E+03  0.10264960083E+04 -0.17340159350E+03  0.10697945901E+04  0.89521490263E+02 0.  0.
         23    2    4    4    0    0  0.19956300486E+02 -0.10736007998E+02  0.90416504275E+02  0.13128584080E+03  0.92451673607E+02 0.  0.
          3    1    3    3  502    0  0.16525981235E+02 -0.19801136066E+03  0.97222781823E+02  0.22121002760E+03  0.00000000000E+00 0. -1.
         -3    1    3    3    0  502  0.19304810861E+03 -0.81774863967E+03  0.25756588552E+03  0.87881772587E+03  0.00000000000E+00 0.  1.
         15    1    5    5    0    0 -0.64219572765E+02  0.48723231988E+03 -0.71371369160E+02  0.49660499104E+03  0.17770000000E+01 0.  1.
        -15    1    5    5    0    0 -0.16531081756E+03  0.53926368845E+03 -0.10203022434E+03  0.57318959908E+03  0.17770000000E+01 0. -1.
          1    1    6    6  503    0 -0.43058185413E+01  0.37025556085E+02  0.57133539576E+02  0.68217836532E+02  0.00000000000E+00 0. -1.
         -1    1    6    6    0  503  0.24262119027E+02 -0.47761564082E+02  0.33282964699E+02  0.63068004269E+02  0.00000000000E+00 0.  1.
<mgrwt>
<rscale>  0 0.10926285E+04</rscale>
<asrwt>0</asrwt>
<pdfrwt beam="1">  1        2 0.19791629E+00 0.10926285E+04</pdfrwt>
<pdfrwt beam="2">  1       -2 0.15610035E+00 0.10926285E+04</pdfrwt>
<totfact> 0.44529986E+00</totfact>
</mgrwt>
</event>
<event>
12    1  0.8033771E-008  0.4012406E+03  0.7818608E-02  0.1043351E+00
          2   -1    0    0  501    0  0.00000000000E+00  0.00000000000E+00  0.14247039493E+04  0.14247039493E+04  0.00000000000E+00 0. -1.
         -2   -1    0    0    0  501 -0.00000000000E+00 -0.00000000000E+00 -0.20488321385E+03  0.20488321385E+03  0.00000000000E+00 0.  1.
         23    2    1    2    0    0  0.91870956277E+01  0.34432047878E+03  0.60853223091E+03  0.70631072091E+03  0.99611061517E+02 0.  0.
    5000000    2    1    2    0    0 -0.91870956277E+01 -0.34432047878E+03  0.61128850458E+03  0.92327644228E+03  0.60010395617E+03 0.  0.
         23    2    4    4    0    0  0.85168877498E+02 -0.36367776496E+02  0.57287978876E+03  0.58772878984E+03  0.93045822999E+02 0.  0.
         23    2    4    4    0    0 -0.94355973125E+02 -0.30795270229E+03  0.38408715817E+02  0.33554765244E+03  0.85901577956E+02 0.  0.
          3    1    3    3  502    0  0.56980495838E+01  0.13877216217E+03  0.34621697602E+03  0.37303669424E+03  0.00000000000E+00 0. -1.
         -3    1    3    3    0  502  0.34890460439E+01  0.20554831662E+03  0.26231525489E+03  0.33327402667E+03  0.00000000000E+00 0.  1.
         15    1    5    5    0    0 -0.19834419952E+02 -0.11842758970E+02  0.87805330298E+02  0.90810731264E+02  0.17770000000E+01 0. -1.
        -15    1    5    5    0    0  0.10500329745E+03 -0.24525017526E+02  0.48507445846E+03  0.49691805858E+03  0.17770000000E+01 0.  1.
          1    1    6    6  503    0 -0.36380956392E+02 -0.45681377747E+02  0.32601843330E+02  0.66882302961E+02  0.00000000000E+00 0. -1.
         -1    1    6    6    0  503 -0.57975016733E+02 -0.26227132454E+03  0.58068724870E+01  0.26866534948E+03  0.00000000000E+00 0.  1.
<mgrwt>
<rscale>  0 0.40124057E+03</rscale>
<asrwt>0</asrwt>
<pdfrwt beam="1">  1        2 0.21918522E+00 0.40124057E+03</pdfrwt>
<pdfrwt beam="2">  1       -2 0.31520495E-01 0.40124057E+03</pdfrwt>
<totfact> 0.13814114E+02</totfact>
</mgrwt>
</event>
<event>
12    1  0.8033771E-008  0.1040680E+04  0.7818608E-02  0.9265019E-01
          2   -1    0    0  501    0  0.00000000000E+00  0.00000000000E+00  0.91939782840E+03  0.91939782840E+03  0.00000000000E+00 0.  1.
         -2   -1    0    0    0  501 -0.00000000000E+00 -0.00000000000E+00 -0.13572342206E+04  0.13572342206E+04  0.00000000000E+00 0. -1.
         23    2    1    2    0    0 -0.78644122513E+03  0.66814872796E+03 -0.27538694190E+03  0.10719331753E+04  0.91050762172E+02 0.  0.
    5000000    2    1    2    0    0  0.78644122513E+03 -0.66814872796E+03 -0.16244945034E+03  0.12046988737E+04  0.59999752433E+03 0.  0.
         23    2    4    4    0    0  0.46741184934E+03 -0.48033937874E+03 -0.36981501213E+03  0.77078760863E+03  0.90280887988E+02 0.  0.
         23    2    4    4    0    0  0.31902937579E+03 -0.18780934921E+03  0.20736556179E+03  0.43391126511E+03  0.90699589317E+02 0.  0.
          4    1    3    3  502    0 -0.34509818821E+03  0.24370373207E+03 -0.87562962242E+02  0.43145282579E+03  0.00000000000E+00 0.  1.
         -4    1    3    3    0  502 -0.44134303693E+03  0.42444499589E+03 -0.18782397966E+03  0.64048034951E+03  0.00000000000E+00 0. -1.
         15    1    5    5    0    0  0.32157012569E+03 -0.26906982476E+03 -0.21905234876E+03  0.47306765431E+03  0.17770000000E+01 0.  1.
        -15    1    5    5    0    0  0.14584172365E+03 -0.21126955399E+03 -0.15076266338E+03  0.29771995431E+03  0.17770000000E+01 0. -1.
          3    1    6    6  503    0  0.28774885715E+03 -0.16373355401E+03  0.14806014358E+03  0.36267049455E+03  0.00000000000E+00 0. -1.
         -3    1    6    6    0  503  0.31280518644E+02 -0.24075795204E+02  0.59305418208E+02  0.71240770561E+02  0.00000000000E+00 0.  1.
<mgrwt>
<rscale>  0 0.10406801E+04</rscale>
<asrwt>0</asrwt>
<pdfrwt beam="1">  1        2 0.14144582E+00 0.10406801E+04</pdfrwt>
<pdfrwt beam="2">  1       -2 0.20880526E+00 0.10406801E+04</pdfrwt>
<totfact> 0.32785226E+00</totfact>
</mgrwt>
</event>
<event>
12    1  0.8033771E-008  0.5900557E+03  0.7818608E-02  0.9926255E-01
         -1   -1    0    0    0  501 -0.00000000000E+00  0.00000000000E+00  0.10184890734E+04  0.10184890734E+04  0.00000000000E+00 0.  1.
          1   -1    0    0  501    0  0.00000000000E+00 -0.00000000000E+00 -0.49405607042E+03  0.49405607042E+03  0.00000000000E+00 0. -1.
         23    2    1    2    0    0  0.48731706812E+03 -0.16829025445E+03 -0.61894310971E+02  0.52783166691E+03  0.94740847748E+02 0.  0.
    5000000    2    1    2    0    0 -0.48731706812E+03  0.16829025445E+03  0.58632731393E+03  0.98471347689E+03  0.60006781106E+03 0.  0.
         23    2    4    4    0    0 -0.37644511241E+03  0.28257996499E+03  0.63320242782E+03  0.79437930430E+03  0.92362358331E+02 0.  0.
         23    2    4    4    0    0 -0.11087195571E+03 -0.11428971055E+03 -0.46875113886E+02  0.19033417258E+03  0.93140176354E+02 0.  0.
          1    1    3    3  502    0  0.22528053228E+03 -0.28265852643E+02 -0.30070575052E+02  0.22902950931E+03  0.00000000000E+00 0. -1.
         -1    1    3    3    0  502  0.26203653584E+03 -0.14002440180E+03 -0.31823735919E+02  0.29880215760E+03  0.00000000000E+00 0.  1.
         15    1    5    5    0    0 -0.53172220585E+02  0.20748832854E+02  0.39506236936E+02  0.69438459031E+02  0.17770000000E+01 0.  1.
        -15    1    5    5    0    0 -0.32327289183E+03  0.26183113214E+03  0.59369619088E+03  0.72494084527E+03  0.17770000000E+01 0. -1.
          1    1    6    6  503    0 -0.72761624470E+02 -0.12377226692E+03 -0.26179432180E+02  0.14594242263E+03  0.00000000000E+00 0. -1.
         -1    1    6    6    0  503 -0.38110331239E+02  0.94825563732E+01 -0.20695681707E+02  0.44391749952E+02  0.00000000000E+00 0.  1.
<mgrwt>
<rscale>  0 0.59005574E+03</rscale>
<asrwt>0</asrwt>
<pdfrwt beam="1">  1        1 0.76008627E-01 0.59005574E+03</pdfrwt>
<pdfrwt beam="2">  1       -1 0.15669063E+00 0.59005574E+03</pdfrwt>
<totfact> 0.14649546E+01</totfact>
</mgrwt>
</event>
<event>
12    1  0.8033771E-008  0.4517348E+03  0.7818608E-02  0.1027206E+00
         -3   -1    0    0    0  501 -0.00000000000E+00  0.00000000000E+00  0.14089380222E+04  0.14089380222E+04  0.00000000000E+00 0.  1.
          3   -1    0    0  501    0  0.00000000000E+00 -0.00000000000E+00 -0.43838313123E+03  0.43838313123E+03  0.00000000000E+00 0. -1.
         23    2    1    2    0    0  0.26523801777E+03  0.12649495485E+03 -0.28857591737E+03  0.42191274319E+03  0.91553935536E+02 0.  0.
    5000000    2    1    2    0    0 -0.26523801777E+03 -0.12649495485E+03  0.12591308083E+04  0.14254084102E+04  0.60002213608E+03 0.  0.
         23    2    4    4    0    0 -0.21041550257E+03 -0.32506711509E+03  0.10373821520E+04  0.11109608371E+04  0.90160630895E+02 0.  0.
         23    2    4    4    0    0 -0.54822515200E+02  0.19857216024E+03  0.22174865631E+03  0.31444757305E+03  0.85254903851E+02 0.  0.
          1    1    3    3  502    0  0.20596309452E+03  0.11414035132E+03 -0.17562600093E+03  0.29375722681E+03  0.00000000000E+00 0. -1.
         -1    1    3    3    0  502  0.59274923243E+02  0.12354603534E+02 -0.11294991644E+03  0.12815551638E+03  0.00000000000E+00 0.  1.
         15    1    5    5    0    0 -0.57114292463E+02 -0.70111296447E+02  0.35887300346E+03  0.37009542909E+03  0.17770000000E+01 0. -1.
        -15    1    5    5    0    0 -0.15330121010E+03 -0.25495581864E+03  0.67850914854E+03  0.74086540806E+03  0.17770000000E+01 0.  1.
          2    1    6    6  503    0 -0.31942351017E+02  0.16425120533E+02  0.59217584282E+02  0.69259083600E+02  0.00000000000E+00 0. -1.
         -2    1    6    6    0  503 -0.22880164184E+02  0.18214703971E+03  0.16253107202E+03  0.24518848945E+03  0.00000000000E+00 0.  1.
<mgrwt>
<rscale>  0 0.45173484E+03</rscale>
<asrwt>0</asrwt>
<pdfrwt beam="1">  1        3 0.67443560E-01 0.45173484E+03</pdfrwt>
<pdfrwt beam="2">  1       -3 0.21675969E+00 0.45173484E+03</pdfrwt>
<totfact> 0.65197990E-01</totfact>
</mgrwt>
</event>
<event>
12    1  0.8033771E-008  0.1304558E+04  0.7818608E-02  0.9025958E-01
         -2   -1    0    0    0  501 -0.00000000000E+00  0.00000000000E+00  0.50859805978E+03  0.50859805978E+03  0.00000000000E+00 0.  1.
          2   -1    0    0  501    0  0.00000000000E+00 -0.00000000000E+00 -0.34154144938E+04  0.34154144938E+04  0.00000000000E+00 0. -1.
         23    2    1    2    0    0  0.12114089864E+04 -0.27777741064E+03 -0.15471809762E+04  0.19866944183E+04  0.92269803154E+02 0.  0.
    5000000    2    1    2    0    0 -0.12114089864E+04  0.27777741064E+03 -0.13596354578E+04  0.19373181352E+04  0.59993412696E+03 0.  0.
         23    2    4    4    0    0 -0.83400475509E+03 -0.86045722221E+02 -0.90588539754E+03  0.12377332167E+04  0.91582554959E+02 0.  0.
         23    2    4    4    0    0 -0.37740423133E+03  0.36382313286E+03 -0.45375006029E+03  0.69958491855E+03  0.93427593520E+02 0.  0.
          1    1    3    3  502    0  0.43062317944E+03 -0.14421988510E+03 -0.56773601647E+03  0.72702123925E+03  0.00000000000E+00 0. -1.
         -1    1    3    3    0  502  0.78078580697E+03 -0.13355752553E+03 -0.97944495971E+03  0.12596731791E+04  0.00000000000E+00 0.  1.
         15    1    5    5    0    0 -0.57099646911E+03 -0.57550889627E+02 -0.68051842988E+03  0.89020085586E+03  0.17770000000E+01 0.  1.
        -15    1    5    5    0    0 -0.26300828597E+03 -0.28494832595E+02 -0.22536696766E+03  0.34753236082E+03  0.17770000000E+01 0. -1.
          2    1    6    6  503    0 -0.24235541816E+02  0.28507740668E+02 -0.57271372002E+01  0.37853043016E+02  0.00000000000E+00 0. -1.
         -2    1    6    6    0  503 -0.35316868951E+03  0.33531539219E+03 -0.44802292309E+03  0.66173187554E+03  0.00000000000E+00 0.  1.
<mgrwt>
<rscale>  0 0.13045582E+04</rscale>
<asrwt>0</asrwt>
<pdfrwt beam="1">  1        2 0.52544840E+00 0.13045582E+04</pdfrwt>
<pdfrwt beam="2">  1       -2 0.78245853E-01 0.13045582E+04</pdfrwt>
<totfact> 0.13357804E+00</totfact>
</mgrwt>
</event>
<event>
12    1  0.8033771E-008  0.2754091E+03  0.7818608E-02  0.1098223E+00
          1   -1    0    0  501    0  0.00000000000E+00  0.00000000000E+00  0.16169606458E+04  0.16169606458E+04  0.00000000000E+00 0. -1.
         -1   -1    0    0    0  501 -0.00000000000E+00 -0.00000000000E+00 -0.37478327325E+03  0.37478327325E+03  0.00000000000E+00 0.  1.
         23    2    1    2    0    0  0.19154546590E+03 -0.61544922199E+02  0.13347236738E+04  0.13521487128E+04  0.79632990779E+02 0.  0.
    5000000    2    1    2    0    0 -0.19154546590E+03  0.61544922199E+02 -0.92546301195E+02  0.63959520628E+03  0.60003313831E+03 0.  0.
         23    2    4    4    0    0 -0.20579509815E+03  0.13221800094E+03  0.19698352593E+03  0.32717230918E+03  0.91684176431E+02 0.  0.
         23    2    4    4    0    0  0.14249632254E+02 -0.70673078742E+02 -0.28952982713E+03  0.31242289710E+03  0.92643455025E+02 0.  0.
          2    1    3    3  502    0  0.63421670600E+02 -0.61123319901E+02  0.51758143054E+03  0.52502276691E+03  0.00000000000E+00 0. -1.
         -2    1    3    3    0  502  0.12812379530E+03 -0.42160229824E+00  0.81714224322E+03  0.82712594586E+03  0.00000000000E+00 0.  1.
         15    1    5    5    0    0 -0.12470286677E+03  0.12814189099E+03  0.12060164884E+03  0.21568278707E+03  0.17770000000E+01 0.  1.
        -15    1    5    5    0    0 -0.81092231384E+02  0.40761099561E+01  0.76381877092E+02  0.11148952211E+03  0.17770000000E+01 0. -1.
          4    1    6    6  503    0  0.19008392605E+02 -0.58671634552E+02 -0.73241780755E+02  0.95749872786E+02  0.00000000000E+00 0. -1.
         -4    1    6    6    0  503 -0.47587603510E+01 -0.12001444190E+02 -0.21628804637E+03  0.21667302431E+03  0.00000000000E+00 0.  1.
<mgrwt>
<rscale>  0 0.27540911E+03</rscale>
<asrwt>0</asrwt>
<pdfrwt beam="1">  1        1 0.24876317E+00 0.27540911E+03</pdfrwt>
<pdfrwt beam="2">  1       -1 0.57658966E-01 0.27540911E+03</pdfrwt>
<totfact> 0.19087150E+01</totfact>
</mgrwt>
</event>
<event>
12    1  0.8033771E-008  0.7820527E+03  0.7818608E-02  0.9586365E-01
         -2   -1    0    0    0  501 -0.00000000000E+00  0.00000000000E+00  0.34944372594E+03  0.34944372594E+03  0.00000000000E+00 0.  1.
          2   -1    0    0  501    0  0.00000000000E+00 -0.00000000000E+00 -0.27772706965E+04  0.27772706965E+04  0.00000000000E+00 0. -1.
         23    2    1    2    0    0  0.20710284480E+03 -0.73384806403E+03 -0.18360708523E+04  0.19902732366E+04  0.92772907062E+02 0.  0.
    5000000    2    1    2    0    0 -0.20710284480E+03  0.73384806403E+03 -0.59175611826E+03  0.11364411858E+04  0.59991557400E+03 0.  0.
         23    2    4    4    0    0 -0.18147769553E+03  0.62489648803E+03 -0.69698180592E+03  0.95887512679E+03  0.10113405098E+03 0.  0.
         23    2    4    4    0    0 -0.25625149274E+02  0.10895157600E+03  0.10522568766E+03  0.17756605903E+03  0.89051478309E+02 0.  0.
          4    1    3    3  502    0  0.10305510001E+02 -0.93434881318E+02 -0.30187087266E+03  0.31616815833E+03  0.00000000000E+00 0. -1.
         -4    1    3    3    0  502  0.19679733480E+03 -0.64041318271E+03 -0.15341999796E+04  0.16741050782E+04  0.00000000000E+00 0.  1.
         15    1    5    5    0    0 -0.12930150422E+03  0.26656103136E+03 -0.30392168244E+03  0.42443516492E+03  0.17770000000E+01 0. -1.
        -15    1    5    5    0    0 -0.52176191305E+02  0.35833545667E+03 -0.39306012348E+03  0.53443996187E+03  0.17770000000E+01 0.  1.
          2    1    6    6  503    0 -0.41154553560E+02  0.11716121338E+03  0.83565978854E+02  0.14967872268E+03  0.00000000000E+00 0. -1.
         -2    1    6    6    0  503  0.15529404286E+02 -0.82096373857E+01  0.21659708806E+02  0.27887336356E+02  0.00000000000E+00 0.  1.
<mgrwt>
<rscale>  0 0.78205267E+03</rscale>
<asrwt>0</asrwt>
<pdfrwt beam="1">  1        2 0.42727241E+00 0.78205267E+03</pdfrwt>
<pdfrwt beam="2">  1       -2 0.53760574E-01 0.78205267E+03</pdfrwt>
<totfact> 0.81800839E+00</totfact>
</mgrwt>
</event>
<event>
12    1  0.8033771E-008  0.1131705E+04  0.7818608E-02  0.9174830E-01
          2   -1    0    0  501    0  0.00000000000E+00  0.00000000000E+00  0.17494223947E+04  0.17494223947E+04  0.00000000000E+00 0. -1.
         -2   -1    0    0    0  501 -0.00000000000E+00 -0.00000000000E+00 -0.10319249722E+04  0.10319249722E+04  0.00000000000E+00 0.  1.
         23    2    1    2    0    0 -0.11170209819E+04  0.29847065218E+02 -0.29420012364E+03  0.11589809333E+04  0.89757282523E+02 0.  0.
    5000000    2    1    2    0    0  0.11170209819E+04 -0.29847065218E+02  0.10116975462E+04  0.16223664336E+04  0.59992849450E+03 0.  0.
         23    2    4    4    0    0  0.96547218608E+03 -0.39408565658E+02  0.52286987878E+03  0.11022734626E+04  0.89018532775E+02 0.  0.
         23    2    4    4    0    0  0.15154879580E+03  0.95615004400E+01  0.48882766741E+03  0.52009297091E+03  0.92118131601E+02 0.  0.
          2    1    3    3  502    0 -0.46737630780E+03  0.54659127189E+02 -0.10948302601E+03  0.48313017528E+03  0.00000000000E+00 0. -1.
         -2    1    3    3    0  502 -0.64964467407E+03 -0.24812061971E+02 -0.18471709762E+03  0.67585075802E+03  0.00000000000E+00 0.  1.
         15    1    5    5    0    0  0.25122714643E+03 -0.10732499412E+02  0.18149610272E+03  0.31011974893E+03  0.17770000000E+01 0.  1.
        -15    1    5    5    0    0  0.71424503965E+03 -0.28676066246E+02  0.34137377607E+03  0.79215371372E+03  0.17770000000E+01 0. -1.
          4    1    6    6  503    0  0.82945642092E+02  0.49960417215E+02  0.23838452214E+03  0.25729983137E+03  0.00000000000E+00 0. -1.
         -4    1    6    6    0  503  0.68603153704E+02 -0.40398916775E+02  0.25044314528E+03  0.26279313954E+03  0.00000000000E+00 0.  1.
<mgrwt>
<rscale>  0 0.11317048E+04</rscale>
<asrwt>0</asrwt>
<pdfrwt beam="1">  1        2 0.26914191E+00 0.11317048E+04</pdfrwt>
<pdfrwt beam="2">  1       -2 0.15875769E+00 0.11317048E+04</pdfrwt>
<totfact> 0.23187054E+00</totfact>
</mgrwt>
</event>
<event>
12    1  0.8033771E-008  0.7650536E+03  0.7818608E-02  0.9612025E-01
         -1   -1    0    0    0  501 -0.00000000000E+00  0.00000000000E+00  0.78661112788E+03  0.78661112788E+03  0.00000000000E+00 0.  1.
          1   -1    0    0  501    0  0.00000000000E+00 -0.00000000000E+00 -0.80936937644E+03  0.80936937644E+03  0.00000000000E+00 0. -1.
         23    2    1    2    0    0 -0.53251197792E+03 -0.40476994858E+03  0.12334889741E+03  0.68571055857E+03  0.87041953967E+02 0.  0.
    5000000    2    1    2    0    0  0.53251197792E+03  0.40476994858E+03 -0.14610714597E+03  0.91026994575E+03  0.59986361628E+03 0.  0.
         23    2    4    4    0    0 -0.95090141376E+02  0.72920549484E+02  0.64740452907E+02  0.16417274680E+03  0.91661458784E+02 0.  0.
         23    2    4    4    0    0  0.62760211930E+03  0.33184939909E+03 -0.21084759887E+03  0.74609719895E+03  0.90531080323E+02 0.  0.
          4    1    3    3  502    0 -0.27148093455E+03 -0.26062905369E+03  0.67642020798E+02  0.38236742072E+03  0.00000000000E+00 0. -1.
         -4    1    3    3    0  502 -0.26103104337E+03 -0.14414089489E+03  0.55706876611E+02  0.30334313785E+03  0.00000000000E+00 0.  1.
         15    1    5    5    0    0 -0.10717729071E+03  0.59171530612E+02  0.31890665825E+02  0.12652436119E+03  0.17770000000E+01 0. -1.
        -15    1    5    5    0    0  0.12087149334E+02  0.13749018873E+02  0.32849787081E+02  0.37648385613E+02  0.17770000000E+01 0.  1.
          3    1    6    6  503    0  0.36635411770E+03  0.23936209620E+03 -0.11050168466E+03  0.45135371380E+03  0.00000000000E+00 0. -1.
         -3    1    6    6    0  503  0.26124800160E+03  0.92487302889E+02 -0.10034591421E+03  0.29474348514E+03  0.00000000000E+00 0.  1.
<mgrwt>
<rscale>  0 0.76505362E+03</rscale>
<asrwt>0</asrwt>
<pdfrwt beam="1">  1        1 0.12451836E+00 0.76505362E+03</pdfrwt>
<pdfrwt beam="2">  1       -1 0.12101710E+00 0.76505362E+03</pdfrwt>
<totfact> 0.13520720E+01</totfact>
</mgrwt>
</event>
<event>
12    1  0.8033771E-008  0.3273377E+03  0.7818608E-02  0.1072321E+00
          1   -1    0    0  501    0  0.00000000000E+00  0.00000000000E+00  0.51463724441E+03  0.51463724441E+03  0.00000000000E+00 0. -1.
         -1   -1    0    0    0  501 -0.00000000000E+00 -0.00000000000E+00 -0.59858647428E+03  0.59858647428E+03  0.00000000000E+00 0.  1.
         23    2    1    2    0    0  0.19971810788E+03 -0.38691801032E+02  0.29891529087E+03  0.37283596604E+03  0.90950142252E+02 0.  0.
    5000000    2    1    2    0    0 -0.19971810788E+03  0.38691801032E+02 -0.38286452074E+03  0.74038775265E+03  0.60017031328E+03 0.  0.
         23    2    4    4    0    0 -0.18454879763E+03  0.18705412015E+03 -0.46836481266E+03  0.54508908373E+03  0.93322070760E+02 0.  0.
         23    2    4    4    0    0 -0.15169310255E+02 -0.14836231912E+03  0.85500291913E+02  0.19529866892E+03  0.92681090067E+02 0.  0.
          3    1    3    3  502    0  0.10812137300E+03 -0.66631309177E+02  0.17503123265E+03  0.21625423710E+03  0.00000000000E+00 0. -1.
         -3    1    3    3    0  502  0.91596734886E+02  0.27939508145E+02  0.12388405823E+03  0.15658172895E+03  0.00000000000E+00 0.  1.
         15    1    5    5    0    0 -0.71210375318E+02  0.12286042600E+03 -0.30255419703E+03  0.33422717080E+03  0.17770000000E+01 0. -1.
        -15    1    5    5    0    0 -0.11333842231E+03  0.64193694154E+02 -0.16581061563E+03  0.21086191293E+03  0.17770000000E+01 0.  1.
          1    1    6    6  503    0  0.21028315769E+02 -0.37388823085E+02  0.63319921319E+02  0.76482197874E+02  0.00000000000E+00 0. -1.
         -1    1    6    6    0  503 -0.36197626024E+02 -0.11097349604E+03  0.22180370595E+02  0.11881647105E+03  0.00000000000E+00 0.  1.
<mgrwt>
<rscale>  0 0.32733771E+03</rscale>
<asrwt>0</asrwt>
<pdfrwt beam="1">  1        1 0.79174961E-01 0.32733771E+03</pdfrwt>
<pdfrwt beam="2">  1       -1 0.92090226E-01 0.32733771E+03</pdfrwt>
<totfact> 0.52621882E+01</totfact>
</mgrwt>
</event>
<event>
12    1  0.8033771E-008  0.6803357E+03  0.7818608E-02  0.9751465E-01
         -1   -1    0    0    0  501 -0.00000000000E+00  0.00000000000E+00  0.52717576323E+03  0.52717576323E+03  0.00000000000E+00 0.  1.
          1   -1    0    0  501    0  0.00000000000E+00 -0.00000000000E+00 -0.94148125675E+03  0.94148125675E+03  0.00000000000E+00 0. -1.
         23    2    1    2    0    0 -0.56365193876E+03  0.68687253331E+01 -0.67107109298E+02  0.57523997953E+03  0.92989152445E+02 0.  0.
    5000000    2    1    2    0    0  0.56365193876E+03 -0.68687253331E+01 -0.34719838423E+03  0.89341704045E+03  0.59991382939E+03 0.  0.
         23    2    4    4    0    0  0.50650848041E+03 -0.22856258266E+03 -0.15820555433E+03  0.58318136704E+03  0.79245280812E+02 0.  0.
         23    2    4    4    0    0  0.57143458358E+02  0.22169385732E+03 -0.18899282990E+03  0.31023567341E+03  0.90079643039E+02 0.  0.
          3    1    3    3  502    0 -0.30417934186E+03  0.32830069382E+02 -0.72489491957E+02  0.31441630351E+03  0.00000000000E+00 0. -1.
         -3    1    3    3    0  502 -0.25947259690E+03 -0.25961344049E+02  0.53823826592E+01  0.26082367602E+03  0.00000000000E+00 0.  1.
         15    1    5    5    0    0  0.17061048084E+03 -0.95328981059E+02 -0.91135546861E+02  0.21564878027E+03  0.17770000000E+01 0.  1.
        -15    1    5    5    0    0  0.33589799957E+03 -0.13323360160E+03 -0.67070007467E+02  0.36753258677E+03  0.17770000000E+01 0. -1.
          3    1    6    6  503    0  0.70419375553E+02  0.17590590979E+03 -0.18073339327E+03  0.26185174622E+03  0.00000000000E+00 0.  1.
         -3    1    6    6    0  503 -0.13275917195E+02  0.45787947535E+02 -0.82594366290E+01  0.48383927189E+02  0.00000000000E+00 0. -1.
<mgrwt>
<rscale>  0 0.68033569E+03</rscale>
<asrwt>0</asrwt>
<pdfrwt beam="1">  1        1 0.14484327E+00 0.68033569E+03</pdfrwt>
<pdfrwt beam="2">  1       -1 0.81103965E-01 0.68033569E+03</pdfrwt>
<totfact> 0.26419484E+01</totfact>
</mgrwt>
</event>
<event>
12    1  0.8033771E-008  0.1136314E+04  0.7818608E-02  0.9170503E-01
         -1   -1    0    0    0  501 -0.00000000000E+00  0.00000000000E+00  0.11374548037E+04  0.11374548037E+04  0.00000000000E+00 0.  1.
          1   -1    0    0  501    0  0.00000000000E+00 -0.00000000000E+00 -0.13272988674E+04  0.13272988674E+04  0.00000000000E+00 0. -1.
         23    2    1    2    0    0  0.11930911107E+03 -0.10546879579E+04  0.36388174399E+03  0.11256718138E+04  0.90142976194E+02 0.  0.
    5000000    2    1    2    0    0 -0.11930911107E+03  0.10546879579E+04 -0.55372580768E+03  0.13390818573E+04  0.59993882844E+03 0.  0.
         23    2    4    4    0    0 -0.32046259029E+03  0.82954435213E+03 -0.47996840845E+03  0.10149324362E+04  0.94223527347E+02 0.  0.
         23    2    4    4    0    0  0.20115347922E+03  0.22514360579E+03 -0.73757399239E+02  0.32414942105E+03  0.92088695264E+02 0.  0.
          4    1    3    3  502    0  0.16334649734E+02 -0.38542269039E+03  0.96525697344E+02  0.39766151599E+03  0.00000000000E+00 0.  1.
         -4    1    3    3    0  502  0.10297446134E+03 -0.66926526752E+03  0.26735604665E+03  0.72801029778E+03  0.00000000000E+00 0. -1.
         15    1    5    5    0    0 -0.39997345411E+02  0.21571474919E+03 -0.11762086325E+03  0.24893867891E+03  0.17770000000E+01 0.  1.
        -15    1    5    5    0    0 -0.28046524488E+03  0.61382960294E+03 -0.36234754519E+03  0.76599375733E+03  0.17770000000E+01 0. -1.
          4    1    6    6  503    0  0.10090384555E+03  0.47622535734E+02 -0.20622173784E+02  0.11346702609E+03  0.00000000000E+00 0. -1.
         -4    1    6    6    0  503  0.10024963366E+03  0.17752107006E+03 -0.53135225455E+02  0.21068239497E+03  0.00000000000E+00 0.  1.
<mgrwt>
<rscale>  0 0.11363141E+04</rscale>
<asrwt>0</asrwt>
<pdfrwt beam="1">  1        1 0.20419983E+00 0.11363141E+04</pdfrwt>
<pdfrwt beam="2">  1       -1 0.17499305E+00 0.11363141E+04</pdfrwt>
<totfact> 0.19319310E+00</totfact>
</mgrwt>
</event>
<event>
12    1  0.8033771E-008  0.1016940E+04  0.7818608E-02  0.9290158E-01
          1   -1    0    0  501    0  0.00000000000E+00  0.00000000000E+00  0.12301618390E+04  0.12301618390E+04  0.00000000000E+00 0. -1.
         -1   -1    0    0    0  501 -0.00000000000E+00 -0.00000000000E+00 -0.11235120068E+04  0.11235120068E+04  0.00000000000E+00 0.  1.
         23    2    1    2    0    0 -0.89014904556E+03  0.39489861669E+03  0.55574214613E+03  0.11247778380E+04  0.89250271684E+02 0.  0.
    5000000    2    1    2    0    0  0.89014904556E+03 -0.39489861669E+03 -0.44909231384E+03  0.12288960078E+04  0.60015935461E+03 0.  0.
         23    2    4    4    0    0  0.32100520049E+03 -0.35700475594E+03  0.12471135157E+02  0.48978769445E+03  0.96123472225E+02 0.  0.
         23    2    4    4    0    0  0.56914384507E+03 -0.37893860753E+02 -0.46156344900E+03  0.73910831338E+03  0.88767225934E+02 0.  0.
          1    1    3    3  502    0 -0.38606656440E+03  0.21943699596E+03  0.25930251893E+03  0.51423514433E+03  0.00000000000E+00 0.  1.
         -1    1    3    3    0  502 -0.50408248116E+03  0.17546162073E+03  0.29643962720E+03  0.61054269363E+03  0.00000000000E+00 0. -1.
         15    1    5    5    0    0  0.85454064625E+02 -0.10660653353E+03  0.46473977720E+02  0.14432719247E+03  0.17770000000E+01 0.  1.
        -15    1    5    5    0    0  0.23555113587E+03 -0.25039822241E+03 -0.34002842564E+02  0.34546050198E+03  0.17770000000E+01 0. -1.
          3    1    6    6  503    0  0.32785515777E+03 -0.60139621826E+02 -0.29448865213E+03  0.44478010840E+03  0.00000000000E+00 0. -1.
         -3    1    6    6    0  503  0.24128868730E+03  0.22245761073E+02 -0.16707479687E+03  0.29432820499E+03  0.00000000000E+00 0.  1.
<mgrwt>
<rscale>  0 0.10169398E+04</rscale>
<asrwt>0</asrwt>
<pdfrwt beam="1">  1        1 0.18925567E+00 0.10169398E+04</pdfrwt>
<pdfrwt beam="2">  1       -1 0.17284800E+00 0.10169398E+04</pdfrwt>
<totfact> 0.23865534E+00</totfact>
</mgrwt>
</event>
<event>
12    1  0.8033771E-008  0.9025897E+03  0.7818608E-02  0.9422350E-01
         -1   -1    0    0    0  501 -0.00000000000E+00  0.00000000000E+00  0.74588828992E+03  0.74588828992E+03  0.00000000000E+00 0.  1.
          1   -1    0    0  501    0  0.00000000000E+00 -0.00000000000E+00 -0.12529385381E+04  0.12529385381E+04  0.00000000000E+00 0. -1.
         23    2    1    2    0    0  0.24936275504E+02  0.82386358438E+03  0.60875338358E+02  0.83183797621E+03  0.94210340985E+02 0.  0.
    5000000    2    1    2    0    0 -0.24936275504E+02 -0.82386358438E+03 -0.56792558654E+03  0.11669888518E+04  0.59995873599E+03 0.  0.
         23    2    4    4    0    0  0.23181835629E+03 -0.50550196937E+03 -0.16795866591E+03  0.58785647734E+03  0.89961842759E+02 0.  0.
         23    2    4    4    0    0 -0.25675463180E+03 -0.31836161501E+03 -0.39996692063E+03  0.57913237446E+03  0.90242510443E+02 0.  0.
          3    1    3    3  502    0  0.19053846361E+02  0.24430146262E+03 -0.23370409289E+02  0.24615529596E+03  0.00000000000E+00 0. -1.
         -3    1    3    3    0  502  0.58824291432E+01  0.57956212176E+03  0.84245747648E+02  0.58568268025E+03  0.00000000000E+00 0.  1.
         15    1    5    5    0    0  0.18070640224E+03 -0.29265200941E+03 -0.11457221994E+03  0.36253269333E+03  0.17770000000E+01 0. -1.
        -15    1    5    5    0    0  0.51111954056E+02 -0.21284995995E+03 -0.53386445979E+02  0.22532378402E+03  0.17770000000E+01 0.  1.
          2    1    6    6  503    0 -0.14094997723E+03 -0.10806067565E+03 -0.19142920947E+03  0.26113051898E+03  0.00000000000E+00 0. -1.
         -2    1    6    6    0  503 -0.11580465457E+03 -0.21030093936E+03 -0.20853771116E+03  0.31800185548E+03  0.00000000000E+00 0.  1.
<mgrwt>
<rscale>  0 0.90258969E+03</rscale>
<asrwt>0</asrwt>
<pdfrwt beam="1">  1        1 0.19275977E+00 0.90258969E+03</pdfrwt>
<pdfrwt beam="2">  1       -1 0.11475205E+00 0.90258969E+03</pdfrwt>
<totfact> 0.68507743E+00</totfact>
</mgrwt>
</event>
<event>
12    1  0.8033771E-008  0.8355132E+03  0.7818608E-02  0.9509990E-01
         -1   -1    0    0    0  501 -0.00000000000E+00  0.00000000000E+00  0.17053307756E+04  0.17053307756E+04  0.00000000000E+00 0.  1.
          1   -1    0    0  501    0  0.00000000000E+00 -0.00000000000E+00 -0.51368187553E+03  0.51368187553E+03  0.00000000000E+00 0. -1.
         23    2    1    2    0    0  0.55251209091E+03  0.59203395820E+03  0.78716637213E+03  0.11329007693E+04  0.89774368938E+02 0.  0.
    5000000    2    1    2    0    0 -0.55251209091E+03 -0.59203395820E+03  0.40448252795E+03  0.10861118819E+04  0.60021586639E+03 0.  0.
         23    2    4    4    0    0 -0.45483857804E+03 -0.33891453780E+03  0.52389598617E+03  0.77758265281E+03  0.91796413972E+02 0.  0.
         23    2    4    4    0    0 -0.97673512871E+02 -0.25311942040E+03 -0.11941345822E+03  0.30852922907E+03  0.85563748664E+02 0.  0.
          3    1    3    3  502    0  0.24298998804E+03  0.32047313190E+03  0.41433302772E+03  0.57742447161E+03  0.00000000000E+00 0. -1.
         -3    1    3    3    0  502  0.30952210287E+03  0.27156082630E+03  0.37283334441E+03  0.55547629765E+03  0.00000000000E+00 0.  1.
         15    1    5    5    0    0 -0.20229776614E+03 -0.10269006736E+03  0.23897886098E+03  0.32952039367E+03  0.17770000000E+01 0. -1.
        -15    1    5    5    0    0 -0.25254081190E+03 -0.23622447044E+03  0.28491712518E+03  0.44806225914E+03  0.17770000000E+01 0.  1.
          1    1    6    6  503    0  0.13420332174E+02 -0.61146925028E+02 -0.29351249116E+02  0.69141504039E+02  0.00000000000E+00 0. -1.
         -1    1    6    6    0  503 -0.11109384505E+03 -0.19197249537E+03 -0.90062209099E+02  0.23938772503E+03  0.00000000000E+00 0.  1.
<mgrwt>
<rscale>  0 0.83551324E+03</rscale>
<asrwt>0</asrwt>
<pdfrwt beam="1">  1        1 0.79027982E-01 0.83551324E+03</pdfrwt>
<pdfrwt beam="2">  1       -1 0.26235858E+00 0.83551324E+03</pdfrwt>
<totfact> 0.25514894E+00</totfact>
</mgrwt>
</event>
<event>
12    1  0.8033771E-008  0.7761487E+03  0.7818608E-02  0.9595197E-01
         -1   -1    0    0    0  501 -0.00000000000E+00  0.00000000000E+00  0.55953820569E+03  0.55953820569E+03  0.00000000000E+00 0.  1.
          1   -1    0    0  501    0  0.00000000000E+00 -0.00000000000E+00 -0.13302908921E+04  0.13302908921E+04  0.00000000000E+00 0. -1.
         23    2    1    2    0    0 -0.11320815316E+03  0.67579809059E+03 -0.68791348063E+03  0.97533305101E+03  0.92360480509E+02 0.  0.
    5000000    2    1    2    0    0  0.11320815316E+03 -0.67579809059E+03 -0.82839205745E+02  0.91449604674E+03  0.59993461335E+03 0.  0.
         23    2    4    4    0    0 -0.98722594238E+02 -0.64065822832E+03  0.30412032352E+02  0.65534198058E+03  0.91428133903E+02 0.  0.
         23    2    4    4    0    0  0.21193074740E+03 -0.35139862276E+02 -0.11325123810E+03  0.25915406616E+03  0.90473949091E+02 0.  0.
          4    1    3    3  502    0 -0.33782844386E+02  0.29743218569E+03 -0.36153108046E+03  0.46937395305E+03  0.00000000000E+00 0.  1.
         -4    1    3    3    0  502 -0.79425308775E+02  0.37836590491E+03 -0.32638240017E+03  0.50595909796E+03  0.00000000000E+00 0. -1.
         15    1    5    5    0    0  0.14347310183E+01  0.68931647916E+00 -0.46986689501E+01  0.52696137625E+01  0.17770000000E+01 0. -1.
        -15    1    5    5    0    0 -0.10015732526E+03 -0.64134754480E+03  0.35110701302E+02  0.65007236681E+03  0.17770000000E+01 0.  1.
          1    1    6    6  503    0  0.27180128711E+01 -0.25388758558E+00 -0.31853122517E+02  0.31969883749E+02  0.00000000000E+00 0. -1.
         -1    1    6    6    0  503  0.20921273453E+03 -0.34885974690E+02 -0.81398115581E+02  0.22718418241E+03  0.00000000000E+00 0.  1.
<mgrwt>
<rscale>  0 0.77614868E+03</rscale>
<asrwt>0</asrwt>
<pdfrwt beam="1">  1        1 0.20466013E+00 0.77614868E+03</pdfrwt>
<pdfrwt beam="2">  1       -1 0.86082802E-01 0.77614868E+03</pdfrwt>
<totfact> 0.11825117E+01</totfact>
</mgrwt>
</event>
<event>
12    1  0.8033771E-008  0.5748784E+03  0.7818608E-02  0.9958941E-01
          1   -1    0    0  501    0  0.00000000000E+00  0.00000000000E+00  0.16541011086E+04  0.16541011086E+04  0.00000000000E+00 0. -1.
         -1   -1    0    0    0  501 -0.00000000000E+00 -0.00000000000E+00 -0.38239428672E+03  0.38239428672E+03  0.00000000000E+00 0.  1.
         23    2    1    2    0    0 -0.51494873218E+03 -0.62552401188E+01  0.11114901685E+04  0.12297100217E+04  0.10754077370E+03 0.  0.
    5000000    2    1    2    0    0  0.51494873218E+03  0.62552401188E+01  0.16021665339E+03  0.80678537362E+03  0.60001828161E+03 0.  0.
         23    2    4    4    0    0  0.95586636722E+02 -0.14791806740E+03  0.27368609294E+03  0.33734959010E+03  0.88792503549E+02 0.  0.
         23    2    4    4    0    0  0.41936209546E+03  0.15417330752E+03 -0.11346943956E+03  0.46943578352E+03  0.88660392938E+02 0.  0.
          1    1    3    3  502    0 -0.17845903286E+03  0.19803958108E+02  0.50004733779E+03  0.53130703289E+03  0.00000000000E+00 0. -1.
         -1    1    3    3    0  502 -0.33648969932E+03 -0.26059198226E+02  0.61144283070E+03  0.69840298881E+03  0.00000000000E+00 0.  1.
         15    1    5    5    0    0  0.64710382602E+02 -0.71641533745E+02  0.21670368255E+03  0.23724162099E+03  0.17770000000E+01 0.  1.
        -15    1    5    5    0    0  0.30876254120E+02 -0.76276533654E+02  0.56982410399E+02  0.10010796911E+03  0.17770000000E+01 0. -1.
          3    1    6    6  503    0  0.31501693821E+03  0.77657985204E+02 -0.99113192413E+02  0.33924896305E+03  0.00000000000E+00 0. -1.
         -3    1    6    6    0  503  0.10434515725E+03  0.76515322314E+02 -0.14356247147E+02  0.13018682047E+03  0.00000000000E+00 0.  1.
<mgrwt>
<rscale>  0 0.57487836E+03</rscale>
<asrwt>0</asrwt>
<pdfrwt beam="1">  1        1 0.25447709E+00 0.57487836E+03</pdfrwt>
<pdfrwt beam="2">  1       -1 0.58829891E-01 0.57487836E+03</pdfrwt>
<totfact> 0.16021388E+01</totfact>
</mgrwt>
</event>
<event>
12    1  0.8033771E-008  0.7602695E+03  0.7818608E-02  0.9619375E-01
         -1   -1    0    0    0  501 -0.00000000000E+00  0.00000000000E+00  0.46109973036E+03  0.46109973036E+03  0.00000000000E+00 0. -1.
          1   -1    0    0  501    0  0.00000000000E+00 -0.00000000000E+00 -0.29008650704E+04  0.29008650704E+04  0.00000000000E+00 0.  1.
         23    2    1    2    0    0 -0.60651420581E+03 -0.43722802592E+03 -0.13504312020E+02  0.75319702667E+03  0.89975363503E+02 0.  0.
    5000000    2    1    2    0    0  0.60651420581E+03  0.43722802592E+03 -0.24262610280E+04  0.26087677741E+04  0.59991573954E+03 0.  0.
         23    2    4    4    0    0  0.13069346642E+03  0.49651686010E+02 -0.14004516579E+04  0.14103447320E+04  0.90891940710E+02 0.  0.
         23    2    4    4    0    0  0.47582073939E+03  0.38757633991E+03 -0.10258093702E+04  0.11984230421E+04  0.85510985860E+02 0.  0.
          2    1    3    3  502    0 -0.57633860076E+03 -0.41519522705E+03  0.74516619427E+01  0.71035821003E+03  0.00000000000E+00 0.  1.
         -2    1    3    3    0  502 -0.30175605053E+02 -0.22032798870E+02 -0.20955973962E+02  0.42838816640E+02  0.00000000000E+00 0. -1.
         15    1    5    5    0    0  0.58205076917E+01 -0.16542788375E+02 -0.34775537549E+03  0.34820181084E+03  0.17770000000E+01 0. -1.
        -15    1    5    5    0    0  0.12487295873E+03  0.66194474386E+02 -0.10526962824E+04  0.10621429211E+04  0.17770000000E+01 0.  1.
          2    1    6    6  503    0  0.17947389232E+03  0.15582611922E+03 -0.32000825033E+03  0.39862004181E+03  0.00000000000E+00 0. -1.
         -2    1    6    6    0  503  0.29634684707E+03  0.23175022069E+03 -0.70580111985E+03  0.79980300033E+03  0.00000000000E+00 0.  1.
<mgrwt>
<rscale>  0 0.76026955E+03</rscale>
<asrwt>0</asrwt>
<pdfrwt beam="1">  1        1 0.44628692E+00 0.76026955E+03</pdfrwt>
<pdfrwt beam="2">  1       -1 0.70938422E-01 0.76026955E+03</pdfrwt>
<totfact> 0.15178530E+00</totfact>
</mgrwt>
</event>
<event>
12    1  0.8033771E-008  0.5749836E+03  0.7818608E-02  0.9958711E-01
         -2   -1    0    0    0  501 -0.00000000000E+00  0.00000000000E+00  0.96002677457E+03  0.96002677457E+03  0.00000000000E+00 0.  1.
          2   -1    0    0  501    0  0.00000000000E+00 -0.00000000000E+00 -0.54899180876E+03  0.54899180876E+03  0.00000000000E+00 0. -1.
         23    2    1    2    0    0 -0.41551061242E+03 -0.26976134546E+03 -0.17644096030E+03  0.53408851224E+03  0.93267753767E+02 0.  0.
    5000000    2    1    2    0    0  0.41551061242E+03  0.26976134546E+03  0.58747592611E+03  0.97493007109E+03  0.59995035396E+03 0.  0.
         23    2    4    4    0    0  0.46377808106E+03  0.31539801597E+03  0.25420263543E+03  0.62302252155E+03  0.94720987914E+02 0.  0.
         23    2    4    4    0    0 -0.48267468637E+02 -0.45636670509E+02  0.33327329068E+03  0.35190754954E+03  0.91407783705E+02 0.  0.
          3    1    3    3  502    0 -0.12334486310E+03 -0.13238494150E+03 -0.54422048607E+02  0.18894837222E+03  0.00000000000E+00 0. -1.
         -3    1    3    3    0  502 -0.29216574932E+03 -0.13737640396E+03 -0.12201891169E+03  0.34514014002E+03  0.00000000000E+00 0.  1.
         15    1    5    5    0    0  0.33920940973E+03  0.20836427299E+03  0.13608606891E+03  0.42071518844E+03  0.17770000000E+01 0.  1.
        -15    1    5    5    0    0  0.12456867133E+03  0.10703374298E+03  0.11811656652E+03  0.20230733311E+03  0.17770000000E+01 0. -1.
          3    1    6    6  503    0 -0.48096809424E+02 -0.11187055903E+02  0.29991689053E+03  0.30395492185E+03  0.00000000000E+00 0. -1.
         -3    1    6    6    0  503 -0.17065921310E+00 -0.34449614606E+02  0.33356400150E+02  0.47952627686E+02  0.00000000000E+00 0.  1.
<mgrwt>
<rscale>  0 0.57498361E+03</rscale>
<asrwt>0</asrwt>
<pdfrwt beam="1">  1        2 0.84460278E-01 0.57498361E+03</pdfrwt>
<pdfrwt beam="2">  1       -2 0.14769643E+00 0.57498361E+03</pdfrwt>
<totfact> 0.17782622E+01</totfact>
</mgrwt>
</event>
<event>
12    1  0.8033771E-008  0.6677477E+03  0.7818608E-02  0.9774035E-01
          1   -1    0    0  501    0  0.00000000000E+00  0.00000000000E+00  0.79668936605E+03  0.79668936605E+03  0.00000000000E+00 0. -1.
         -1   -1    0    0    0  501 -0.00000000000E+00 -0.00000000000E+00 -0.10193188088E+04  0.10193188088E+04  0.00000000000E+00 0.  1.
         23    2    1    2    0    0  0.30959499414E+03  0.54619563390E+03  0.39783711385E+03  0.74874618653E+03  0.90375615006E+02 0.  0.
    5000000    2    1    2    0    0 -0.30959499414E+03 -0.54619563390E+03 -0.62046655657E+03  0.10672619883E+04  0.59990888720E+03 0.  0.
         23    2    4    4    0    0 -0.19881302531E+03 -0.10188590983E+03  0.53739487539E+02  0.24720848211E+03  0.91196181132E+02 0.  0.
         23    2    4    4    0    0 -0.11078196883E+03 -0.44430972407E+03 -0.67420604411E+03  0.82005350618E+03  0.90830543102E+02 0.  0.
          1    1    3    3  502    0  0.21205326518E+02  0.93170409688E+02  0.80663071566E+02  0.12504767982E+03  0.00000000000E+00 0. -1.
         -1    1    3    3    0  502  0.28838966762E+03  0.45302522422E+03  0.31717404229E+03  0.62369850670E+03  0.00000000000E+00 0.  1.
         15    1    5    5    0    0 -0.31587331398E+02 -0.61632797575E+02  0.16269837100E+02  0.71163379416E+02  0.17770000000E+01 0. -1.
        -15    1    5    5    0    0 -0.16722569391E+03 -0.40253112254E+02  0.37469650439E+02  0.17604510269E+03  0.17770000000E+01 0.  1.
          3    1    6    6  503    0 -0.39814179645E+02 -0.27754152384E+03 -0.34819613287E+03  0.44705146606E+03  0.00000000000E+00 0. -1.
         -3    1    6    6    0  503 -0.70967789184E+02 -0.16676820023E+03 -0.32600991124E+03  0.37300204012E+03  0.00000000000E+00 0.  1.
<mgrwt>
<rscale>  0 0.66774766E+03</rscale>
<asrwt>0</asrwt>
<pdfrwt beam="1">  1        1 0.12256759E+00 0.66774766E+03</pdfrwt>
<pdfrwt beam="2">  1       -1 0.15681828E+00 0.66774766E+03</pdfrwt>
<totfact> 0.71953404E+00</totfact>
</mgrwt>
</event>
<event>
12    1  0.8033771E-008  0.7226051E+03  0.7818608E-02  0.9679337E-01
         -2   -1    0    0    0  501 -0.00000000000E+00  0.00000000000E+00  0.62351325003E+03  0.62351325003E+03  0.00000000000E+00 0.  1.
          2   -1    0    0  501    0  0.00000000000E+00 -0.00000000000E+00 -0.10794063708E+04  0.10794063708E+04  0.00000000000E+00 0. -1.
         23    2    1    2    0    0  0.35053116172E+03 -0.53282813389E+03 -0.51623059546E+03  0.82539522363E+03  0.89472520355E+02 0.  0.
    5000000    2    1    2    0    0 -0.35053116172E+03  0.53282813389E+03  0.60337474707E+02  0.87752439719E+03  0.59969203864E+03 0.  0.
         23    2    4    4    0    0  0.24225686579E+02 -0.51129183586E+02  0.13546325551E+03  0.17412659163E+03  0.93641331760E+02 0.  0.
         23    2    4    4    0    0 -0.37475684829E+03  0.58395731748E+03 -0.75125780801E+02  0.70339780556E+03  0.87611334597E+02 0.  0.
          1    1    3    3  502    0  0.19341507727E+03 -0.28221016231E+03 -0.33308717514E+03  0.47749244399E+03  0.00000000000E+00 0. -1.
         -1    1    3    3    0  502  0.15711608444E+03 -0.25061797159E+03 -0.18314342031E+03  0.34790277963E+03  0.00000000000E+00 0.  1.
         15    1    5    5    0    0 -0.28790629895E+02 -0.46511928809E+02  0.82664497459E+02  0.99140490015E+02  0.17770000000E+01 0.  1.
        -15    1    5    5    0    0  0.53016316474E+02 -0.46172547769E+01  0.52798758050E+02  0.74986101611E+02  0.17770000000E+01 0. -1.
          1    1    6    6  503    0 -0.14898814024E+03  0.31277853758E+03 -0.42016186343E+02  0.34898888151E+03  0.00000000000E+00 0. -1.
         -1    1    6    6    0  503 -0.22576870805E+03  0.27117877990E+03 -0.33109594458E+02  0.35440892406E+03  0.00000000000E+00 0.  1.
<mgrwt>
<rscale>  0 0.72260513E+03</rscale>
<asrwt>0</asrwt>
<pdfrwt beam="1">  1        2 0.16606252E+00 0.72260513E+03</pdfrwt>
<pdfrwt beam="2">  1       -2 0.95925115E-01 0.72260513E+03</pdfrwt>
<totfact> 0.20860103E+01</totfact>
</mgrwt>
</event>
<event>
12    1  0.8033771E-008  0.7636697E+03  0.7818608E-02  0.9614146E-01
          1   -1    0    0  501    0  0.00000000000E+00  0.00000000000E+00  0.12376585660E+04  0.12376585660E+04  0.00000000000E+00 0. -1.
         -1   -1    0    0    0  501 -0.00000000000E+00 -0.00000000000E+00 -0.55325677300E+03  0.55325677300E+03  0.00000000000E+00 0.  1.
         23    2    1    2    0    0 -0.58998398569E+03 -0.40486864964E+03  0.30042332076E+03  0.78130310952E+03  0.90446948344E+02 0.  0.
    5000000    2    1    2    0    0  0.58998398569E+03  0.40486864964E+03  0.38397847220E+03  0.10096122294E+04  0.59989804126E+03 0.  0.
         23    2    4    4    0    0  0.19289931712E+03  0.34709620675E+03 -0.51665698568E+02  0.41112898185E+03  0.93122349751E+02 0.  0.
         23    2    4    4    0    0  0.39708466857E+03  0.57772442886E+02  0.43564417077E+03  0.59848324760E+03  0.85921271856E+02 0.  0.
          2    1    3    3  502    0 -0.28970832301E+03 -0.21422640693E+03  0.19818204998E+03  0.41121769269E+03  0.00000000000E+00 0. -1.
         -2    1    3    3    0  502 -0.30027566267E+03 -0.19064224271E+03  0.10224127078E+03  0.37008541683E+03  0.00000000000E+00 0.  1.
         15    1    5    5    0    0  0.17310646723E+03  0.26434510313E+03 -0.94443805488E+01  0.31612740565E+03  0.17770000000E+01 0. -1.
        -15    1    5    5    0    0  0.19792849882E+02  0.82751103622E+02 -0.42221318019E+02  0.95001576205E+02  0.17770000000E+01 0.  1.
          1    1    6    6  503    0  0.13109073925E+03  0.60196279211E+02  0.14674081485E+03  0.20576987314E+03  0.00000000000E+00 0. -1.
         -1    1    6    6    0  503  0.26599392932E+03 -0.24238363248E+01  0.28890335592E+03  0.39271337446E+03  0.00000000000E+00 0.  1.
<mgrwt>
<rscale>  0 0.76366966E+03</rscale>
<asrwt>0</asrwt>
<pdfrwt beam="1">  1        1 0.19040901E+00 0.76366966E+03</pdfrwt>
<pdfrwt beam="2">  1       -1 0.85116427E-01 0.76366966E+03</pdfrwt>
<totfact> 0.14123677E+01</totfact>
</mgrwt>
</event>
<event>
12    1  0.8033771E-008  0.9368832E+03  0.7818608E-02  0.9380615E-01
         -1   -1    0    0    0  501 -0.00000000000E+00  0.00000000000E+00  0.64226959192E+03  0.64226959192E+03  0.00000000000E+00 0.  1.
          1   -1    0    0  501    0  0.00000000000E+00 -0.00000000000E+00 -0.15489845844E+04  0.15489845844E+04  0.00000000000E+00 0. -1.
         23    2    1    2    0    0 -0.48579362889E+03  0.70049599531E+03 -0.74586251496E+03  0.11363905651E+04  0.91556189623E+02 0.  0.
    5000000    2    1    2    0    0  0.48579362889E+03 -0.70049599531E+03 -0.16085247750E+03  0.10548636112E+04  0.60014467375E+03 0.  0.
         23    2    4    4    0    0  0.60297080975E+03 -0.50492991394E+03 -0.80407865134E+02  0.79569454495E+03  0.90201822011E+02 0.  0.
         23    2    4    4    0    0 -0.11717718086E+03 -0.19556608137E+03 -0.80444612361E+02  0.25916906626E+03  0.93384609824E+02 0.  0.
          1    1    3    3  502    0 -0.37184734367E+03  0.48564164851E+03 -0.49348490968E+03  0.78590432869E+03  0.00000000000E+00 0. -1.
         -1    1    3    3    0  502 -0.11394628522E+03  0.21485434680E+03 -0.25237760528E+03  0.35048623640E+03  0.00000000000E+00 0.  1.
         15    1    5    5    0    0  0.16833767319E+03 -0.19069385131E+03 -0.80168269319E+01  0.25449782786E+03  0.17770000000E+01 0. -1.
        -15    1    5    5    0    0  0.43463313656E+03 -0.31423606263E+03 -0.72391038203E+02  0.54119671709E+03  0.17770000000E+01 0.  1.
          4    1    6    6  503    0 -0.55302706917E+02 -0.10217445751E+03 -0.89670485262E+02  0.14676104758E+03  0.00000000000E+00 0. -1.
         -4    1    6    6    0  503 -0.61874473939E+02 -0.93391623862E+02  0.92258729009E+01  0.11240801868E+03  0.00000000000E+00 0.  1.
<mgrwt>
<rscale>  0 0.93688321E+03</rscale>
<asrwt>0</asrwt>
<pdfrwt beam="1">  1        1 0.23830532E+00 0.93688321E+03</pdfrwt>
<pdfrwt beam="2">  1       -1 0.98810707E-01 0.93688321E+03</pdfrwt>
<totfact> 0.60094050E+00</totfact>
</mgrwt>
</event>
<event>
12    1  0.8033771E-008  0.4992584E+03  0.7818608E-02  0.1013973E+00
         -2   -1    0    0    0  501 -0.00000000000E+00  0.00000000000E+00  0.11810846453E+04  0.11810846453E+04  0.00000000000E+00 0. -1.
          2   -1    0    0  501    0  0.00000000000E+00 -0.00000000000E+00 -0.26182671513E+03  0.26182671513E+03  0.00000000000E+00 0.  1.
         23    2    1    2    0    0  0.24436436260E+03 -0.27619043156E+03  0.17469128360E+03  0.41793460859E+03  0.90317198197E+02 0.  0.
    5000000    2    1    2    0    0 -0.24436436260E+03  0.27619043156E+03  0.74456664652E+03  0.10249767518E+04  0.60016893821E+03 0.  0.
         23    2    4    4    0    0  0.10958115961E+03 -0.37614316003E+02  0.41352320932E+03  0.44049744777E+03  0.98049423928E+02 0.  0.
         23    2    4    4    0    0 -0.35394552221E+03  0.31380474757E+03  0.33104343720E+03  0.58447930402E+03  0.90969485123E+02 0.  0.
          1    1    3    3  502    0  0.15900238506E+03 -0.23700475711E+03  0.13907543095E+03  0.31748226540E+03  0.00000000000E+00 0. -1.
         -1    1    3    3    0  502  0.85361977539E+02 -0.39185674455E+02  0.35615852648E+02  0.10045234319E+03  0.00000000000E+00 0.  1.
         15    1    5    5    0    0  0.12212374857E+03 -0.36964710238E+02  0.29656972453E+03  0.32285810970E+03  0.17770000000E+01 0.  1.
        -15    1    5    5    0    0 -0.12542588956E+02 -0.64960576543E+00  0.11695348480E+03  0.11763933807E+03  0.17770000000E+01 0. -1.
          4    1    6    6  503    0 -0.30077509175E+03  0.22588513409E+03  0.28479751020E+03  0.47180437836E+03  0.00000000000E+00 0. -1.
         -4    1    6    6    0  503 -0.53170430467E+02  0.87919613473E+02  0.46245927003E+02  0.11267492567E+03  0.00000000000E+00 0.  1.
<mgrwt>
<rscale>  0 0.49925840E+03</rscale>
<asrwt>0</asrwt>
<pdfrwt beam="1">  1        2 0.40281034E-01 0.49925840E+03</pdfrwt>
<pdfrwt beam="2">  1       -2 0.18170533E+00 0.49925840E+03</pdfrwt>
<totfact> 0.23420777E+01</totfact>
</mgrwt>
</event>
<event>
12    1  0.8033771E-008  0.2510742E+04  0.7818608E-02  0.8399169E-01
          2   -1    0    0  501    0  0.00000000000E+00  0.00000000000E+00  0.41834446302E+04  0.41834446302E+04  0.00000000000E+00 0. -1.
         -2   -1    0    0    0  501 -0.00000000000E+00 -0.00000000000E+00 -0.15611290888E+04  0.15611290888E+04  0.00000000000E+00 0.  1.
         23    2    1    2    0    0  0.23210356845E+04 -0.86023523975E+03  0.18213626861E+04  0.30746166474E+04  0.93242574368E+02 0.  0.
    5000000    2    1    2    0    0 -0.23210356845E+04  0.86023523975E+03  0.80095285527E+03  0.26699570716E+04  0.59994497377E+03 0.  0.
         23    2    4    4    0    0 -0.89136391225E+03  0.62839171669E+03  0.38877767779E+03  0.11612886989E+04  0.89652583318E+02 0.  0.
         23    2    4    4    0    0 -0.14296717722E+04  0.23184352305E+03  0.41217517749E+03  0.15086683728E+04  0.92081955302E+02 0.  0.
          4    1    3    3  502    0  0.13108161338E+04 -0.53421592323E+03  0.10304304764E+04  0.17508319611E+04  0.00000000000E+00 0. -1.
         -4    1    3    3    0  502  0.10102195507E+04 -0.32601931651E+03  0.79093220972E+03  0.13237846863E+04  0.00000000000E+00 0.  1.
         15    1    5    5    0    0 -0.61770091643E+03  0.48088090207E+03  0.29504439959E+03  0.83657349922E+03  0.17770000000E+01 0.  1.
        -15    1    5    5    0    0 -0.27366299582E+03  0.14751081462E+03  0.93733278202E+02  0.32471519964E+03  0.17770000000E+01 0. -1.
          1    1    6    6  503    0 -0.64168533132E+03  0.14619028662E+03  0.20704377911E+03  0.68992665610E+03  0.00000000000E+00 0. -1.
         -1    1    6    6    0  503 -0.78798644093E+03  0.85653236434E+02  0.20513139837E+03  0.81874171666E+03  0.00000000000E+00 0.  1.
<mgrwt>
<rscale>  0 0.25107420E+04</rscale>
<asrwt>0</asrwt>
<pdfrwt beam="1">  1        2 0.64360686E+00 0.25107420E+04</pdfrwt>
<pdfrwt beam="2">  1       -2 0.24017371E+00 0.25107420E+04</pdfrwt>
<totfact> 0.15011772E-02</totfact>
</mgrwt>
</event>
<event>
12    1  0.8033771E-008  0.1364783E+04  0.7818608E-02  0.8979712E-01
          1   -1    0    0  501    0  0.00000000000E+00  0.00000000000E+00  0.19854962386E+04  0.19854962386E+04  0.00000000000E+00 0. -1.
         -1   -1    0    0    0  501 -0.00000000000E+00 -0.00000000000E+00 -0.96151278502E+03  0.96151278502E+03  0.00000000000E+00 0.  1.
         23    2    1    2    0    0 -0.13101122291E+04 -0.16866283312E+01  0.37020063846E+03  0.13645948226E+04  0.93132268832E+02 0.  0.
    5000000    2    1    2    0    0  0.13101122291E+04  0.16866283312E+01  0.65378281510E+03  0.15824142010E+04  0.60017150616E+03 0.  0.
         23    2    4    4    0    0  0.10126443612E+04  0.22766642926E+03  0.37295736223E+03  0.11064262100E+04  0.88324168730E+02 0.  0.
         23    2    4    4    0    0  0.29746786785E+03 -0.22597980093E+03  0.28082545287E+03  0.47598799103E+03  0.90264222125E+02 0.  0.
          3    1    3    3  502    0 -0.12907383413E+04 -0.12973970842E+02  0.36686947656E+03  0.13419266010E+04  0.00000000000E+00 0. -1.
         -3    1    3    3    0  502 -0.19373887774E+02  0.11287342510E+02  0.33311619010E+01  0.22668221546E+02  0.00000000000E+00 0.  1.
         15    1    5    5    0    0  0.55713043347E+03  0.16855552550E+03  0.19609291299E+03  0.61421565702E+03  0.17770000000E+01 0. -1.
        -15    1    5    5    0    0  0.45551392778E+03  0.59110903762E+02  0.17686444924E+03  0.49221055299E+03  0.17770000000E+01 0.  1.
          1    1    6    6  503    0  0.21678984137E+02 -0.70063217425E+01 -0.39235011963E+01  0.23118407367E+02  0.00000000000E+00 0. -1.
         -1    1    6    6    0  503  0.27578888371E+03 -0.21897347919E+03  0.28474895406E+03  0.45286958367E+03  0.00000000000E+00 0.  1.
<mgrwt>
<rscale>  0 0.13647835E+04</rscale>
<asrwt>0</asrwt>
<pdfrwt beam="1">  1        1 0.30546096E+00 0.13647835E+04</pdfrwt>
<pdfrwt beam="2">  1       -1 0.14792504E+00 0.13647835E+04</pdfrwt>
<totfact> 0.10642600E+00</totfact>
</mgrwt>
</event>
<event>
12    1  0.8033771E-008  0.1221569E+04  0.7818608E-02  0.9094184E-01
          2   -1    0    0  501    0  0.00000000000E+00  0.00000000000E+00  0.16756643630E+04  0.16756643630E+04  0.00000000000E+00 0. -1.
         -2   -1    0    0    0  501 -0.00000000000E+00 -0.00000000000E+00 -0.92533592592E+03  0.92533592592E+03  0.00000000000E+00 0.  1.
         23    2    1    2    0    0  0.42053834734E+03 -0.10692876488E+04  0.59004610806E+03  0.12948816742E+04  0.91299304313E+02 0.  0.
    5000000    2    1    2    0    0 -0.42053834734E+03  0.10692876488E+04  0.16028232906E+03  0.13061186148E+04  0.60002236067E+03 0.  0.
         23    2    4    4    0    0 -0.44364653740E+03  0.36584591285E+03  0.18392681699E+02  0.58247314479E+03  0.90946091537E+02 0.  0.
         23    2    4    4    0    0  0.23108190058E+02  0.70344173598E+03  0.14188964736E+03  0.72364546998E+03  0.90364981206E+02 0.  0.
          1    1    3    3  502    0  0.19357206028E+03 -0.39222481880E+03  0.25234869456E+03  0.50496565690E+03  0.00000000000E+00 0. -1.
         -1    1    3    3    0  502  0.22696628706E+03 -0.67706283003E+03  0.33769741350E+03  0.78991601728E+03  0.00000000000E+00 0.  1.
         15    1    5    5    0    0 -0.10056152133E+03  0.37662313871E+02  0.23415228961E+01  0.10742304184E+03  0.17770000000E+01 0. -1.
        -15    1    5    5    0    0 -0.34308501606E+03  0.32818359898E+03  0.16051158803E+02  0.47505010295E+03  0.17770000000E+01 0.  1.
          1    1    6    6  503    0  0.55123888847E+02  0.54854110087E+03  0.11578281879E+03  0.56333084736E+03  0.00000000000E+00 0. -1.
         -1    1    6    6    0  503 -0.32015698789E+02  0.15490063511E+03  0.26106828568E+02  0.16031462262E+03  0.00000000000E+00 0.  1.
<mgrwt>
<rscale>  0 0.12215688E+04</rscale>
<asrwt>0</asrwt>
<pdfrwt beam="1">  1        2 0.25779452E+00 0.12215688E+04</pdfrwt>
<pdfrwt beam="2">  1       -2 0.14235937E+00 0.12215688E+04</pdfrwt>
<totfact> 0.33769099E+00</totfact>
</mgrwt>
</event>
<event>
12    1  0.8033771E-008  0.1006591E+04  0.7818608E-02  0.9301346E-01
          1   -1    0    0  501    0  0.00000000000E+00  0.00000000000E+00  0.24801758929E+04  0.24801758929E+04  0.00000000000E+00 0. -1.
         -1   -1    0    0    0  501 -0.00000000000E+00 -0.00000000000E+00 -0.65689360570E+03  0.65689360570E+03  0.00000000000E+00 0.  1.
         23    2    1    2    0    0 -0.62822606218E+03  0.75121262898E+03  0.17233211864E+04  0.19842629323E+04  0.92060163602E+02 0.  0.
    5000000    2    1    2    0    0  0.62822606218E+03 -0.75121262898E+03  0.99961100843E+02  0.11528065664E+04  0.59998529873E+03 0.  0.
         23    2    4    4    0    0  0.19899260608E+03 -0.46622163953E+03 -0.19634017991E+03  0.55154958834E+03  0.93256676461E+02 0.  0.
         23    2    4    4    0    0  0.42923345610E+03 -0.28499098945E+03  0.29630128076E+03  0.60125697805E+03  0.90853072466E+02 0.  0.
          3    1    3    3  502    0 -0.20183275466E+03  0.26240677904E+03  0.50099287516E+03  0.60048949991E+03  0.00000000000E+00 0. -1.
         -3    1    3    3    0  502 -0.42639330752E+03  0.48880584994E+03  0.12223283112E+04  0.13837734324E+04  0.00000000000E+00 0.  1.
         15    1    5    5    0    0  0.12334325737E+03 -0.20800498511E+03 -0.56668599090E+02  0.24838301234E+03  0.17770000000E+01 0. -1.
        -15    1    5    5    0    0  0.75649348711E+02 -0.25821665442E+03 -0.13967158082E+03  0.30316657599E+03  0.17770000000E+01 0.  1.
          3    1    6    6  503    0  0.17974926102E+03 -0.17169046157E+03  0.15534941623E+03  0.29312258964E+03  0.00000000000E+00 0. -1.
         -3    1    6    6    0  503  0.24948419507E+03 -0.11330052788E+03  0.14095186452E+03  0.30813438841E+03  0.00000000000E+00 0.  1.
<mgrwt>
<rscale>  0 0.10065905E+04</rscale>
<asrwt>0</asrwt>
<pdfrwt beam="1">  1        1 0.38156552E+00 0.10065905E+04</pdfrwt>
<pdfrwt beam="2">  1       -1 0.10106056E+00 0.10065905E+04</pdfrwt>
<totfact> 0.13232565E+00</totfact>
</mgrwt>
</event>
<event>
12    1  0.8033771E-008  0.9384386E+03  0.7818608E-02  0.9378767E-01
         -1   -1    0    0    0  501 -0.00000000000E+00  0.00000000000E+00  0.65522346110E+03  0.65522346110E+03  0.00000000000E+00 0.  1.
          1   -1    0    0  501    0  0.00000000000E+00 -0.00000000000E+00 -0.15060890954E+04  0.15060890954E+04  0.00000000000E+00 0. -1.
         23    2    1    2    0    0 -0.30753043604E+03 -0.84586188078E+03 -0.36398452739E+03  0.97503854684E+03  0.90322429079E+02 0.  0.
    5000000    2    1    2    0    0  0.30753043604E+03  0.84586188078E+03 -0.48688110694E+03  0.11862740097E+04  0.60011292546E+03 0.  0.
         23    2    4    4    0    0  0.18753878146E+03  0.13172711707E+03  0.83809095254E+02  0.26006741786E+03  0.89934806749E+02 0.  0.
         23    2    4    4    0    0  0.11999165459E+03  0.71413476371E+03 -0.57069020219E+03  0.92620659182E+03  0.88232000682E+02 0.  0.
          1    1    3    3  502    0 -0.94336643391E+02 -0.17204850216E+03 -0.10340079606E+03  0.22179227671E+03  0.00000000000E+00 0. -1.
         -1    1    3    3    0  502 -0.21319379265E+03 -0.67381337862E+03 -0.26058373133E+03  0.75324627013E+03  0.00000000000E+00 0.  1.
         15    1    5    5    0    0  0.11157309386E+03  0.25966488177E+02  0.25450019774E+02  0.11736130119E+03  0.17770000000E+01 0. -1.
        -15    1    5    5    0    0  0.75965687597E+02  0.10576062889E+03  0.58359075480E+02  0.14270611667E+03  0.17770000000E+01 0.  1.
          3    1    6    6  503    0  0.13121522547E+03  0.58629517090E+03 -0.48130041002E+03  0.76981137138E+03  0.00000000000E+00 0. -1.
         -3    1    6    6    0  503 -0.11223570881E+02  0.12783959281E+03 -0.89389792167E+02  0.15639522044E+03  0.00000000000E+00 0.  1.
<mgrwt>
<rscale>  0 0.93843864E+03</rscale>
<asrwt>0</asrwt>
<pdfrwt beam="1">  1        1 0.23170601E+00 0.93843864E+03</pdfrwt>
<pdfrwt beam="2">  1       -1 0.10080361E+00 0.93843864E+03</pdfrwt>
<totfact> 0.61427670E+00</totfact>
</mgrwt>
</event>
<event>
12    1  0.8033771E-008  0.3928635E+03  0.7818608E-02  0.1046279E+00
         -3   -1    0    0    0  501 -0.00000000000E+00  0.00000000000E+00  0.69182826811E+02  0.69182826811E+02  0.00000000000E+00 0.  1.
          3   -1    0    0  501    0  0.00000000000E+00 -0.00000000000E+00 -0.24247061721E+04  0.24247061721E+04  0.00000000000E+00 0. -1.
         23    2    1    2    0    0 -0.86239740985E+02 -0.13372554961E+03 -0.73760788292E+03  0.76068675121E+03  0.96224367891E+02 0.  0.
    5000000    2    1    2    0    0  0.86239740985E+02  0.13372554961E+03 -0.16179154624E+04  0.17332022477E+04  0.60084920948E+03 0.  0.
         23    2    4    4    0    0  0.21039623257E+03  0.30606805328E+03 -0.11354527088E+04  0.11983120352E+04  0.93566295848E+02 0.  0.
         23    2    4    4    0    0 -0.12415649159E+03 -0.17234250368E+03 -0.48246275358E+03  0.53489021258E+03  0.90666741088E+02 0.  0.
          3    1    3    3  502    0 -0.70472726877E+02 -0.23316118474E+02 -0.31196007920E+03  0.32066982650E+03  0.00000000000E+00 0. -1.
         -3    1    3    3    0  502 -0.15767014108E+02 -0.11040943113E+03 -0.42564780372E+03  0.44001692471E+03  0.00000000000E+00 0.  1.
         15    1    5    5    0    0  0.85764489220E+02  0.20143160840E+03 -0.60131421479E+03  0.63993138938E+03  0.17770000000E+01 0.  1.
        -15    1    5    5    0    0  0.12463174335E+03  0.10463644488E+03 -0.53413849404E+03  0.55838064579E+03  0.17770000000E+01 0. -1.
          2    1    6    6  503    0 -0.44524918610E+02 -0.10481501290E+03 -0.16332363524E+03  0.19910616548E+03  0.00000000000E+00 0. -1.
         -2    1    6    6    0  503 -0.79631572975E+02 -0.67527490781E+02 -0.31913911834E+03  0.33578404709E+03  0.00000000000E+00 0.  1.
<mgrwt>
<rscale>  0 0.39286348E+03</rscale>
<asrwt>0</asrwt>
<pdfrwt beam="1">  1        3 0.37303165E+00 0.39286348E+03</pdfrwt>
<pdfrwt beam="2">  1       -3 0.10643514E-01 0.39286348E+03</pdfrwt>
<totfact> 0.30134287E+00</totfact>
</mgrwt>
</event>
<event>
12    1  0.8033771E-008  0.7960185E+03  0.7818608E-02  0.9565798E-01
         -2   -1    0    0    0  501 -0.00000000000E+00  0.00000000000E+00  0.83784469596E+03  0.83784469596E+03  0.00000000000E+00 0. -1.
          2   -1    0    0  501    0  0.00000000000E+00 -0.00000000000E+00 -0.87714347161E+03  0.87714347161E+03  0.00000000000E+00 0.  1.
         23    2    1    2    0    0  0.52524189176E+03 -0.53028957850E+03 -0.82223964193E+02  0.75639201340E+03  0.91005580754E+02 0.  0.
    5000000    2    1    2    0    0 -0.52524189176E+03  0.53028957850E+03  0.42925188541E+02  0.95859615417E+03  0.59998161059E+03 0.  0.
         23    2    4    4    0    0 -0.34517217859E+03  0.53269250764E+03  0.22958267542E+03  0.68113439392E+03  0.91272762453E+02 0.  0.
         23    2    4    4    0    0 -0.18006971317E+03 -0.24029291393E+01 -0.18665748688E+03  0.27746176024E+03  0.98555239939E+02 0.  0.
          2    1    3    3  502    0  0.49755073571E+03 -0.46733970774E+03 -0.66503174337E+02  0.68584678262E+03  0.00000000000E+00 0. -1.
         -2    1    3    3    0  502  0.27691156043E+02 -0.62949870760E+02 -0.15720789856E+02  0.70545230777E+02  0.00000000000E+00 0.  1.
         15    1    5    5    0    0 -0.13846135674E+03  0.24512289520E+03  0.57338699402E+02  0.28731109488E+03  0.17770000000E+01 0. -1.
        -15    1    5    5    0    0 -0.20671082185E+03  0.28756961244E+03  0.17224397602E+03  0.39382329905E+03  0.17770000000E+01 0.  1.
          1    1    6    6  503    0 -0.19050169008E+03  0.73995229847E+01 -0.16933720860E+03  0.25499164120E+03  0.00000000000E+00 0. -1.
         -1    1    6    6    0  503  0.10431976917E+02 -0.98024521240E+01 -0.17320278282E+02  0.22470119043E+02  0.00000000000E+00 0.  1.
<mgrwt>
<rscale>  0 0.79601853E+03</rscale>
<asrwt>0</asrwt>
<pdfrwt beam="1">  1        2 0.13494515E+00 0.79601853E+03</pdfrwt>
<pdfrwt beam="2">  1       -2 0.12889918E+00 0.79601853E+03</pdfrwt>
<totfact> 0.13634581E+01</totfact>
</mgrwt>
</event>
<event>
12    1  0.8033771E-008  0.8367836E+03  0.7818608E-02  0.9508249E-01
         -2   -1    0    0    0  501 -0.00000000000E+00  0.00000000000E+00  0.71522182278E+03  0.71522182278E+03  0.00000000000E+00 0.  1.
          2   -1    0    0  501    0  0.00000000000E+00 -0.00000000000E+00 -0.16506657102E+04  0.16506657102E+04  0.00000000000E+00 0. -1.
         23    2    1    2    0    0  0.78135593186E+03 -0.27293696876E+03  0.18157401222E+03  0.85179532184E+03  0.87031415155E+02 0.  0.
    5000000    2    1    2    0    0 -0.78135593186E+03  0.27293696876E+03 -0.11170178996E+04  0.15140922111E+04  0.59977875469E+03 0.  0.
         23    2    4    4    0    0 -0.45156180197E+03  0.17521520025E+03 -0.10372844319E+04  0.11483497720E+04  0.90220722653E+02 0.  0.
         23    2    4    4    0    0 -0.32979412989E+03  0.97721768516E+02 -0.79733467731E+02  0.36574243914E+03  0.95375016431E+02 0.  0.
          1    1    3    3  502    0  0.42834578904E+03 -0.19530054395E+03  0.10154154883E+03  0.48159433510E+03  0.00000000000E+00 0. -1.
         -1    1    3    3    0  502  0.35301014282E+03 -0.77636424811E+02  0.80032463385E+02  0.37020098674E+03  0.00000000000E+00 0.  1.
         15    1    5    5    0    0 -0.96414583135E+02  0.47642634050E+02 -0.32407186128E+03  0.34145471358E+03  0.17770000000E+01 0. -1.
        -15    1    5    5    0    0 -0.35514721883E+03  0.12757256619E+03 -0.71321257063E+03  0.80689505843E+03  0.17770000000E+01 0.  1.
          2    1    6    6  503    0 -0.30504266291E+03  0.11525843241E+03 -0.78375421704E+02  0.33537775592E+03  0.00000000000E+00 0. -1.
         -2    1    6    6    0  503 -0.24751466978E+02 -0.17536663893E+02 -0.13580460270E+01  0.30364683220E+02  0.00000000000E+00 0.  1.
<mgrwt>
<rscale>  0 0.83678363E+03</rscale>
<asrwt>0</asrwt>
<pdfrwt beam="1">  1        2 0.25394857E+00 0.83678363E+03</pdfrwt>
<pdfrwt beam="2">  1       -2 0.11003413E+00 0.83678363E+03</pdfrwt>
<totfact> 0.69661309E+00</totfact>
</mgrwt>
</event>
<event>
12    1  0.8033771E-008  0.1518643E+04  0.7818608E-02  0.8872149E-01
         -1   -1    0    0    0  501 -0.00000000000E+00  0.00000000000E+00  0.11674841052E+04  0.11674841052E+04  0.00000000000E+00 0.  1.
          1   -1    0    0  501    0  0.00000000000E+00 -0.00000000000E+00 -0.20575883618E+04  0.20575883618E+04  0.00000000000E+00 0. -1.
         23    2    1    2    0    0  0.34096601629E+03  0.14476598299E+04 -0.52933452982E+03  0.15813029468E+04  0.91362780339E+02 0.  0.
    5000000    2    1    2    0    0 -0.34096601629E+03 -0.14476598299E+04 -0.36076972680E+03  0.16437695203E+04  0.59987218027E+03 0.  0.
         23    2    4    4    0    0 -0.40407540815E+03 -0.80473441447E+03 -0.40249988536E+03  0.98967913347E+03  0.81143183396E+02 0.  0.
         23    2    4    4    0    0  0.63109391859E+02 -0.64292541541E+03  0.41730158559E+02  0.65409038679E+03  0.93578538342E+02 0.  0.
          2    1    3    3  502    0  0.22356683527E+03  0.11169005013E+04 -0.39955524734E+03  0.12071011786E+04  0.00000000000E+00 0.  1.
         -2    1    3    3    0  502  0.11739918102E+03  0.33075932860E+03 -0.12977928248E+03  0.37420176820E+03  0.00000000000E+00 0. -1.
         15    1    5    5    0    0 -0.63244549379E+02 -0.12930162751E+03 -0.32875645079E+02  0.14765754187E+03  0.17770000000E+01 0.  1.
        -15    1    5    5    0    0 -0.34083085878E+03 -0.67543278696E+03 -0.36962424028E+03  0.84202159160E+03  0.17770000000E+01 0. -1.
          3    1    6    6  503    0  0.14309028224E+02 -0.56151322014E+02 -0.21717461214E+02  0.61881882439E+02  0.00000000000E+00 0. -1.
         -3    1    6    6    0  503  0.48800363635E+02 -0.58677409340E+03  0.63447619773E+02  0.59220850435E+03  0.00000000000E+00 0.  1.
<mgrwt>
<rscale>  0 0.15186430E+04</rscale>
<asrwt>0</asrwt>
<pdfrwt beam="1">  1        1 0.31655205E+00 0.15186430E+04</pdfrwt>
<pdfrwt beam="2">  1       -1 0.17961294E+00 0.15186430E+04</pdfrwt>
<totfact> 0.53898589E-01</totfact>
</mgrwt>
</event>
<event>
12    1  0.8766829E-008  0.1016517E+04  0.7818608E-02  0.9290613E-01
         -1   -1    0    0    0  501 -0.00000000000E+00  0.00000000000E+00  0.11334384689E+04  0.11334384689E+04  0.00000000000E+00 0.  1.
          1   -1    0    0  501    0  0.00000000000E+00 -0.00000000000E+00 -0.10347848858E+04  0.10347848858E+04  0.00000000000E+00 0. -1.
         23    2    1    2    0    0 -0.81317000736E+03 -0.55820832886E+03  0.19540730013E+03  0.10096418292E+04  0.91381677344E+02 0.  0.
    5000000    2    1    2    0    0  0.81317000736E+03  0.55820832886E+03 -0.96753716995E+02  0.11585815256E+04  0.60008988521E+03 0.  0.
         23    2    4    4    0    0  0.63421258666E+03  0.26972484320E+03 -0.29477229071E+03  0.75521001800E+03  0.92056351217E+02 0.  0.
         23    2    4    4    0    0  0.17895742070E+03  0.28848348567E+03  0.19801857372E+03  0.40337150756E+03  0.90822561333E+02 0.  0.
          3    1    3    3  502    0 -0.26272681147E+03 -0.20231940412E+03  0.10581907575E+03  0.34807498552E+03  0.00000000000E+00 0. -1.
         -3    1    3    3    0  502 -0.55044319589E+03 -0.35588892474E+03  0.89588224380E+02  0.66156684364E+03  0.00000000000E+00 0.  1.
         15    1    5    5    0    0  0.17854920952E+03  0.11949547837E+03 -0.10648929266E+03  0.23979598986E+03  0.17770000000E+01 0.  1.
        -15    1    5    5    0    0  0.45566337713E+03  0.15022936483E+03 -0.18828299806E+03  0.51541402814E+03  0.17770000000E+01 0. -1.
          3    1    6    6  503    0  0.17651458678E+03  0.21671818773E+03  0.15347866961E+03  0.31887281832E+03  0.00000000000E+00 0. -1.
         -3    1    6    6    0  503  0.24428339274E+01  0.71765297936E+02  0.44539904107E+02  0.84498689240E+02  0.00000000000E+00 0.  1.
<mgrwt>
<rscale>  0 0.10165166E+04</rscale>
<asrwt>0</asrwt>
<pdfrwt beam="1">  1        1 0.15919767E+00 0.10165166E+04</pdfrwt>
<pdfrwt beam="2">  1       -1 0.17437515E+00 0.10165166E+04</pdfrwt>
<totfact> 0.32537335E+00</totfact>
</mgrwt>
</event>
<event>
12    1  0.8033771E-008  0.6299015E+03  0.7818608E-02  0.9845241E-01
         -1   -1    0    0    0  501 -0.00000000000E+00  0.00000000000E+00  0.20431952329E+04  0.20431952329E+04  0.00000000000E+00 0.  1.
          1   -1    0    0  501    0  0.00000000000E+00 -0.00000000000E+00 -0.21471512435E+03  0.21471512435E+03  0.00000000000E+00 0. -1.
         23    2    1    2    0    0 -0.24907775172E+03  0.45256843681E+03  0.85616131370E+03  0.10040650381E+04  0.90975212450E+02 0.  0.
    5000000    2    1    2    0    0  0.24907775172E+03 -0.45256843681E+03  0.97231879482E+03  0.12538453191E+04  0.59988859722E+03 0.  0.
         23    2    4    4    0    0 -0.15097072785E+03 -0.25152580265E+03  0.55576764013E+03  0.63590661482E+03  0.97170792401E+02 0.  0.
         23    2    4    4    0    0  0.40004847957E+03 -0.20104263416E+03  0.41655115469E+03  0.61793870428E+03  0.88749371913E+02 0.  0.
          1    1    3    3  502    0 -0.15441385471E+03  0.29423545172E+03  0.46434868895E+03  0.57099723686E+03  0.00000000000E+00 0. -1.
         -1    1    3    3    0  502 -0.94663897010E+02  0.15833298509E+03  0.39181262475E+03  0.43306780125E+03  0.00000000000E+00 0.  1.
         15    1    5    5    0    0 -0.27759553136E+02 -0.74666545921E+02  0.24553445692E+03  0.25813952262E+03  0.17770000000E+01 0.  1.
        -15    1    5    5    0    0 -0.12321117471E+03 -0.17685925673E+03  0.31023318320E+03  0.37776709221E+03  0.17770000000E+01 0. -1.
          4    1    6    6  503    0  0.18643077030E+03 -0.88981585944E+02  0.25239506727E+03  0.32615552231E+03  0.00000000000E+00 0.  1.
         -4    1    6    6    0  503  0.21361770927E+03 -0.11206104821E+03  0.16415608742E+03  0.29178318197E+03  0.00000000000E+00 0. -1.
<mgrwt>
<rscale>  0 0.62990149E+03</rscale>
<asrwt>0</asrwt>
<pdfrwt beam="1">  1        1 0.33033097E-01 0.62990149E+03</pdfrwt>
<pdfrwt beam="2">  1       -1 0.31433771E+00 0.62990149E+03</pdfrwt>
<totfact> 0.38622189E+00</totfact>
</mgrwt>
</event>
<event>
12    1  0.8033771E-008  0.8791153E+03  0.7818608E-02  0.9452072E-01
         -1   -1    0    0    0  501 -0.00000000000E+00  0.00000000000E+00  0.19006517082E+04  0.19006517082E+04  0.00000000000E+00 0.  1.
          1   -1    0    0  501    0  0.00000000000E+00 -0.00000000000E+00 -0.43946076514E+03  0.43946076514E+03  0.00000000000E+00 0. -1.
         23    2    1    2    0    0 -0.47094812044E+03 -0.63640998379E+03  0.88818126692E+03  0.11935172369E+04  0.93848986758E+02 0.  0.
    5000000    2    1    2    0    0  0.47094812044E+03  0.63640998379E+03  0.57300967616E+03  0.11465952364E+04  0.59960882885E+03 0.  0.
         23    2    4    4    0    0 -0.10091827082E+03  0.23396902336E+02  0.34974283224E+02  0.14619208376E+03  0.97041292465E+02 0.  0.
         23    2    4    4    0    0  0.57186639127E+03  0.61301308145E+03  0.53803539293E+03  0.10004031527E+04  0.92239776343E+02 0.  0.
          3    1    3    3  502    0 -0.36551102393E+03 -0.47108154320E+03  0.60838403121E+03  0.85184931671E+03  0.00000000000E+00 0. -1.
         -3    1    3    3    0  502 -0.10543709651E+03 -0.16532844059E+03  0.27979723572E+03  0.34166792021E+03  0.00000000000E+00 0.  1.
         15    1    5    5    0    0 -0.80894498416E+02  0.49162191924E+02 -0.46959014760E+01  0.94794779436E+02  0.17770000000E+01 0. -1.
        -15    1    5    5    0    0 -0.20023772407E+02 -0.25765289588E+02  0.39670184700E+02  0.51397304327E+02  0.17770000000E+01 0.  1.
          2    1    6    6  503    0  0.47290013277E+03  0.49678736897E+03  0.47969511567E+03  0.83698245474E+03  0.00000000000E+00 0. -1.
         -2    1    6    6    0  503  0.98966258492E+02  0.11622571247E+03  0.58340277260E+02  0.16342069793E+03  0.00000000000E+00 0.  1.
<mgrwt>
<rscale>  0 0.87911533E+03</rscale>
<asrwt>0</asrwt>
<pdfrwt beam="1">  1        1 0.67609349E-01 0.87911533E+03</pdfrwt>
<pdfrwt beam="2">  1       -1 0.29240795E+00 0.87911533E+03</pdfrwt>
<totfact> 0.20139428E+00</totfact>
</mgrwt>
</event>
<event>
12    1  0.8033771E-008  0.8269088E+03  0.7818608E-02  0.9521864E-01
         -1   -1    0    0    0  501 -0.00000000000E+00  0.00000000000E+00  0.10958029345E+04  0.10958029345E+04  0.00000000000E+00 0.  1.
          1   -1    0    0  501    0  0.00000000000E+00 -0.00000000000E+00 -0.81874368194E+03  0.81874368194E+03  0.00000000000E+00 0. -1.
         23    2    1    2    0    0 -0.27666067104E+03  0.74903956141E+03 -0.16798974515E+03  0.82099196998E+03  0.90586250810E+02 0.  0.
    5000000    2    1    2    0    0  0.27666067104E+03 -0.74903956141E+03  0.44504899766E+03  0.10935546464E+04  0.60015978115E+03 0.  0.
         23    2    4    4    0    0  0.26940011550E+03 -0.36102352029E+03 -0.46141952033E+02  0.46087863589E+03  0.85823265215E+02 0.  0.
         23    2    4    4    0    0  0.72605555355E+01 -0.38801604113E+03  0.49119094969E+03  0.63267601052E+03  0.91658176893E+02 0.  0.
          1    1    3    3  502    0 -0.13561919339E+03  0.35064894610E+03 -0.33326694948E+02  0.37743597817E+03  0.00000000000E+00 0. -1.
         -1    1    3    3    0  502 -0.14104147765E+03  0.39839061531E+03 -0.13466305020E+03  0.44355599181E+03  0.00000000000E+00 0.  1.
         15    1    5    5    0    0  0.85080465895E+02 -0.18465675181E+03 -0.25890769618E+02  0.20496412209E+03  0.17770000000E+01 0.  1.
        -15    1    5    5    0    0  0.18431964961E+03 -0.17636676848E+03 -0.20251182415E+02  0.25591451380E+03  0.17770000000E+01 0. -1.
          1    1    6    6  503    0 -0.36877756822E+02 -0.22078370551E+03  0.30784692335E+03  0.38062467312E+03  0.00000000000E+00 0.  1.
         -1    1    6    6    0  503  0.44138312358E+02 -0.16723233561E+03  0.18334402634E+03  0.25205133740E+03  0.00000000000E+00 0. -1.
<mgrwt>
<rscale>  0 0.82690883E+03</rscale>
<asrwt>0</asrwt>
<pdfrwt beam="1">  1        1 0.12596057E+00 0.82690883E+03</pdfrwt>
<pdfrwt beam="2">  1       -1 0.16858507E+00 0.82690883E+03</pdfrwt>
<totfact> 0.54962338E+00</totfact>
</mgrwt>
</event>
<event>
12    1  0.8033771E-008  0.8259899E+03  0.7818608E-02  0.9523141E-01
         -2   -1    0    0    0  501 -0.00000000000E+00  0.00000000000E+00  0.74965932764E+03  0.74965932764E+03  0.00000000000E+00 0.  1.
          2   -1    0    0  501    0  0.00000000000E+00 -0.00000000000E+00 -0.11788020508E+04  0.11788020508E+04  0.00000000000E+00 0. -1.
         23    2    1    2    0    0  0.29278997437E+03  0.75854228959E+03  0.29936327285E+02  0.81855634868E+03  0.89587600012E+02 0.  0.
    5000000    2    1    2    0    0 -0.29278997437E+03 -0.75854228959E+03 -0.45907905046E+03  0.11099050298E+04  0.60001935500E+03 0.  0.
         23    2    4    4    0    0 -0.23405415823E+03 -0.39401729336E+03 -0.54771976105E+03  0.71983251153E+03  0.90171678255E+02 0.  0.
         23    2    4    4    0    0 -0.58735816140E+02 -0.36452499623E+03  0.88640710593E+02  0.39007251825E+03  0.89280596681E+02 0.  0.
          1    1    3    3  502    0  0.23516745317E+02  0.89591037416E+02 -0.23203230470E+02  0.95488120726E+02  0.00000000000E+00 0. -1.
         -1    1    3    3    0  502  0.26927322905E+03  0.66895125218E+03  0.53139557755E+02  0.72306822795E+03  0.00000000000E+00 0.  1.
         15    1    5    5    0    0 -0.13892378440E+03 -0.22386528797E+03 -0.38151774515E+03  0.46365335394E+03  0.17770000000E+01 0.  1.
        -15    1    5    5    0    0 -0.95130373830E+02 -0.17015200539E+03 -0.16620201590E+03  0.25617915759E+03  0.17770000000E+01 0. -1.
          2    1    6    6  503    0 -0.36563189436E+02 -0.35288968956E+03  0.84337850652E+02  0.36466542593E+03  0.00000000000E+00 0. -1.
         -2    1    6    6    0  503 -0.22172626704E+02 -0.11635306675E+02  0.43028599413E+01  0.25407092318E+02  0.00000000000E+00 0.  1.
<mgrwt>
<rscale>  0 0.82598994E+03</rscale>
<asrwt>0</asrwt>
<pdfrwt beam="1">  1        2 0.18135416E+00 0.82598994E+03</pdfrwt>
<pdfrwt beam="2">  1       -2 0.11533220E+00 0.82598994E+03</pdfrwt>
<totfact> 0.11538440E+01</totfact>
</mgrwt>
</event>
<event>
12    1  0.8033771E-008  0.6891360E+03  0.7818608E-02  0.9735994E-01
          2   -1    0    0  501    0  0.00000000000E+00  0.00000000000E+00  0.34428342735E+04  0.34428342735E+04  0.00000000000E+00 0. -1.
         -2   -1    0    0    0  501 -0.00000000000E+00 -0.00000000000E+00 -0.15171811729E+03  0.15171811729E+03  0.00000000000E+00 0.  1.
         23    2    1    2    0    0  0.51523857188E+03  0.26369800284E+03  0.10373012161E+04  0.11914657414E+04  0.92678893413E+02 0.  0.
    5000000    2    1    2    0    0 -0.51523857188E+03 -0.26369800284E+03  0.22538149401E+04  0.24030866494E+04  0.60011352069E+03 0.  0.
         23    2    4    4    0    0 -0.15661893431E+03 -0.37950886097E+03  0.87792802573E+03  0.97349421208E+03  0.91525386877E+02 0.  0.
         23    2    4    4    0    0 -0.35861963756E+03  0.11581085814E+03  0.13758869144E+04  0.14295924373E+04  0.93002884073E+02 0.  0.
          4    1    3    3  502    0  0.27376495489E+03  0.17360550551E+03  0.64830867508E+03  0.72483809244E+03  0.00000000000E+00 0. -1.
         -4    1    3    3    0  502  0.24147361698E+03  0.90092497323E+02  0.38899254101E+03  0.46662764892E+03  0.00000000000E+00 0.  1.
         15    1    5    5    0    0 -0.53626190790E+02 -0.23509729291E+03  0.55326544136E+03  0.60353319031E+03  0.17770000000E+01 0.  1.
        -15    1    5    5    0    0 -0.10299274352E+03 -0.14441156806E+03  0.32466258438E+03  0.36996102177E+03  0.17770000000E+01 0. -1.
          4    1    6    6  503    0 -0.24217120148E+03  0.64661042604E+02  0.74572471682E+03  0.78672313716E+03  0.00000000000E+00 0. -1.
         -4    1    6    6    0  503 -0.11644843608E+03  0.51149815531E+02  0.63016219756E+03  0.64286930019E+03  0.00000000000E+00 0.  1.
<mgrwt>
<rscale>  0 0.68913595E+03</rscale>
<asrwt>0</asrwt>
<pdfrwt beam="1">  1        2 0.52966675E+00 0.68913595E+03</pdfrwt>
<pdfrwt beam="2">  1       -2 0.23341251E-01 0.68913595E+03</pdfrwt>
<totfact> 0.15724789E+01</totfact>
</mgrwt>
</event>
<event>
12    1  0.8033771E-008  0.8925518E+03  0.7818608E-02  0.9434940E-01
         -2   -1    0    0    0  501 -0.00000000000E+00  0.00000000000E+00  0.14372662912E+04  0.14372662912E+04  0.00000000000E+00 0.  1.
          2   -1    0    0  501    0  0.00000000000E+00 -0.00000000000E+00 -0.89598649583E+03  0.89598649583E+03  0.00000000000E+00 0. -1.
         23    2    1    2    0    0  0.77352338881E+03 -0.36993713921E+03 -0.37711838202E+03  0.94089191440E+03  0.88698368125E+02 0.  0.
    5000000    2    1    2    0    0 -0.77352338881E+03  0.36993713921E+03  0.91839817741E+03  0.13923608727E+04  0.60001805593E+03 0.  0.
         23    2    4    4    0    0 -0.50329198220E+03  0.38868723489E+03  0.90052674248E+03  0.11061924750E+04  0.91284127971E+02 0.  0.
         23    2    4    4    0    0 -0.27023140661E+03 -0.18750095676E+02  0.17871434932E+02  0.28616839762E+03  0.90533885363E+02 0.  0.
          1    1    3    3  502    0  0.21589206143E+03 -0.14816842531E+03 -0.10984921926E+03  0.28395442490E+03  0.00000000000E+00 0. -1.
         -1    1    3    3    0  502  0.55763132738E+03 -0.22176871390E+03 -0.26726916276E+03  0.65693748950E+03  0.00000000000E+00 0.  1.
         15    1    5    5    0    0 -0.16052791493E+03  0.16811895919E+03  0.37359659964E+03  0.44001224176E+03  0.17770000000E+01 0. -1.
        -15    1    5    5    0    0 -0.34276406727E+03  0.22056827570E+03  0.52693014284E+03  0.66618023328E+03  0.17770000000E+01 0.  1.
          1    1    6    6  503    0 -0.81436187623E+01 -0.19352996788E+02 -0.87180511285E+01  0.22734586575E+02  0.00000000000E+00 0. -1.
         -1    1    6    6    0  503 -0.26208778785E+03  0.60290111217E+00  0.26589486061E+02  0.26343381104E+03  0.00000000000E+00 0.  1.
<mgrwt>
<rscale>  0 0.89255176E+03</rscale>
<asrwt>0</asrwt>
<pdfrwt beam="1">  1        2 0.13784408E+00 0.89255176E+03</pdfrwt>
<pdfrwt beam="2">  1       -2 0.22111789E+00 0.89255176E+03</pdfrwt>
<totfact> 0.28883233E+00</totfact>
</mgrwt>
</event>
<event>
12    1  0.8033771E-008  0.5520878E+03  0.7818608E-02  0.1001012E+00
          2   -1    0    0  501    0  0.00000000000E+00  0.00000000000E+00  0.25771827549E+04  0.25771827549E+04  0.00000000000E+00 0. -1.
         -2   -1    0    0    0  501 -0.00000000000E+00 -0.00000000000E+00 -0.35734466036E+03  0.35734466036E+03  0.00000000000E+00 0.  1.
         23    2    1    2    0    0 -0.21159485964E+03  0.47186987623E+03  0.20605279938E+04  0.21263844020E+04  0.91112276487E+02 0.  0.
    5000000    2    1    2    0    0  0.21159485964E+03 -0.47186987623E+03  0.15931010070E+03  0.80814301326E+03  0.60023483486E+03 0.  0.
         23    2    4    4    0    0  0.11221885730E+03 -0.21149298938E+02  0.28547210728E+03  0.32100255474E+03  0.92238556654E+02 0.  0.
         23    2    4    4    0    0  0.99376002348E+02 -0.45072057730E+03 -0.12616200659E+03  0.48714045852E+03  0.91456797362E+02 0.  0.
          1    1    3    3  502    0 -0.20457625266E+03  0.37475096587E+03  0.16308949078E+04  0.16858552518E+04  0.00000000000E+00 0. -1.
         -1    1    3    3    0  502 -0.70186069850E+01  0.97118910365E+02  0.42963308597E+03  0.44052915018E+03  0.00000000000E+00 0.  1.
         15    1    5    5    0    0  0.28506729192E+02  0.68566682777E+01  0.18471264561E+03  0.18703359775E+03  0.17770000000E+01 0. -1.
        -15    1    5    5    0    0  0.83712128104E+02 -0.28005967216E+02  0.10075946167E+03  0.13396895699E+03  0.17770000000E+01 0.  1.
          1    1    6    6  503    0  0.49178223474E+02 -0.16827976459E+03 -0.40508970934E+01  0.17536529475E+03  0.00000000000E+00 0. -1.
         -1    1    6    6    0  503  0.50197778874E+02 -0.28244081270E+03 -0.12211110949E+03  0.31177516377E+03  0.00000000000E+00 0.  1.
<mgrwt>
<rscale>  0 0.55208784E+03</rscale>
<asrwt>0</asrwt>
<pdfrwt beam="1">  1        2 0.39648964E+00 0.55208784E+03</pdfrwt>
<pdfrwt beam="2">  1       -2 0.54976103E-01 0.55208784E+03</pdfrwt>
<totfact> 0.10668644E+01</totfact>
</mgrwt>
</event>
<event>
12    1  0.8033771E-008  0.5308352E+03  0.7818608E-02  0.1006030E+00
          2   -1    0    0  501    0  0.00000000000E+00  0.00000000000E+00  0.44083689949E+03  0.44083689949E+03  0.00000000000E+00 0. -1.
         -2   -1    0    0    0  501 -0.00000000000E+00 -0.00000000000E+00 -0.91436514107E+03  0.91436514107E+03  0.00000000000E+00 0.  1.
         23    2    1    2    0    0  0.30117849290E+02 -0.45060965193E+03  0.16761525819E+02  0.45878143448E+03  0.79014635410E+02 0.  0.
    5000000    2    1    2    0    0 -0.30117849290E+02  0.45060965193E+03 -0.49028976740E+03  0.89642060609E+03  0.59935774270E+03 0.  0.
         23    2    4    4    0    0  0.17655522260E+03  0.17526753667E+03  0.29143959439E+02  0.26666904927E+03  0.91501668985E+02 0.  0.
         23    2    4    4    0    0 -0.20667307189E+03  0.27534211526E+03 -0.51943372684E+03  0.62975155682E+03  0.90821735596E+02 0.  0.
          3    1    3    3  502    0  0.27770515359E+02 -0.32105789047E+03  0.47163165423E+02  0.32568962944E+03  0.00000000000E+00 0. -1.
         -3    1    3    3    0  502  0.23473339310E+01 -0.12955176147E+03 -0.30401639604E+02  0.13309180503E+03  0.00000000000E+00 0.  1.
         15    1    5    5    0    0  0.12908957246E+03  0.77305234910E+02  0.44027986631E+02  0.15678596365E+03  0.17770000000E+01 0.  1.
        -15    1    5    5    0    0  0.47465650137E+02  0.97962301764E+02 -0.14884027192E+02  0.10988308562E+03  0.17770000000E+01 0. -1.
          3    1    6    6  503    0 -0.36345901873E+02  0.98373247148E+02 -0.10773062652E+03  0.15034695949E+03  0.00000000000E+00 0. -1.
         -3    1    6    6    0  503 -0.17032717002E+03  0.17696886811E+03 -0.41170310032E+03  0.47940459733E+03  0.00000000000E+00 0.  1.
<mgrwt>
<rscale>  0 0.53083520E+03</rscale>
<asrwt>0</asrwt>
<pdfrwt beam="1">  1        2 0.67821062E-01 0.53083520E+03</pdfrwt>
<pdfrwt beam="2">  1       -2 0.14067156E+00 0.53083520E+03</pdfrwt>
<totfact> 0.26102614E+01</totfact>
</mgrwt>
</event>
<event>
12    1  0.8033771E-008  0.4655957E+03  0.7818608E-02  0.1023171E+00
         -1   -1    0    0    0  501 -0.00000000000E+00  0.00000000000E+00  0.57710170646E+03  0.57710170646E+03  0.00000000000E+00 0.  1.
          1   -1    0    0  501    0  0.00000000000E+00 -0.00000000000E+00 -0.49854844442E+03  0.49854844442E+03  0.00000000000E+00 0. -1.
         23    2    1    2    0    0  0.17221350728E+03  0.29495250189E+03  0.14149747471E+03  0.38232694972E+03  0.97457122246E+02 0.  0.
    5000000    2    1    2    0    0 -0.17221350728E+03 -0.29495250189E+03 -0.62944212665E+02  0.69332320117E+03  0.60006717700E+03 0.  0.
         23    2    4    4    0    0  0.69293937361E+02  0.83235759499E+02  0.13274327249E+03  0.19492161625E+03  0.92972139245E+02 0.  0.
         23    2    4    4    0    0 -0.24150744464E+03 -0.37818826138E+03 -0.19568748516E+03  0.49840158491E+03  0.93586009289E+02 0.  0.
          4    1    3    3  502    0  0.41891824011E+02  0.68675167017E+02  0.81265789724E+02  0.11434741826E+03  0.00000000000E+00 0. -1.
         -4    1    3    3    0  502  0.13032168327E+03  0.22627733487E+03  0.60231684984E+02  0.26797953146E+03  0.00000000000E+00 0.  1.
         15    1    5    5    0    0  0.44852502885E+02 -0.18501778118E+01  0.80295978928E+02  0.92009630659E+02  0.17770000000E+01 0. -1.
        -15    1    5    5    0    0  0.24441434476E+02  0.85085937311E+02  0.52447293562E+02  0.10291198559E+03  0.17770000000E+01 0.  1.
          4    1    6    6  503    0 -0.94432951567E+02 -0.80385962011E+02 -0.75478343564E+02  0.14517735904E+03  0.00000000000E+00 0. -1.
         -4    1    6    6    0  503 -0.14707449307E+03 -0.29780229937E+03 -0.12020914159E+03  0.35322422588E+03  0.00000000000E+00 0.  1.
<mgrwt>
<rscale>  0 0.46559571E+03</rscale>
<asrwt>0</asrwt>
<pdfrwt beam="1">  1        1 0.76699760E-01 0.46559571E+03</pdfrwt>
<pdfrwt beam="2">  1       -1 0.88784878E-01 0.46559571E+03</pdfrwt>
<totfact> 0.58196326E+01</totfact>
</mgrwt>
</event>
<event>
12    1  0.8033771E-008  0.8990310E+03  0.7818608E-02  0.9426794E-01
          1   -1    0    0  501    0  0.00000000000E+00  0.00000000000E+00  0.10112381680E+04  0.10112381680E+04  0.00000000000E+00 0. -1.
         -1   -1    0    0    0  501 -0.00000000000E+00 -0.00000000000E+00 -0.92016129374E+03  0.92016129374E+03  0.00000000000E+00 0.  1.
         23    2    1    2    0    0 -0.21315175370E+03 -0.84166329317E+03  0.73038060797E+02  0.87604829213E+03  0.91078442195E+02 0.  0.
    5000000    2    1    2    0    0  0.21315175370E+03  0.84166329317E+03  0.18038813444E+02  0.10553511696E+04  0.59967484788E+03 0.  0.
         23    2    4    4    0    0  0.27973209358E+03  0.58038900997E+03  0.24171309221E+03  0.69408835182E+03  0.90730227119E+02 0.  0.
         23    2    4    4    0    0 -0.66580339886E+02  0.26127428320E+03 -0.22367427877E+03  0.36126281777E+03  0.88223850492E+02 0.  0.
          4    1    3    3  502    0 -0.16172065914E+03 -0.67134049157E+03  0.21758065550E+02  0.69088714030E+03  0.00000000000E+00 0.  1.
         -4    1    3    3    0  502 -0.51431094558E+02 -0.17032280160E+03  0.51279995247E+02  0.18516115182E+03  0.00000000000E+00 0. -1.
         15    1    5    5    0    0  0.14628819039E+03  0.40241864132E+03  0.16022429631E+03  0.45718265539E+03  0.17770000000E+01 0.  1.
        -15    1    5    5    0    0  0.13344390319E+03  0.17797036865E+03  0.81488795907E+02  0.23690569644E+03  0.17770000000E+01 0. -1.
          1    1    6    6  503    0 -0.67394128795E+02  0.11956664603E+03 -0.77269441330E+02  0.15750783473E+03  0.00000000000E+00 0. -1.
         -1    1    6    6    0  503  0.81378890826E+00  0.14170763717E+03 -0.14640483744E+03  0.20375498303E+03  0.00000000000E+00 0.  1.
<mgrwt>
<rscale>  0 0.89903096E+03</rscale>
<asrwt>0</asrwt>
<pdfrwt beam="1">  1        1 0.15557510E+00 0.89903096E+03</pdfrwt>
<pdfrwt beam="2">  1       -1 0.14156328E+00 0.89903096E+03</pdfrwt>
<totfact> 0.61241648E+00</totfact>
</mgrwt>
</event>
<event>
12    1  0.8033771E-008  0.6368599E+03  0.7818608E-02  0.9831753E-01
          2   -1    0    0  501    0  0.00000000000E+00  0.00000000000E+00  0.56436558312E+03  0.56436558312E+03  0.00000000000E+00 0. -1.
         -2   -1    0    0    0  501 -0.00000000000E+00 -0.00000000000E+00 -0.94737378034E+03  0.94737378034E+03  0.00000000000E+00 0.  1.
         23    2    1    2    0    0 -0.24575056507E+03  0.51742761471E+03 -0.36025371687E+03  0.68200606265E+03  0.84999131039E+02 0.  0.
    5000000    2    1    2    0    0  0.24575056507E+03 -0.51742761471E+03 -0.22754480350E+02  0.82973330081E+03  0.59984573634E+03 0.  0.
         23    2    4    4    0    0 -0.92755625634E+02 -0.12277720068E+03 -0.20479574942E+03  0.27194939669E+03  0.91308971541E+02 0.  0.
         23    2    4    4    0    0  0.33850619070E+03 -0.39465041403E+03  0.18204126907E+03  0.55778390413E+03  0.87455529385E+02 0.  0.
          3    1    3    3  502    0 -0.82514412700E+02  0.18874603642E+03 -0.17805575604E+03  0.27228210889E+03  0.00000000000E+00 0. -1.
         -3    1    3    3    0  502 -0.16323615237E+03  0.32868157829E+03 -0.18219796083E+03  0.40972395375E+03  0.00000000000E+00 0.  1.
         15    1    5    5    0    0 -0.67379292663E+02 -0.20147228409E+02 -0.58803268854E+02  0.91688941804E+02  0.17770000000E+01 0.  1.
        -15    1    5    5    0    0 -0.25376332971E+02 -0.10262997227E+03 -0.14599248057E+03  0.18026045488E+03  0.17770000000E+01 0. -1.
          3    1    6    6  503    0  0.15729086777E+03 -0.23709686182E+03  0.12613727279E+03  0.31123295223E+03  0.00000000000E+00 0. -1.
         -3    1    6    6    0  503  0.18121532294E+03 -0.15755355221E+03  0.55903996284E+02  0.24655095190E+03  0.00000000000E+00 0.  1.
<mgrwt>
<rscale>  0 0.63685992E+03</rscale>
<asrwt>0</asrwt>
<pdfrwt beam="1">  1        2 0.86825475E-01 0.63685992E+03</pdfrwt>
<pdfrwt beam="2">  1       -2 0.14574981E+00 0.63685992E+03</pdfrwt>
<totfact> 0.17696220E+01</totfact>
</mgrwt>
</event>
<event>
12    1  0.8033771E-008  0.1538206E+04  0.7818608E-02  0.8859436E-01
          2   -1    0    0  501    0  0.00000000000E+00  0.00000000000E+00  0.31324147480E+04  0.31324147480E+04  0.00000000000E+00 0. -1.
         -2   -1    0    0    0  501 -0.00000000000E+00 -0.00000000000E+00 -0.30012375867E+04  0.30012375867E+04  0.00000000000E+00 0.  1.
         23    2    1    2    0    0  0.14096280516E+04  0.46608362801E+03  0.27138937009E+04  0.30947876598E+04  0.90589445975E+02 0.  0.
    5000000    2    1    2    0    0 -0.14096280516E+04 -0.46608362801E+03 -0.25827165395E+04  0.30388646748E+04  0.59999049686E+03 0.  0.
         23    2    4    4    0    0 -0.46173585738E+03 -0.43696430529E+03 -0.90740087709E+03  0.11115704142E+04  0.89858933883E+02 0.  0.
         23    2    4    4    0    0 -0.94789219420E+03 -0.29119322718E+02 -0.16753156624E+04  0.19272942606E+04  0.91831646576E+02 0.  0.
          4    1    3    3  502    0  0.12722307466E+04  0.44336907451E+03  0.24267537715E+04  0.27756586743E+04  0.00000000000E+00 0. -1.
         -4    1    3    3    0  502  0.13739730500E+03  0.22714553500E+02  0.28713992938E+03  0.31912898553E+03  0.00000000000E+00 0.  1.
         15    1    5    5    0    0 -0.69175804850E+02 -0.43681982582E+02 -0.76756605319E+02  0.11219688841E+03  0.17770000000E+01 0.  1.
        -15    1    5    5    0    0 -0.39256005253E+03 -0.39328232271E+03 -0.83064427177E+03  0.99937352584E+03  0.17770000000E+01 0. -1.
          3    1    6    6  503    0 -0.68680031649E+03  0.18098329540E+02 -0.12335854608E+04  0.14120040061E+04  0.00000000000E+00 0. -1.
         -3    1    6    6    0  503 -0.26109187771E+03 -0.47217652257E+02 -0.44173020166E+03  0.51529025446E+03  0.00000000000E+00 0.  1.
<mgrwt>
<rscale>  0 0.15382061E+04</rscale>
<asrwt>0</asrwt>
<pdfrwt beam="1">  1        2 0.48190996E+00 0.15382061E+04</pdfrwt>
<pdfrwt beam="2">  1       -2 0.46172886E+00 0.15382061E+04</pdfrwt>
<totfact> 0.38949073E-03</totfact>
</mgrwt>
</event>
<event>
12    1  0.1041165E-007  0.7271902E+03  0.7818608E-02  0.9671831E-01
          2   -1    0    0  501    0  0.00000000000E+00  0.00000000000E+00  0.14419323651E+04  0.14419323651E+04  0.00000000000E+00 0.  1.
         -2   -1    0    0    0  501 -0.00000000000E+00 -0.00000000000E+00 -0.40945703199E+03  0.40945703199E+03  0.00000000000E+00 0. -1.
         23    2    1    2    0    0 -0.55679886549E+03 -0.30181262631E+03  0.60284303640E+03  0.87894407915E+03  0.89482566604E+02 0.  0.
    5000000    2    1    2    0    0  0.55679886549E+03  0.30181262631E+03  0.42963229667E+03  0.97244531790E+03  0.59995845520E+03 0.  0.
         23    2    4    4    0    0  0.52626935349E+03  0.30464897158E+02  0.11848737288E+03  0.54838124183E+03  0.93782655554E+02 0.  0.
         23    2    4    4    0    0  0.30529512001E+02  0.27134772915E+03  0.31114492379E+03  0.42406407607E+03  0.91964861752E+02 0.  0.
          1    1    3    3  502    0 -0.38738668759E+03 -0.16350153748E+03  0.38083257269E+03  0.56730472138E+03  0.00000000000E+00 0. -1.
         -1    1    3    3    0  502 -0.16941217790E+03 -0.13831108883E+03  0.22201046371E+03  0.31163935777E+03  0.00000000000E+00 0.  1.
         15    1    5    5    0    0  0.94813067254E+02 -0.61865285724E+01 -0.12829791642E+02  0.95893441593E+02  0.17770000000E+01 0. -1.
        -15    1    5    5    0    0  0.43145628624E+03  0.36651425730E+02  0.13131716453E+03  0.45248780024E+03  0.17770000000E+01 0.  1.
          1    1    6    6  503    0 -0.31163445713E+02  0.11289232619E+03  0.14421734222E+03  0.18578072951E+03  0.00000000000E+00 0. -1.
         -1    1    6    6    0  503  0.61692957714E+02  0.15845540296E+03  0.16692758157E+03  0.23828334656E+03  0.00000000000E+00 0.  1.
<mgrwt>
<rscale>  0 0.72719022E+03</rscale>
<asrwt>0</asrwt>
<pdfrwt beam="1">  1        2 0.22183575E+00 0.72719022E+03</pdfrwt>
<pdfrwt beam="2">  1       -2 0.62993390E-01 0.72719022E+03</pdfrwt>
<totfact> 0.32768091E+01</totfact>
</mgrwt>
</event>
<event>
12    1  0.8033771E-008  0.9360912E+03  0.7818608E-02  0.9381557E-01
         -4   -1    0    0    0  501 -0.00000000000E+00  0.00000000000E+00  0.10678875199E+04  0.10678875199E+04  0.00000000000E+00 0.  1.
          4   -1    0    0  501    0  0.00000000000E+00 -0.00000000000E+00 -0.11300229920E+04  0.11300229920E+04  0.00000000000E+00 0. -1.
         23    2    1    2    0    0 -0.19991196524E+03  0.87803788463E+03  0.43897151062E+03  0.10058905892E+04  0.90579079466E+02 0.  0.
    5000000    2    1    2    0    0  0.19991196524E+03 -0.87803788463E+03 -0.50110698279E+03  0.11920199227E+04  0.59907258918E+03 0.  0.
         23    2    4    4    0    0 -0.80597424300E+02 -0.36205559191E+03  0.45813972269E+02  0.38461488481E+03  0.90826720297E+02 0.  0.
         23    2    4    4    0    0  0.28050938954E+03 -0.51598229272E+03 -0.54692095506E+03  0.80740503785E+03  0.88640397341E+02 0.  0.
          4    1    3    3  502    0 -0.30257643084E+02  0.15365285106E+03  0.11568873212E+03  0.19470132600E+03  0.00000000000E+00 0. -1.
         -4    1    3    3    0  502 -0.16965432215E+03  0.72438503357E+03  0.32328277850E+03  0.81118926322E+03  0.00000000000E+00 0.  1.
         15    1    5    5    0    0  0.19107684979E+01 -0.16088068751E+03 -0.62540180643E+01  0.16102334340E+03  0.17770000000E+01 0. -1.
        -15    1    5    5    0    0 -0.82508192798E+02 -0.20117490441E+03  0.52067990333E+02  0.22359154141E+03  0.17770000000E+01 0.  1.
          1    1    6    6  503    0  0.20105184388E+03 -0.28345935128E+03 -0.30086430900E+03  0.45966333352E+03  0.00000000000E+00 0. -1.
         -1    1    6    6    0  503  0.79457545662E+02 -0.23252294144E+03 -0.24605664606E+03  0.34774170432E+03  0.00000000000E+00 0.  1.
<mgrwt>
<rscale>  0 0.93609117E+03</rscale>
<asrwt>0</asrwt>
<pdfrwt beam="1">  1        4 0.17384969E+00 0.93609117E+03</pdfrwt>
<pdfrwt beam="2">  1       -4 0.16429039E+00 0.93609117E+03</pdfrwt>
<totfact> 0.88976623E-02</totfact>
</mgrwt>
</event>
<event>
12    1  0.8033771E-008  0.1012105E+04  0.7818608E-02  0.9295366E-01
         -2   -1    0    0    0  501 -0.00000000000E+00  0.00000000000E+00  0.72431596635E+03  0.72431596635E+03  0.00000000000E+00 0.  1.
          2   -1    0    0  501    0  0.00000000000E+00 -0.00000000000E+00 -0.18819786625E+04  0.18819786625E+04  0.00000000000E+00 0. -1.
         23    2    1    2    0    0 -0.86376774605E+03 -0.51700474863E+03 -0.10032625106E+04  0.14242980752E+04  0.93277610429E+02 0.  0.
    5000000    2    1    2    0    0  0.86376774605E+03  0.51700474863E+03 -0.15440018552E+03  0.11819965536E+04  0.59990649796E+03 0.  0.
         23    2    4    4    0    0  0.76113729026E+03  0.49093086296E+03  0.74228723578E+02  0.91354641938E+03  0.93349183850E+02 0.  0.
         23    2    4    4    0    0  0.10263045579E+03  0.26073885670E+02 -0.22862890910E+03  0.26845013425E+03  0.92636054185E+02 0.  0.
          4    1    3    3  502    0 -0.45497615967E+03 -0.30915381822E+03 -0.49896002103E+03  0.74265772182E+03  0.00000000000E+00 0.  1.
         -4    1    3    3    0  502 -0.40879158637E+03 -0.20785093041E+03 -0.50430248957E+03  0.68164035338E+03  0.00000000000E+00 0. -1.
         15    1    5    5    0    0  0.58764080007E+03  0.41812730284E+03  0.77395664326E+02  0.72535880630E+03  0.17770000000E+01 0.  1.
        -15    1    5    5    0    0  0.17349649019E+03  0.72803560115E+02 -0.31669407485E+01  0.18818761308E+03  0.17770000000E+01 0. -1.
          1    1    6    6  503    0  0.31307180266E+02  0.43812539272E+01 -0.41102453129E+01  0.31878347491E+02  0.00000000000E+00 0. -1.
         -1    1    6    6    0  503  0.71323275523E+02  0.21692631742E+02 -0.22451866379E+03  0.23657178676E+03  0.00000000000E+00 0.  1.
<mgrwt>
<rscale>  0 0.10121055E+04</rscale>
<asrwt>0</asrwt>
<pdfrwt beam="1">  1        2 0.28953518E+00 0.10121055E+04</pdfrwt>
<pdfrwt beam="2">  1       -2 0.11143323E+00 0.10121055E+04</pdfrwt>
<totfact> 0.49312456E+00</totfact>
</mgrwt>
</event>
<event>
12    1  0.8033771E-008  0.1004801E+04  0.7818608E-02  0.9303295E-01
         -2   -1    0    0    0  501 -0.00000000000E+00  0.00000000000E+00  0.31965054175E+03  0.31965054175E+03  0.00000000000E+00 0.  1.
          2   -1    0    0  501    0  0.00000000000E+00 -0.00000000000E+00 -0.34447680799E+04  0.34447680799E+04  0.00000000000E+00 0. -1.
         23    2    1    2    0    0 -0.40179433101E+03 -0.85839850299E+03 -0.11494609712E+04  0.14925316613E+04  0.90019782667E+02 0.  0.
    5000000    2    1    2    0    0  0.40179433101E+03  0.85839850299E+03 -0.19756565669E+04  0.22718869603E+04  0.59997067904E+03 0.  0.
         23    2    4    4    0    0  0.49051101365E+03  0.61898516853E+03 -0.17389067857E+04  0.19120218360E+04  0.91032954612E+02 0.  0.
         23    2    4    4    0    0 -0.88716682647E+02  0.23941333447E+03 -0.23674978124E+03  0.35986512429E+03  0.90901343556E+02 0.  0.
          4    1    3    3  502    0 -0.35881505037E+03 -0.70170615879E+03 -0.92090851298E+03  0.12121106645E+04  0.00000000000E+00 0. -1.
         -4    1    3    3    0  502 -0.42979280638E+02 -0.15669234421E+03 -0.22855245823E+03  0.28042099683E+03  0.00000000000E+00 0.  1.
         15    1    5    5    0    0  0.42525941637E+03  0.51774831948E+03 -0.13933335117E+04  0.15460563787E+04  0.17770000000E+01 0. -1.
        -15    1    5    5    0    0  0.65251597280E+02  0.10123684905E+03 -0.34557327395E+03  0.36596545731E+03  0.17770000000E+01 0.  1.
          1    1    6    6  503    0 -0.33293932675E+02  0.19412358458E+03 -0.15106651310E+03  0.24822075543E+03  0.00000000000E+00 0. -1.
         -1    1    6    6    0  503 -0.55422749972E+02  0.45289749883E+02 -0.85683268138E+02  0.11164436886E+03  0.00000000000E+00 0.  1.
<mgrwt>
<rscale>  0 0.10048009E+04</rscale>
<asrwt>0</asrwt>
<pdfrwt beam="1">  1        2 0.52996431E+00 0.10048009E+04</pdfrwt>
<pdfrwt beam="2">  1       -2 0.49177008E-01 0.10048009E+04</pdfrwt>
<totfact> 0.35974790E+00</totfact>
</mgrwt>
</event>
<event>
12    1  0.8033771E-008  0.9662320E+03  0.7818608E-02  0.9346376E-01
          1   -1    0    0  501    0  0.00000000000E+00  0.00000000000E+00  0.11221575350E+04  0.11221575350E+04  0.00000000000E+00 0. -1.
         -1   -1    0    0    0  501 -0.00000000000E+00 -0.00000000000E+00 -0.84285507391E+03  0.84285507391E+03  0.00000000000E+00 0.  1.
         23    2    1    2    0    0  0.83801606636E+03 -0.25087235499E+03  0.19634037069E+03  0.90098421729E+03  0.89527384967E+02 0.  0.
    5000000    2    1    2    0    0 -0.83801606636E+03  0.25087235499E+03  0.82962090353E+02  0.10640283916E+04  0.60005486721E+03 0.  0.
         23    2    4    4    0    0 -0.14582350581E+03 -0.17120645070E+03 -0.67424389257E+01  0.24324850880E+03  0.92456654410E+02 0.  0.
         23    2    4    4    0    0 -0.69219256055E+03  0.42207880570E+03  0.89704529279E+02  0.82077988277E+03  0.91387385810E+02 0.  0.
          3    1    3    3  502    0  0.23010538400E+03 -0.98888820198E+02  0.85424919679E+02  0.26462218994E+03  0.00000000000E+00 0. -1.
         -3    1    3    3    0  502  0.60791068236E+03 -0.15198353480E+03  0.11091545101E+03  0.63636202735E+03  0.00000000000E+00 0.  1.
         15    1    5    5    0    0  0.74449933569E+00 -0.48018409249E+02 -0.18316594937E+02  0.51429342647E+02  0.17770000000E+01 0. -1.
        -15    1    5    5    0    0 -0.14656800514E+03 -0.12318804145E+03  0.11574156011E+02  0.19181916616E+03  0.17770000000E+01 0.  1.
          4    1    6    6  503    0 -0.13881518972E+03  0.12976597646E+03  0.21613914803E+02  0.19124859962E+03  0.00000000000E+00 0. -1.
         -4    1    6    6    0  503 -0.55337737083E+03  0.29231282924E+03  0.68090614476E+02  0.62953128315E+03  0.00000000000E+00 0.  1.
<mgrwt>
<rscale>  0 0.96623204E+03</rscale>
<asrwt>0</asrwt>
<pdfrwt beam="1">  1        1 0.17263962E+00 0.96623204E+03</pdfrwt>
<pdfrwt beam="2">  1       -1 0.12967001E+00 0.96623204E+03</pdfrwt>
<totfact> 0.62703934E+00</totfact>
</mgrwt>
</event>
<event>
12    1  0.8033771E-008  0.3434865E+03  0.7818608E-02  0.1065321E+00
         -2   -1    0    0    0  501 -0.00000000000E+00  0.00000000000E+00  0.14422411494E+03  0.14422411494E+03  0.00000000000E+00 0.  1.
          2   -1    0    0  501    0  0.00000000000E+00 -0.00000000000E+00 -0.20854931020E+04  0.20854931020E+04  0.00000000000E+00 0. -1.
         23    2    1    2    0    0  0.13596966168E+03 -0.29199882414E+03 -0.29040373399E+03  0.44366961219E+03  0.93580627655E+02 0.  0.
    5000000    2    1    2    0    0 -0.13596966168E+03  0.29199882414E+03 -0.16508652530E+04  0.17860476047E+04  0.60071532394E+03 0.  0.
         23    2    4    4    0    0 -0.10800707305E+03  0.10359001557E+03 -0.15395364978E+04  0.15495895696E+04  0.93052603212E+02 0.  0.
         23    2    4    4    0    0 -0.27962588629E+02  0.18840880857E+03 -0.11132875520E+03  0.23645803509E+03  0.85079522291E+02 0.  0.
          2    1    3    3  502    0  0.12033875355E+03 -0.24295161165E+03 -0.28256390328E+03  0.39159834096E+03  0.00000000000E+00 0.  1.
         -2    1    3    3    0  502  0.15630908130E+02 -0.49047212493E+02 -0.78398307136E+01  0.52071271234E+02  0.00000000000E+00 0. -1.
         15    1    5    5    0    0  0.88939301550E+01  0.37515676527E+02 -0.23369576450E+03  0.23686155461E+03  0.17770000000E+01 0. -1.
        -15    1    5    5    0    0 -0.11690100320E+03  0.66074339044E+02 -0.13058407333E+04  0.13127280150E+04  0.17770000000E+01 0.  1.
          3    1    6    6  503    0  0.18054117106E+01  0.19269960367E+01 -0.31211525318E+02  0.31323028874E+02  0.00000000000E+00 0. -1.
         -3    1    6    6    0  503 -0.29768000340E+02  0.18648181254E+03 -0.80117229884E+02  0.20513500622E+03  0.00000000000E+00 0.  1.
<mgrwt>
<rscale>  0 0.34348645E+03</rscale>
<asrwt>0</asrwt>
<pdfrwt beam="1">  1        2 0.32084510E+00 0.34348645E+03</pdfrwt>
<pdfrwt beam="2">  1       -2 0.22188325E-01 0.34348645E+03</pdfrwt>
<totfact> 0.11623268E+02</totfact>
</mgrwt>
</event>
<event>
12    1  0.8033771E-008  0.1738618E+04  0.7818608E-02  0.8739641E-01
          2   -1    0    0  501    0  0.00000000000E+00  0.00000000000E+00  0.30586211552E+04  0.30586211552E+04  0.00000000000E+00 0. -1.
         -2   -1    0    0    0  501 -0.00000000000E+00 -0.00000000000E+00 -0.10331017718E+04  0.10331017718E+04  0.00000000000E+00 0.  1.
         23    2    1    2    0    0  0.15371369211E+04 -0.69757526206E+03  0.13963080220E+04  0.21929572647E+04  0.99921529619E+02 0.  0.
    5000000    2    1    2    0    0 -0.15371369211E+04  0.69757526206E+03  0.62921136138E+03  0.18987656622E+04  0.60000245188E+03 0.  0.
         23    2    4    4    0    0 -0.13895613569E+04  0.40121826519E+03  0.51297534090E+03  0.15373188036E+04  0.91370359454E+02 0.  0.
         23    2    4    4    0    0 -0.14757556423E+03  0.29635699688E+03  0.11623602048E+03  0.36144685865E+03  0.86758298825E+02 0.  0.
          4    1    3    3  502    0  0.56778165684E+03 -0.25533434713E+03  0.57807422818E+03  0.84955367809E+03  0.00000000000E+00 0. -1.
         -4    1    3    3    0  502  0.96935526428E+03 -0.44224091493E+03  0.81823379380E+03  0.13434035866E+04  0.00000000000E+00 0.  1.
         15    1    5    5    0    0 -0.26394120693E+03  0.10704780758E+03  0.78916433037E+02  0.29555905493E+03  0.17770000000E+01 0. -1.
        -15    1    5    5    0    0 -0.11256201500E+04  0.29417045761E+03  0.43405890786E+03  0.12417597487E+04  0.17770000000E+01 0.  1.
          1    1    6    6  503    0 -0.15098955536E+02 -0.12966708619E+01  0.12141553667E+02  0.19418474169E+02  0.00000000000E+00 0. -1.
         -1    1    6    6    0  503 -0.13247660869E+03  0.29765366774E+03  0.10409446681E+03  0.34202838448E+03  0.00000000000E+00 0.  1.
<mgrwt>
<rscale>  0 0.17386176E+04</rscale>
<asrwt>0</asrwt>
<pdfrwt beam="1">  1        2 0.47055710E+00 0.17386176E+04</pdfrwt>
<pdfrwt beam="2">  1       -2 0.15893874E+00 0.17386176E+04</pdfrwt>
<totfact> 0.37856078E-01</totfact>
</mgrwt>
</event>
<event>
12    1  0.8033771E-008  0.5181016E+03  0.7818608E-02  0.1009159E+00
         -2   -1    0    0    0  501 -0.00000000000E+00  0.00000000000E+00  0.34998516330E+03  0.34998516330E+03  0.00000000000E+00 0.  1.
          2   -1    0    0  501    0  0.00000000000E+00 -0.00000000000E+00 -0.11236466398E+04  0.11236466398E+04  0.00000000000E+00 0. -1.
         23    2    1    2    0    0  0.25840124786E+03 -0.32887643913E+03 -0.28925581702E+02  0.42966082546E+03  0.94025627048E+02 0.  0.
    5000000    2    1    2    0    0 -0.25840124786E+03  0.32887643913E+03 -0.74473589477E+03  0.10439709776E+04  0.60026072006E+03 0.  0.
         23    2    4    4    0    0  0.11247808902E+03  0.62000604245E+02  0.12846365756E+02  0.15482562121E+03  0.85501745218E+02 0.  0.
         23    2    4    4    0    0 -0.37087933688E+03  0.26687583489E+03 -0.75758226053E+03  0.88914535641E+03  0.88737757404E+02 0.  0.
          3    1    3    3  502    0  0.10492346392E+03 -0.73375656142E+02  0.12914961524E+02  0.12868456172E+03  0.00000000000E+00 0. -1.
         -3    1    3    3    0  502  0.15347778394E+03 -0.25550078299E+03 -0.41840543226E+02  0.30097626373E+03  0.00000000000E+00 0.  1.
         15    1    5    5    0    0  0.51548262226E+02  0.73960249797E+02 -0.46549155864E+01  0.90289356276E+02  0.17770000000E+01 0. -1.
        -15    1    5    5    0    0  0.60929826791E+02 -0.11959645552E+02  0.17501281343E+02  0.64536264938E+02  0.17770000000E+01 0.  1.
          1    1    6    6  503    0 -0.12062773710E+03  0.70446280821E+02 -0.16192072374E+03  0.21385053242E+03  0.00000000000E+00 0. -1.
         -1    1    6    6    0  503 -0.25025159978E+03  0.19642955407E+03 -0.59566153679E+03  0.67529482399E+03  0.00000000000E+00 0.  1.
<mgrwt>
<rscale>  0 0.51810164E+03</rscale>
<asrwt>0</asrwt>
<pdfrwt beam="1">  1        2 0.17286872E+00 0.51810164E+03</pdfrwt>
<pdfrwt beam="2">  1       -2 0.53843870E-01 0.51810164E+03</pdfrwt>
<totfact> 0.71203121E+01</totfact>
</mgrwt>
</event>
<event>
12    1  0.8033771E-008  0.4729331E+03  0.7818608E-02  0.1021096E+00
          1   -1    0    0  501    0  0.00000000000E+00  0.00000000000E+00  0.82157309588E+03  0.82157309588E+03  0.00000000000E+00 0. -1.
         -1   -1    0    0    0  501 -0.00000000000E+00 -0.00000000000E+00 -0.81368921526E+03  0.81368921526E+03  0.00000000000E+00 0.  1.
         23    2    1    2    0    0  0.19624667207E+03  0.24068705039E+03 -0.62872477616E+03  0.70716808781E+03  0.91372029268E+02 0.  0.
    5000000    2    1    2    0    0 -0.19624667207E+03 -0.24068705039E+03  0.63660865679E+03  0.92809422332E+03  0.59970433793E+03 0.  0.
         23    2    4    4    0    0 -0.18114426288E+03 -0.41553137830E+03  0.52625795797E+03  0.70043907483E+03  0.90486954327E+02 0.  0.
         23    2    4    4    0    0 -0.15102409196E+02  0.17484432791E+03  0.11035069882E+03  0.22765514849E+03  0.94079584063E+02 0.  0.
          1    1    3    3  502    0  0.78810444303E+02  0.10473970427E+03 -0.17105107267E+03  0.21549933003E+03  0.00000000000E+00 0. -1.
         -1    1    3    3    0  502  0.11743622777E+03  0.13594734613E+03 -0.45767370350E+03  0.49166875779E+03  0.00000000000E+00 0.  1.
         15    1    5    5    0    0 -0.74483194550E+02 -0.13200688124E+03  0.11814273173E+03  0.19218331289E+03  0.17770000000E+01 0.  1.
        -15    1    5    5    0    0 -0.10666106833E+03 -0.28352449706E+03  0.40811522623E+03  0.50825576194E+03  0.17770000000E+01 0. -1.
          2    1    6    6  503    0 -0.20554153228E+02  0.17388573138E+03  0.12291079459E+03  0.21392939074E+03  0.00000000000E+00 0. -1.
         -2    1    6    6    0  503  0.54517440319E+01  0.95859652351E+00 -0.12560095765E+02  0.13725757754E+02  0.00000000000E+00 0.  1.
<mgrwt>
<rscale>  0 0.47293310E+03</rscale>
<asrwt>0</asrwt>
<pdfrwt beam="1">  1        1 0.12639586E+00 0.47293310E+03</pdfrwt>
<pdfrwt beam="2">  1       -1 0.12518296E+00 0.47293310E+03</pdfrwt>
<totfact> 0.12723576E+01</totfact>
</mgrwt>
</event>
<event>
12    1  0.8033771E-008  0.3870283E+03  0.7818608E-02  0.1048366E+00
         -1   -1    0    0    0  501 -0.00000000000E+00  0.00000000000E+00  0.83219916081E+03  0.83219916081E+03  0.00000000000E+00 0.  1.
          1   -1    0    0  501    0  0.00000000000E+00 -0.00000000000E+00 -0.32046392354E+03  0.32046392354E+03  0.00000000000E+00 0. -1.
         23    2    1    2    0    0 -0.89320167153E+02  0.27828659384E+03  0.35335876422E+03  0.46780022471E+03  0.92483043931E+02 0.  0.
    5000000    2    1    2    0    0  0.89320167153E+02 -0.27828659384E+03  0.15837647306E+03  0.68486285964E+03  0.59877584180E+03 0.  0.
         23    2    4    4    0    0  0.23154027137E+03 -0.14849266085E+03 -0.13703679761E+03  0.32065160172E+03  0.91528127882E+02 0.  0.
         23    2    4    4    0    0 -0.14222010422E+03 -0.12979393300E+03  0.29541327067E+03  0.36421125792E+03  0.91147226094E+02 0.  0.
          1    1    3    3  502    0 -0.25772618829E+02  0.21360728032E+03  0.23358585286E+03  0.31757620935E+03  0.00000000000E+00 0. -1.
         -1    1    3    3    0  502 -0.63547548324E+02  0.64679313519E+02  0.11977291136E+03  0.15022401536E+03  0.00000000000E+00 0.  1.
         15    1    5    5    0    0  0.91613963187E+02 -0.53351405360E+02 -0.10344338186E+03  0.14813231141E+03  0.17770000000E+01 0. -1.
        -15    1    5    5    0    0  0.13992630818E+03 -0.95141255486E+02 -0.33593415753E+02  0.17251929031E+03  0.17770000000E+01 0.  1.
          3    1    6    6  503    0 -0.39082156907E+02 -0.28090045180E+02  0.18237170692E+02  0.51469020017E+02  0.00000000000E+00 0. -1.
         -3    1    6    6    0  503 -0.10313794731E+03 -0.10170388782E+03  0.27717609997E+03  0.31274223790E+03  0.00000000000E+00 0.  1.
<mgrwt>
<rscale>  0 0.38702834E+03</rscale>
<asrwt>0</asrwt>
<pdfrwt beam="1">  1        1 0.49302142E-01 0.38702834E+03</pdfrwt>
<pdfrwt beam="2">  1       -1 0.12803064E+00 0.38702834E+03</pdfrwt>
<totfact> 0.45073812E+01</totfact>
</mgrwt>
</event>
<event>
12    1  0.8033771E-008  0.8440992E+03  0.7818608E-02  0.9498291E-01
          2   -1    0    0  501    0  0.00000000000E+00  0.00000000000E+00  0.27616945446E+04  0.27616945446E+04  0.00000000000E+00 0. -1.
         -2   -1    0    0    0  501 -0.00000000000E+00 -0.00000000000E+00 -0.29506274351E+03  0.29506274351E+03  0.00000000000E+00 0.  1.
         23    2    1    2    0    0  0.61886334560E+03  0.49895324611E+03  0.95080727666E+03  0.12428147661E+04  0.92778677931E+02 0.  0.
    5000000    2    1    2    0    0 -0.61886334560E+03 -0.49895324611E+03  0.15158245244E+04  0.18139425220E+04  0.60059745428E+03 0.  0.
         23    2    4    4    0    0  0.39043749722E+02 -0.30481231218E+01  0.14143634174E+02  0.98807292754E+02  0.89605431012E+02 0.  0.
         23    2    4    4    0    0 -0.65790709533E+03 -0.49590512299E+03  0.15016808903E+04  0.17151352293E+04  0.88767795462E+02 0.  0.
          1    1    3    3  502    0  0.40816466673E+03  0.27135231382E+03  0.57500626014E+03  0.75555454640E+03  0.00000000000E+00 0. -1.
         -1    1    3    3    0  502  0.21069867888E+03  0.22760093229E+03  0.37580101652E+03  0.48726021968E+03  0.00000000000E+00 0.  1.
         15    1    5    5    0    0  0.50070917601E+02  0.41518020614E+01  0.43565190044E+02  0.66523813498E+02  0.17770000000E+01 0.  1.
        -15    1    5    5    0    0 -0.11027167880E+02 -0.71999251832E+01 -0.29421555870E+02  0.32283479256E+02  0.17770000000E+01 0. -1.
          2    1    6    6  503    0 -0.42304260385E+03 -0.30194176772E+03  0.10289552999E+04  0.11527718269E+04  0.00000000000E+00 0. -1.
         -2    1    6    6    0  503 -0.23486449148E+03 -0.19396335527E+03  0.47272559039E+03  0.56236340239E+03  0.00000000000E+00 0.  1.
<mgrwt>
<rscale>  0 0.84409922E+03</rscale>
<asrwt>0</asrwt>
<pdfrwt beam="1">  1        2 0.42487607E+00 0.84409922E+03</pdfrwt>
<pdfrwt beam="2">  1       -2 0.45394270E-01 0.84409922E+03</pdfrwt>
<totfact> 0.11667816E+01</totfact>
</mgrwt>
</event>
<event>
12    1  0.8033771E-008  0.6217512E+03  0.7818608E-02  0.9861279E-01
         -1   -1    0    0    0  501 -0.00000000000E+00  0.00000000000E+00  0.36990547152E+03  0.36990547152E+03  0.00000000000E+00 0.  1.
          1   -1    0    0  501    0  0.00000000000E+00 -0.00000000000E+00 -0.17656335515E+04  0.17656335515E+04  0.00000000000E+00 0. -1.
         23    2    1    2    0    0 -0.36463614437E+03  0.43449968830E+03 -0.11307622976E+04  0.12683450446E+04  0.91248459718E+02 0.  0.
    5000000    2    1    2    0    0  0.36463614437E+03 -0.43449968830E+03 -0.26496578237E+03  0.86719397849E+03  0.60005752522E+03 0.  0.
         23    2    4    4    0    0  0.20141962768E+02 -0.28043102089E+03 -0.36185986374E+03  0.46710353189E+03  0.90531168010E+02 0.  0.
         23    2    4    4    0    0  0.34449418160E+03 -0.15406866741E+03  0.96894081370E+02  0.40009044659E+03  0.90942327951E+02 0.  0.
          1    1    3    3  502    0 -0.17538288105E+03  0.27809964681E+03 -0.66479067027E+03  0.74165032448E+03  0.00000000000E+00 0. -1.
         -1    1    3    3    0  502 -0.18925326332E+03  0.15640004149E+03 -0.46597162737E+03  0.52669472008E+03  0.00000000000E+00 0.  1.
         15    1    5    5    0    0  0.97826285716E+01 -0.74183105579E+02 -0.16771798841E+03  0.18366086774E+03  0.17770000000E+01 0. -1.
        -15    1    5    5    0    0  0.10359334196E+02 -0.20624791531E+03 -0.19414187533E+03  0.28344266415E+03  0.17770000000E+01 0.  1.
          2    1    6    6  503    0  0.21576336682E+03 -0.14254103257E+03  0.72452073972E+02  0.26855368076E+03  0.00000000000E+00 0.  1.
         -2    1    6    6    0  503  0.12873081479E+03 -0.11527634846E+02  0.24442007399E+02  0.13153676584E+03  0.00000000000E+00 0. -1.
<mgrwt>
<rscale>  0 0.62175125E+03</rscale>
<asrwt>0</asrwt>
<pdfrwt beam="1">  1        1 0.27163593E+00 0.62175125E+03</pdfrwt>
<pdfrwt beam="2">  1       -1 0.56908533E-01 0.62175125E+03</pdfrwt>
<totfact> 0.14272219E+01</totfact>
</mgrwt>
</event>
<event>
12    1  0.8033771E-008  0.7130437E+03  0.7818608E-02  0.9695182E-01
          1   -1    0    0  501    0  0.00000000000E+00  0.00000000000E+00  0.64084338524E+03  0.64084338524E+03  0.00000000000E+00 0. -1.
         -1   -1    0    0    0  501 -0.00000000000E+00 -0.00000000000E+00 -0.91144939941E+03  0.91144939941E+03  0.00000000000E+00 0.  1.
         23    2    1    2    0    0 -0.27696496198E+03  0.57673232188E+03 -0.17430276454E+03  0.66988735878E+03  0.95067652045E+02 0.  0.
    5000000    2    1    2    0    0  0.27696496198E+03 -0.57673232188E+03 -0.96303249627E+02  0.88240542587E+03  0.60002938132E+03 0.  0.
         23    2    4    4    0    0 -0.99922721585E+02 -0.81846618805E+02 -0.18554007903E+03  0.24808989442E+03  0.10217658974E+03 0.  0.
         23    2    4    4    0    0  0.37688768357E+03 -0.49488570307E+03  0.89236829398E+02  0.63431553145E+03  0.86236863254E+02 0.  0.
          4    1    3    3  502    0 -0.34118826829E+02  0.35943891688E+02  0.68137038142E+01  0.50024836366E+02  0.00000000000E+00 0. -1.
         -4    1    3    3    0  502 -0.24284613515E+03  0.54078843019E+03 -0.18111646835E+03  0.61986252241E+03  0.00000000000E+00 0.  1.
         15    1    5    5    0    0 -0.88440656495E+02 -0.10381915780E+03 -0.13572241005E+03  0.19241594935E+03  0.17770000000E+01 0.  1.
        -15    1    5    5    0    0 -0.11482065089E+02  0.21972538990E+02 -0.49817668975E+02  0.55673945069E+02  0.17770000000E+01 0. -1.
          3    1    6    6  503    0  0.77262274381E+02 -0.11700602892E+03 -0.14721073076E+02  0.14098432479E+03  0.00000000000E+00 0. -1.
         -3    1    6    6    0  503  0.29962540919E+03 -0.37787967416E+03  0.10395790247E+03  0.49333120665E+03  0.00000000000E+00 0.  1.
<mgrwt>
<rscale>  0 0.71304369E+03</rscale>
<asrwt>0</asrwt>
<pdfrwt beam="1">  1        1 0.98591291E-01 0.71304369E+03</pdfrwt>
<pdfrwt beam="2">  1       -1 0.14022298E+00 0.71304369E+03</pdfrwt>
<totfact> 0.13418148E+01</totfact>
</mgrwt>
</event>
<event>
12    1  0.8033771E-008  0.4374380E+03  0.7818608E-02  0.1031536E+00
          1   -1    0    0  501    0  0.00000000000E+00  0.00000000000E+00  0.11551481546E+04  0.11551481546E+04  0.00000000000E+00 0. -1.
         -1   -1    0    0    0  501 -0.00000000000E+00 -0.00000000000E+00 -0.16296987661E+04  0.16296987661E+04  0.00000000000E+00 0.  1.
         23    2    1    2    0    0 -0.23956963208E+03 -0.11278839232E+02  0.10752825880E+04  0.11056002457E+04  0.92727764142E+02 0.  0.
    5000000    2    1    2    0    0  0.23956963208E+03  0.11278839232E+02 -0.15498331995E+04  0.16792466750E+04  0.60030461286E+03 0.  0.
         23    2    4    4    0    0  0.10095876600E+03 -0.27091839023E+03 -0.92497342541E+03  0.97366124251E+03  0.94079385895E+02 0.  0.
         23    2    4    4    0    0  0.13861086608E+03  0.28219722946E+03 -0.62485977413E+03  0.70558543248E+03  0.92481439678E+02 0.  0.
          3    1    3    3  502    0 -0.12996380648E+03  0.39797766834E+02  0.59531890832E+03  0.61063823648E+03  0.00000000000E+00 0. -1.
         -3    1    3    3    0  502 -0.10960582560E+03 -0.51076606066E+02  0.47996367971E+03  0.49496200919E+03  0.00000000000E+00 0.  1.
         15    1    5    5    0    0 -0.28692511684E-01 -0.12363400797E+03 -0.43148208938E+03  0.44884888319E+03  0.17770000000E+01 0.  1.
        -15    1    5    5    0    0  0.10098745851E+03 -0.14728438227E+03 -0.49349133603E+03  0.52481235933E+03  0.17770000000E+01 0. -1.
          3    1    6    6  503    0  0.12104865421E+01  0.17685713707E+02 -0.60522681634E+01  0.18731783068E+02  0.00000000000E+00 0. -1.
         -3    1    6    6    0  503  0.13740037954E+03  0.26451151576E+03 -0.61880750597E+03  0.68685364941E+03  0.00000000000E+00 0.  1.
<mgrwt>
<rscale>  0 0.43743804E+03</rscale>
<asrwt>0</asrwt>
<pdfrwt beam="1">  1        1 0.17771510E+00 0.43743804E+03</pdfrwt>
<pdfrwt beam="2">  1       -1 0.25072289E+00 0.43743804E+03</pdfrwt>
<totfact> 0.91318224E-01</totfact>
</mgrwt>
</event>
<event>
12    1  0.8033771E-008  0.8862701E+03  0.7818608E-02  0.9442909E-01
          2   -1    0    0  501    0  0.00000000000E+00  0.00000000000E+00  0.97692179560E+03  0.97692179560E+03  0.00000000000E+00 0. -1.
         -2   -1    0    0    0  501 -0.00000000000E+00 -0.00000000000E+00 -0.11536961842E+04  0.11536961842E+04  0.00000000000E+00 0.  1.
         23    2    1    2    0    0  0.60810363049E+03  0.60158476088E+03 -0.55003695381E+03  0.10210635695E+04  0.91301218233E+02 0.  0.
    5000000    2    1    2    0    0 -0.60810363049E+03 -0.60158476088E+03  0.37326256526E+03  0.11095544103E+04  0.60007649243E+03 0.  0.
         23    2    4    4    0    0 -0.54120192293E+03 -0.61356260958E+03  0.48019374382E+03  0.95305271169E+03  0.91459512325E+02 0.  0.
         23    2    4    4    0    0 -0.66901707561E+02  0.11977848703E+02 -0.10693117856E+03  0.15650169857E+03  0.91865104221E+02 0.  0.
          4    1    3    3  502    0  0.33262845903E+03  0.36148725596E+03 -0.26898219849E+03  0.56005906035E+03  0.00000000000E+00 0. -1.
         -4    1    3    3    0  502  0.27547517146E+03  0.24009750492E+03 -0.28105475533E+03  0.46100450914E+03  0.00000000000E+00 0.  1.
         15    1    5    5    0    0 -0.10710702786E+03 -0.73432464925E+02  0.64944414537E+02  0.14520735873E+03  0.17770000000E+01 0. -1.
        -15    1    5    5    0    0 -0.43409489507E+03 -0.54013014466E+03  0.41524932928E+03  0.80784535295E+03  0.17770000000E+01 0.  1.
          2    1    6    6  503    0  0.32501896992E+01  0.21956537433E+02 -0.76021298479E+02  0.79195271902E+02  0.00000000000E+00 0.  1.
         -2    1    6    6    0  503 -0.70151897260E+02 -0.99786887301E+01 -0.30909880083E+02  0.77306426671E+02  0.00000000000E+00 0. -1.
<mgrwt>
<rscale>  0 0.88627014E+03</rscale>
<asrwt>0</asrwt>
<pdfrwt beam="1">  1        2 0.15029566E+00 0.88627014E+03</pdfrwt>
<pdfrwt beam="2">  1       -2 0.17749172E+00 0.88627014E+03</pdfrwt>
<totfact> 0.49379289E+00</totfact>
</mgrwt>
</event>
<event>
12    1  0.8033771E-008  0.1046358E+04  0.7818608E-02  0.9259112E-01
          1   -1    0    0  501    0  0.00000000000E+00  0.00000000000E+00  0.38671284295E+04  0.38671284295E+04  0.00000000000E+00 0. -1.
         -1   -1    0    0    0  501 -0.00000000000E+00 -0.00000000000E+00 -0.31669080682E+03  0.31669080682E+03  0.00000000000E+00 0.  1.
         23    2    1    2    0    0 -0.88508283849E+03  0.50660692296E+03  0.17825402632E+04  0.20565019982E+04  0.10829807513E+03 0.  0.
    5000000    2    1    2    0    0  0.88508283849E+03 -0.50660692296E+03  0.17678973595E+04  0.21273172382E+04  0.59999612734E+03 0.  0.
         23    2    4    4    0    0  0.42590486415E+03 -0.79052488048E+02  0.11887084932E+04  0.12684633309E+04  0.91252894369E+02 0.  0.
         23    2    4    4    0    0  0.45917797434E+03 -0.42755443491E+03  0.57918886625E+03  0.85885390730E+03  0.92320552257E+02 0.  0.
          3    1    3    3  502    0 -0.58559277818E+03  0.27501818673E+03  0.11213487999E+04  0.12945953174E+04  0.00000000000E+00 0. -1.
         -3    1    3    3    0  502 -0.29949006031E+03  0.23158873623E+03  0.66119146335E+03  0.76190668076E+03  0.00000000000E+00 0.  1.
         15    1    5    5    0    0  0.24127740931E+03 -0.35205368749E+02  0.53864059841E+03  0.59126225841E+03  0.17770000000E+01 0.  1.
        -15    1    5    5    0    0  0.18462745484E+03 -0.43847119299E+02  0.65006789482E+03  0.67720107247E+03  0.17770000000E+01 0. -1.
          3    1    6    6  503    0  0.88220220255E+02 -0.13432915496E+03  0.16353964581E+03  0.22928659989E+03  0.00000000000E+00 0. -1.
         -3    1    6    6    0  503  0.37095775409E+03 -0.29322527995E+03  0.41564922043E+03  0.62956730742E+03  0.00000000000E+00 0.  1.
<mgrwt>
<rscale>  0 0.10463578E+04</rscale>
<asrwt>0</asrwt>
<pdfrwt beam="1">  1        1 0.59494280E+00 0.10463578E+04</pdfrwt>
<pdfrwt beam="2">  1       -1 0.48721665E-01 0.10463578E+04</pdfrwt>
<totfact> 0.54912319E-01</totfact>
</mgrwt>
</event>
<event>
12    1  0.8033771E-008  0.4729544E+03  0.7818608E-02  0.1021090E+00
          2   -1    0    0  501    0  0.00000000000E+00  0.00000000000E+00  0.18421922451E+04  0.18421922451E+04  0.00000000000E+00 0. -1.
         -2   -1    0    0    0  501 -0.00000000000E+00 -0.00000000000E+00 -0.18603065394E+03  0.18603065394E+03  0.00000000000E+00 0.  1.
         23    2    1    2    0    0  0.28596462260E+03  0.22728817524E+03  0.23746593145E+03  0.44514243778E+03  0.91247144253E+02 0.  0.
    5000000    2    1    2    0    0 -0.28596462260E+03 -0.22728817524E+03  0.14186956597E+04  0.15830804613E+04  0.60000890988E+03 0.  0.
         23    2    4    4    0    0 -0.39172021033E+03 -0.16562952515E+03  0.13438919320E+04  0.14125580080E+04  0.91633717722E+02 0.  0.
         23    2    4    4    0    0  0.10575558774E+03 -0.61658650092E+02  0.74803727699E+02  0.17052245326E+03  0.92175245704E+02 0.  0.
          1    1    3    3  502    0  0.36801573351E+02  0.69672111279E+01  0.17731966039E+01  0.37497227341E+02  0.00000000000E+00 0. -1.
         -1    1    3    3    0  502  0.24916304924E+03  0.22032096412E+03  0.23569273485E+03  0.40764521044E+03  0.00000000000E+00 0.  1.
         15    1    5    5    0    0 -0.92206518416E+02 -0.52285298734E+02  0.47073225564E+03  0.48252234014E+03  0.17770000000E+01 0.  1.
        -15    1    5    5    0    0 -0.29951369192E+03 -0.11334422642E+03  0.87315967639E+03  0.93003566787E+03  0.17770000000E+01 0. -1.
          3    1    6    6  503    0  0.76075393814E+02  0.53906029283E+01  0.56593626480E+02  0.94970325376E+02  0.00000000000E+00 0. -1.
         -3    1    6    6    0  503  0.29680193922E+02 -0.67049253021E+02  0.18210101219E+02  0.75552127887E+02  0.00000000000E+00 0.  1.
<mgrwt>
<rscale>  0 0.47295443E+03</rscale>
<asrwt>0</asrwt>
<pdfrwt beam="1">  1        2 0.28341418E+00 0.47295443E+03</pdfrwt>
<pdfrwt beam="2">  1       -2 0.28620102E-01 0.47295443E+03</pdfrwt>
<totfact> 0.97012452E+01</totfact>
</mgrwt>
</event>
<event>
12    1  0.8033771E-008  0.1962019E+04  0.7818608E-02  0.8624587E-01
          1   -1    0    0  501    0  0.00000000000E+00  0.00000000000E+00  0.22000745842E+04  0.22000745842E+04  0.00000000000E+00 0. -1.
         -1   -1    0    0    0  501 -0.00000000000E+00 -0.00000000000E+00 -0.18614371458E+04  0.18614371458E+04  0.00000000000E+00 0.  1.
         23    2    1    2    0    0  0.64616287832E+03 -0.18477864924E+04  0.45172399498E+03  0.20109504035E+04  0.89585551785E+02 0.  0.
    5000000    2    1    2    0    0 -0.64616287832E+03  0.18477864924E+04 -0.11308655667E+03  0.20505613265E+04  0.60014314757E+03 0.  0.
         23    2    4    4    0    0 -0.50334665058E+03  0.13386511970E+04  0.17249415455E+03  0.14434995030E+04  0.92691445042E+02 0.  0.
         23    2    4    4    0    0 -0.14281622774E+03  0.50913529541E+03 -0.28558071121E+03  0.60706182348E+03  0.85746667415E+02 0.  0.
          2    1    3    3  502    0  0.23762364106E+03 -0.61695743752E+03  0.19061195876E+03  0.68806568969E+03  0.00000000000E+00 0. -1.
         -2    1    3    3    0  502  0.40853923725E+03 -0.12308290549E+04  0.26111203622E+03  0.13228847138E+04  0.00000000000E+00 0.  1.
         15    1    5    5    0    0 -0.11116917452E+03  0.22436532146E+03  0.55101035257E+02  0.25639357374E+03  0.17770000000E+01 0.  1.
        -15    1    5    5    0    0 -0.39217747606E+03  0.11142858755E+04  0.11739311929E+03  0.11871059293E+04  0.17770000000E+01 0. -1.
          1    1    6    6  503    0 -0.37110984715E+02  0.27459326145E+03 -0.12660271656E+03  0.30464230216E+03  0.00000000000E+00 0. -1.
         -1    1    6    6    0  503 -0.10570524302E+03  0.23454203396E+03 -0.15897799465E+03  0.30241952133E+03  0.00000000000E+00 0.  1.
<mgrwt>
<rscale>  0 0.19620186E+04</rscale>
<asrwt>0</asrwt>
<pdfrwt beam="1">  1        1 0.33847301E+00 0.19620186E+04</pdfrwt>
<pdfrwt beam="2">  1       -1 0.28637494E+00 0.19620186E+04</pdfrwt>
<totfact> 0.78854336E-02</totfact>
</mgrwt>
</event>
<event>
12    1  0.8033771E-008  0.8540380E+03  0.7818608E-02  0.9484933E-01
         -1   -1    0    0    0  501 -0.00000000000E+00  0.00000000000E+00  0.41009819345E+03  0.41009819345E+03  0.00000000000E+00 0.  1.
          1   -1    0    0  501    0  0.00000000000E+00 -0.00000000000E+00 -0.25317745777E+04  0.25317745777E+04  0.00000000000E+00 0. -1.
         23    2    1    2    0    0 -0.77248261708E+03  0.15636188046E+03 -0.26317018945E+03  0.83584185500E+03  0.90524176871E+02 0.  0.
    5000000    2    1    2    0    0  0.77248261708E+03 -0.15636188046E+03 -0.18585061948E+04  0.21060309162E+04  0.60011874847E+03 0.  0.
         23    2    4    4    0    0  0.25178235749E+03 -0.27971824564E+03 -0.43366169482E+03  0.58128192465E+03  0.90496176087E+02 0.  0.
         23    2    4    4    0    0  0.52070025959E+03  0.12335636518E+03 -0.14248445000E+04  0.15247489915E+04  0.91280253849E+02 0.  0.
          3    1    3    3  502    0 -0.34031253556E+03  0.81570781273E+02 -0.16251299512E+03  0.38584567874E+03  0.00000000000E+00 0. -1.
         -3    1    3    3    0  502 -0.43217008152E+03  0.74791099190E+02 -0.10065719433E+03  0.44999617626E+03  0.00000000000E+00 0.  1.
         15    1    5    5    0    0  0.12577781494E+03 -0.11570250401E+03 -0.13404623943E+03  0.21720653811E+03  0.17770000000E+01 0. -1.
        -15    1    5    5    0    0  0.12600454256E+03 -0.16401574163E+03 -0.29961545539E+03  0.36407538654E+03  0.17770000000E+01 0.  1.
          2    1    6    6  503    0  0.32849852988E+03  0.11944888106E+03 -0.96401759745E+03  0.10254312495E+04  0.00000000000E+00 0.  1.
         -2    1    6    6    0  503  0.19220172971E+03  0.39074841211E+01 -0.46082690255E+03  0.49931774198E+03  0.00000000000E+00 0. -1.
<mgrwt>
<rscale>  0 0.85403801E+03</rscale>
<asrwt>0</asrwt>
<pdfrwt beam="1">  1        1 0.38950378E+00 0.85403801E+03</pdfrwt>
<pdfrwt beam="2">  1       -1 0.63092029E-01 0.85403801E+03</pdfrwt>
<totfact> 0.34190429E+00</totfact>
</mgrwt>
</event>
<event>
12    1  0.8033771E-008  0.6197935E+03  0.7818608E-02  0.9865171E-01
          1   -1    0    0  501    0  0.00000000000E+00  0.00000000000E+00  0.13933398301E+04  0.13933398301E+04  0.00000000000E+00 0. -1.
         -1   -1    0    0    0  501 -0.00000000000E+00 -0.00000000000E+00 -0.31288295167E+03  0.31288295167E+03  0.00000000000E+00 0.  1.
         23    2    1    2    0    0  0.42123735258E+03 -0.29427511307E+03  0.36294797688E+03  0.63907611994E+03  0.11246467788E+03 0.  0.
    5000000    2    1    2    0    0 -0.42123735258E+03  0.29427511307E+03  0.71750890155E+03  0.10671466618E+04  0.59995351878E+03 0.  0.
         23    2    4    4    0    0 -0.32587970653E+03 -0.74633661093E+02  0.15013329164E+03  0.37769812709E+03  0.91367956396E+02 0.  0.
         23    2    4    4    0    0 -0.95357646049E+02  0.36890877417E+03  0.56737560991E+03  0.68944853474E+03  0.90760316350E+02 0.  0.
          4    1    3    3  502    0  0.18194619206E+03 -0.14729515410E+03  0.10068174489E+03  0.25482757500E+03  0.00000000000E+00 0. -1.
         -4    1    3    3    0  502  0.23929116052E+03 -0.14697995897E+03  0.26226623200E+03  0.38424854494E+03  0.00000000000E+00 0.  1.
         15    1    5    5    0    0 -0.24367381108E+03 -0.60822093752E+02  0.15332806233E+03  0.29425992884E+03  0.17770000000E+01 0.  1.
        -15    1    5    5    0    0 -0.82205895453E+02 -0.13811567341E+02 -0.31947706888E+01  0.83438198257E+02  0.17770000000E+01 0. -1.
          3    1    6    6  503    0 -0.10197141015E+03  0.23634761412E+03  0.40277522446E+03  0.47800234793E+03  0.00000000000E+00 0.  1.
         -3    1    6    6    0  503  0.66137640991E+01  0.13256116004E+03  0.16460038545E+03  0.21144618681E+03  0.00000000000E+00 0. -1.
<mgrwt>
<rscale>  0 0.61979351E+03</rscale>
<asrwt>0</asrwt>
<pdfrwt beam="1">  1        1 0.21435997E+00 0.61979351E+03</pdfrwt>
<pdfrwt beam="2">  1       -1 0.48135839E-01 0.61979351E+03</pdfrwt>
<totfact> 0.35085024E+01</totfact>
</mgrwt>
</event>
<event>
12    1  0.8033771E-008  0.1253137E+04  0.7818608E-02  0.9067576E-01
          1   -1    0    0  501    0  0.00000000000E+00  0.00000000000E+00  0.12836005273E+04  0.12836005273E+04  0.00000000000E+00 0. -1.
         -1   -1    0    0    0  501 -0.00000000000E+00 -0.00000000000E+00 -0.19058342052E+04  0.19058342052E+04  0.00000000000E+00 0.  1.
         23    2    1    2    0    0  0.10356136923E+03  0.12082326725E+04 -0.12089883089E+04  0.17147511066E+04  0.90374101428E+02 0.  0.
    5000000    2    1    2    0    0 -0.10356136923E+03 -0.12082326725E+04  0.58675463101E+03  0.14746836259E+04  0.59988303137E+03 0.  0.
         23    2    4    4    0    0 -0.15818316814E+03 -0.11640593900E+04  0.64792902224E+03  0.13446832592E+04  0.91131068492E+02 0.  0.
         23    2    4    4    0    0  0.54621798913E+02 -0.44173282510E+02 -0.61174391226E+02  0.13000036666E+03  0.90680589911E+02 0.  0.
          3    1    3    3  502    0  0.53130283425E+02  0.92727181309E+03 -0.96320875685E+03  0.13380683658E+04  0.00000000000E+00 0. -1.
         -3    1    3    3    0  502  0.50431085806E+02  0.28096085945E+03 -0.24577955206E+03  0.37668274074E+03  0.00000000000E+00 0.  1.
         15    1    5    5    0    0  0.11747554035E+02 -0.10653411787E+03  0.59150621268E+02  0.12243151972E+03  0.17770000000E+01 0. -1.
        -15    1    5    5    0    0 -0.16993072218E+03 -0.10575252722E+04  0.58877840097E+03  0.12222517395E+04  0.17770000000E+01 0.  1.
          3    1    6    6  503    0  0.65194821830E+02  0.31329920763E+01 -0.43346766476E+02  0.78352553224E+02  0.00000000000E+00 0. -1.
         -3    1    6    6    0  503 -0.10573022917E+02 -0.47306274586E+02 -0.17827624750E+02  0.51647813439E+02  0.00000000000E+00 0.  1.
<mgrwt>
<rscale>  0 0.12531372E+04</rscale>
<asrwt>0</asrwt>
<pdfrwt beam="1">  1        1 0.19747701E+00 0.12531372E+04</pdfrwt>
<pdfrwt beam="2">  1       -1 0.29320526E+00 0.12531372E+04</pdfrwt>
<totfact> 0.33169557E-01</totfact>
</mgrwt>
</event>
<event>
12    1  0.8033771E-008  0.9939640E+03  0.7818608E-02  0.9315190E-01
         -1   -1    0    0    0  501 -0.00000000000E+00  0.00000000000E+00  0.55572856213E+03  0.55572856213E+03  0.00000000000E+00 0.  1.
          1   -1    0    0  501    0  0.00000000000E+00 -0.00000000000E+00 -0.27742955343E+04  0.27742955343E+04  0.00000000000E+00 0. -1.
         23    2    1    2    0    0  0.43126266623E+03  0.85219109486E+03 -0.14617573958E+03  0.97057356855E+03  0.91807165725E+02 0.  0.
    5000000    2    1    2    0    0 -0.43126266623E+03 -0.85219109486E+03 -0.20723912326E+04  0.23594505279E+04  0.59998685250E+03 0.  0.
         23    2    4    4    0    0 -0.18045212225E+03 -0.70175797043E+03 -0.96414508376E+03  0.12095022318E+04  0.91064200525E+02 0.  0.
         23    2    4    4    0    0 -0.25081054398E+03 -0.15043312443E+03 -0.11082461488E+04  0.11499482961E+04  0.92927409579E+02 0.  0.
          4    1    3    3  502    0  0.30483695576E+03  0.55304814228E+03 -0.58588817265E+02  0.63420853572E+03  0.00000000000E+00 0. -1.
         -4    1    3    3    0  502  0.12642571047E+03  0.29914295258E+03 -0.87586922312E+02  0.33636503283E+03  0.00000000000E+00 0.  1.
         15    1    5    5    0    0 -0.39005532852E+02 -0.23351648294E+03 -0.37857790859E+03  0.44651513972E+03  0.17770000000E+01 0. -1.
        -15    1    5    5    0    0 -0.14144658940E+03 -0.46824148749E+03 -0.58556717516E+03  0.76298709204E+03  0.17770000000E+01 0.  1.
          3    1    6    6  503    0  0.63048241215E+01 -0.12481148423E+02 -0.75007311395E+02  0.76299584768E+02  0.00000000000E+00 0. -1.
         -3    1    6    6    0  503 -0.25711536810E+03 -0.13795197600E+03 -0.10332388374E+04  0.10736487113E+04  0.00000000000E+00 0.  1.
<mgrwt>
<rscale>  0 0.99396398E+03</rscale>
<asrwt>0</asrwt>
<pdfrwt beam="1">  1        1 0.42681470E+00 0.99396398E+03</pdfrwt>
<pdfrwt beam="2">  1       -1 0.85496702E-01 0.99396398E+03</pdfrwt>
<totfact> 0.12041557E+00</totfact>
</mgrwt>
</event>
<event>
12    1  0.8033771E-008  0.6027207E+03  0.7818608E-02  0.9899778E-01
          2   -1    0    0  501    0  0.00000000000E+00  0.00000000000E+00  0.11221576142E+04  0.11221576142E+04  0.00000000000E+00 0. -1.
         -2   -1    0    0    0  501 -0.00000000000E+00 -0.00000000000E+00 -0.67902852106E+03  0.67902852106E+03  0.00000000000E+00 0.  1.
         23    2    1    2    0    0 -0.41527131507E+03 -0.23928179066E+03 -0.42145266428E+03  0.64483212199E+03  0.92087332791E+02 0.  0.
    5000000    2    1    2    0    0  0.41527131507E+03  0.23928179066E+03  0.86458175738E+03  0.11563540132E+04  0.59995578859E+03 0.  0.
         23    2    4    4    0    0  0.20791313969E+02  0.30735366733E+03  0.20969702213E+03  0.38357547534E+03  0.90877657543E+02 0.  0.
         23    2    4    4    0    0  0.39448000110E+03 -0.68071876662E+02  0.65488473525E+03  0.77277853789E+03  0.89802007195E+02 0.  0.
          4    1    3    3  502    0 -0.24623901898E+03 -0.10759080760E+03 -0.27995599294E+03  0.38805256645E+03  0.00000000000E+00 0. -1.
         -4    1    3    3    0  502 -0.16903229608E+03 -0.13169098307E+03 -0.14149667134E+03  0.25677955553E+03  0.00000000000E+00 0.  1.
         15    1    5    5    0    0 -0.17075295169E+02  0.80531251146E+02  0.18230059227E+02  0.84334695735E+02  0.17770000000E+01 0.  1.
        -15    1    5    5    0    0  0.37866609138E+02  0.22682241618E+03  0.19146696290E+03  0.29924077961E+03  0.17770000000E+01 0. -1.
          2    1    6    6  503    0  0.26056871560E+03 -0.87405639714E+02  0.42992945132E+03  0.51026966843E+03  0.00000000000E+00 0. -1.
         -2    1    6    6    0  503  0.13391128550E+03  0.19333763052E+02  0.22495528393E+03  0.26250886946E+03  0.00000000000E+00 0.  1.
<mgrwt>
<rscale>  0 0.60272068E+03</rscale>
<asrwt>0</asrwt>
<pdfrwt beam="1">  1        2 0.17263963E+00 0.60272068E+03</pdfrwt>
<pdfrwt beam="2">  1       -2 0.10446593E+00 0.60272068E+03</pdfrwt>
<totfact> 0.16298708E+01</totfact>
</mgrwt>
</event>
<event>
12    1  0.8033771E-008  0.1601602E+04  0.7818608E-02  0.8819565E-01
         -1   -1    0    0    0  501 -0.00000000000E+00  0.00000000000E+00  0.11352641855E+04  0.11352641855E+04  0.00000000000E+00 0.  1.
          1   -1    0    0  501    0  0.00000000000E+00 -0.00000000000E+00 -0.22906342071E+04  0.22906342071E+04  0.00000000000E+00 0. -1.
         23    2    1    2    0    0 -0.14598991417E+03 -0.15406914490E+04 -0.72347221547E+03  0.17106945005E+04  0.89556862051E+02 0.  0.
    5000000    2    1    2    0    0  0.14598991417E+03  0.15406914490E+04 -0.43189780620E+03  0.17152038921E+04  0.60028783139E+03 0.  0.
         23    2    4    4    0    0  0.34415920003E+03  0.64882937521E+03 -0.20238078031E+03  0.76820251791E+03  0.98752292085E+02 0.  0.
         23    2    4    4    0    0 -0.19816928586E+03  0.89186207377E+03 -0.22951702589E+03  0.94700137419E+03  0.97182884642E+02 0.  0.
          2    1    3    3  502    0 -0.13791738893E+03 -0.10234382763E+04 -0.46981636287E+03  0.11345371419E+04  0.00000000000E+00 0. -1.
         -2    1    3    3    0  502 -0.80725252343E+01 -0.51725317272E+03 -0.25365585260E+03  0.57615735864E+03  0.00000000000E+00 0.  1.
         15    1    5    5    0    0  0.16782144622E+02  0.40236442847E+02  0.10910102674E+02  0.44975546472E+02  0.17770000000E+01 0. -1.
        -15    1    5    5    0    0  0.32737705541E+03  0.60859293236E+03 -0.21329088299E+03  0.72322697144E+03  0.17770000000E+01 0.  1.
          4    1    6    6  503    0 -0.12523786146E+03  0.34948950803E+03 -0.81679758794E+02  0.38013026868E+03  0.00000000000E+00 0. -1.
         -4    1    6    6    0  503 -0.72931424402E+02  0.54237256573E+03 -0.14783726710E+03  0.56687110551E+03  0.00000000000E+00 0.  1.
<mgrwt>
<rscale>  0 0.16016015E+04</rscale>
<asrwt>0</asrwt>
<pdfrwt beam="1">  1        1 0.35240525E+00 0.16016015E+04</pdfrwt>
<pdfrwt beam="2">  1       -1 0.17465603E+00 0.16016015E+04</pdfrwt>
<totfact> 0.40253484E-01</totfact>
</mgrwt>
</event>
<event>
12    1  0.8033771E-008  0.5195715E+03  0.7818608E-02  0.1008793E+00
         -1   -1    0    0    0  501 -0.00000000000E+00  0.00000000000E+00  0.25376890629E+03  0.25376890629E+03  0.00000000000E+00 0.  1.
          1   -1    0    0  501    0  0.00000000000E+00 -0.00000000000E+00 -0.19972939415E+04  0.19972939415E+04  0.00000000000E+00 0. -1.
         23    2    1    2    0    0 -0.24535039193E+02  0.34673437148E+03 -0.14566456196E+04  0.15006235763E+04  0.96062292652E+02 0.  0.
    5000000    2    1    2    0    0  0.24535039193E+02 -0.34673437148E+03 -0.28687941565E+03  0.75043927155E+03  0.60002717326E+03 0.  0.
         23    2    4    4    0    0  0.28821699738E+03 -0.94984954385E+02 -0.11129970716E+03  0.33590552495E+03  0.91398674722E+02 0.  0.
         23    2    4    4    0    0 -0.26368195819E+03 -0.25174941709E+03 -0.17557970850E+03  0.41453374660E+03  0.90022491385E+02 0.  0.
          1    1    3    3  502    0  0.91674149673E+00  0.32515637861E+03 -0.13617523451E+04  0.14000346282E+04  0.00000000000E+00 0. -1.
         -1    1    3    3    0  502 -0.25451780690E+02  0.21577992868E+02 -0.94893274527E+02  0.10058894804E+03  0.00000000000E+00 0.  1.
         15    1    5    5    0    0  0.11846109206E+03  0.52298341007E+01 -0.56073910963E+02  0.13117859092E+03  0.17770000000E+01 0.  1.
        -15    1    5    5    0    0  0.16975590532E+03 -0.10021478849E+03 -0.55225796192E+02  0.20472693403E+03  0.17770000000E+01 0. -1.
          3    1    6    6  503    0 -0.18005933593E+03 -0.18169455408E+03 -0.76059195816E+02  0.26686940010E+03  0.00000000000E+00 0. -1.
         -3    1    6    6    0  503 -0.83622622253E+02 -0.70054863010E+02 -0.99520512683E+02  0.14766434650E+03  0.00000000000E+00 0.  1.
<mgrwt>
<rscale>  0 0.51957153E+03</rscale>
<asrwt>0</asrwt>
<pdfrwt beam="1">  1        1 0.30727598E+00 0.51957153E+03</pdfrwt>
<pdfrwt beam="2">  1       -1 0.39041372E-01 0.51957153E+03</pdfrwt>
<totfact> 0.20622399E+01</totfact>
</mgrwt>
</event>
<event>
12    1  0.8033771E-008  0.8493011E+03  0.7818608E-02  0.9491275E-01
         -1   -1    0    0    0  501 -0.00000000000E+00  0.00000000000E+00  0.10977923574E+04  0.10977923574E+04  0.00000000000E+00 0.  1.
          1   -1    0    0  501    0  0.00000000000E+00 -0.00000000000E+00 -0.16039695759E+04  0.16039695759E+04  0.00000000000E+00 0. -1.
         23    2    1    2    0    0 -0.17688704994E+02  0.79804154712E+03  0.74695720174E+03  0.10993876950E+04  0.11629721168E+03 0.  0.
    5000000    2    1    2    0    0  0.17688704994E+02 -0.79804154712E+03 -0.12531344202E+04  0.16023742383E+04  0.60006176632E+03 0.  0.
         23    2    4    4    0    0  0.95622136734E+02 -0.48175642805E+02 -0.55088999373E+03  0.56829678684E+03  0.89537518056E+02 0.  0.
         23    2    4    4    0    0 -0.77933431740E+02 -0.74986590431E+03 -0.70224442647E+03  0.10340774515E+04  0.88297491346E+02 0.  0.
          4    1    3    3  502    0 -0.60705036487E+02  0.32462124402E+03  0.27884992549E+03  0.43222833603E+03  0.00000000000E+00 0. -1.
         -4    1    3    3    0  502  0.43016331492E+02  0.47342030310E+03  0.46810727625E+03  0.66715935895E+03  0.00000000000E+00 0.  1.
         15    1    5    5    0    0  0.50731859533E+02  0.22341539479E+02 -0.24367653760E+03  0.24990854060E+03  0.17770000000E+01 0. -1.
        -15    1    5    5    0    0  0.44890277201E+02 -0.70517182284E+02 -0.30721345613E+03  0.31838824624E+03  0.17770000000E+01 0.  1.
          2    1    6    6  503    0 -0.39745629936E+02 -0.39481700048E+03 -0.30933235957E+03  0.50313684783E+03  0.00000000000E+00 0. -1.
         -2    1    6    6    0  503 -0.38187801804E+02 -0.35504890383E+03 -0.39291206691E+03  0.53094060368E+03  0.00000000000E+00 0.  1.
<mgrwt>
<rscale>  0 0.84930108E+03</rscale>
<asrwt>0</asrwt>
<pdfrwt beam="1">  1        1 0.24676455E+00 0.84930108E+03</pdfrwt>
<pdfrwt beam="2">  1       -1 0.16889113E+00 0.84930108E+03</pdfrwt>
<totfact> 0.14340637E+00</totfact>
</mgrwt>
</event>
<event>
12    1  0.8033771E-008  0.6608823E+03  0.7818608E-02  0.9786571E-01
         -1   -1    0    0    0  501 -0.00000000000E+00  0.00000000000E+00  0.53130099525E+03  0.53130099525E+03  0.00000000000E+00 0.  1.
          1   -1    0    0  501    0  0.00000000000E+00 -0.00000000000E+00 -0.19076763595E+04  0.19076763595E+04  0.00000000000E+00 0. -1.
         23    2    1    2    0    0  0.32703081907E+03  0.41789129829E+03 -0.15312151669E+04  0.16230968657E+04  0.90781355433E+02 0.  0.
    5000000    2    1    2    0    0 -0.32703081907E+03 -0.41789129829E+03  0.15483980264E+03  0.81588048899E+03  0.60008608884E+03 0.  0.
         23    2    4    4    0    0 -0.46567832422E+02  0.13232045717E+03  0.82380226847E+02  0.18756130706E+03  0.93356712291E+02 0.  0.
         23    2    4    4    0    0 -0.28046298665E+03 -0.55021175546E+03  0.72459575792E+02  0.62831918193E+03  0.90233815898E+02 0.  0.
          3    1    3    3  502    0  0.93629193763E+02  0.19047699449E+03 -0.58069081573E+03  0.61826348333E+03  0.00000000000E+00 0. -1.
         -3    1    3    3    0  502  0.23340162530E+03  0.22741430380E+03 -0.95052435115E+03  0.10048333824E+04  0.00000000000E+00 0.  1.
         15    1    5    5    0    0 -0.23632623414E+02 -0.69211846717E+01  0.11309669408E+01  0.24715187677E+02  0.17770000000E+01 0. -1.
        -15    1    5    5    0    0 -0.22935209008E+02  0.13924164184E+03  0.81249259906E+02  0.16284611938E+03  0.17770000000E+01 0.  1.
          1    1    6    6  503    0 -0.42681896822E+02 -0.70383941268E+02  0.40799342817E+02  0.91870723732E+02  0.00000000000E+00 0. -1.
         -1    1    6    6    0  503 -0.23778108982E+03 -0.47982781419E+03  0.31660232975E+02  0.53644845820E+03  0.00000000000E+00 0.  1.
<mgrwt>
<rscale>  0 0.66088228E+03</rscale>
<asrwt>0</asrwt>
<pdfrwt beam="1">  1        1 0.29348868E+00 0.66088228E+03</pdfrwt>
<pdfrwt beam="2">  1       -1 0.81738613E-01 0.66088228E+03</pdfrwt>
<totfact> 0.54631428E+00</totfact>
</mgrwt>
</event>
<event>
12    1  0.8033771E-008  0.1496023E+04  0.7818608E-02  0.8887102E-01
          2   -1    0    0  501    0  0.00000000000E+00  0.00000000000E+00  0.31183430222E+04  0.31183430222E+04  0.00000000000E+00 0. -1.
         -2   -1    0    0    0  501 -0.00000000000E+00 -0.00000000000E+00 -0.89717688749E+03  0.89717688749E+03  0.00000000000E+00 0.  1.
         23    2    1    2    0    0  0.14142610779E+04  0.26668415310E+03  0.18910015728E+03  0.14541575419E+04  0.86950866827E+02 0.  0.
    5000000    2    1    2    0    0 -0.14142610779E+04 -0.26668415310E+03  0.20320659774E+04  0.25613623678E+04  0.60002517304E+03 0.  0.
         23    2    4    4    0    0 -0.10935063491E+04  0.45909354526E+02  0.15158119541E+04  0.18719229861E+04  0.92444477051E+02 0.  0.
         23    2    4    4    0    0 -0.32075472881E+03 -0.31259350763E+03  0.51625402338E+03  0.68943938168E+03  0.90609863159E+02 0.  0.
          3    1    3    3  502    0  0.31719936665E+03  0.89854803827E+02  0.21654080386E+02  0.33039101557E+03  0.00000000000E+00 0. -1.
         -3    1    3    3    0  502  0.10970617113E+04  0.17682934927E+03  0.16744607690E+03  0.11237665264E+04  0.00000000000E+00 0.  1.
         15    1    5    5    0    0 -0.39065955535E+03 -0.11273065381E+02  0.48259265092E+03  0.62099983466E+03  0.17770000000E+01 0. -1.
        -15    1    5    5    0    0 -0.70284679377E+03  0.57182419906E+02  0.10332193031E+04  0.12509231514E+04  0.17770000000E+01 0.  1.
          2    1    6    6  503    0 -0.18052743546E+03 -0.23005745909E+03  0.30172773732E+03  0.42018593135E+03  0.00000000000E+00 0.  1.
         -2    1    6    6    0  503 -0.14022729334E+03 -0.82536048537E+02  0.21452628605E+03  0.26925345033E+03  0.00000000000E+00 0. -1.
<mgrwt>
<rscale>  0 0.14960230E+04</rscale>
<asrwt>0</asrwt>
<pdfrwt beam="1">  1        2 0.47974507E+00 0.14960230E+04</pdfrwt>
<pdfrwt beam="2">  1       -2 0.13802722E+00 0.14960230E+04</pdfrwt>
<totfact> 0.51906484E-01</totfact>
</mgrwt>
</event>
<event>
12    1  0.8033771E-008  0.2354171E+04  0.7818608E-02  0.8456863E-01
         -2   -1    0    0    0  501 -0.00000000000E+00  0.00000000000E+00  0.17163063019E+04  0.17163063019E+04  0.00000000000E+00 0.  1.
          2   -1    0    0  501    0  0.00000000000E+00 -0.00000000000E+00 -0.35489007817E+04  0.35489007817E+04  0.00000000000E+00 0. -1.
         23    2    1    2    0    0 -0.12213864502E+04 -0.19817587190E+04 -0.16487034589E+04  0.28541708541E+04  0.94422920020E+02 0.  0.
    5000000    2    1    2    0    0  0.12213864502E+04  0.19817587190E+04 -0.18389102091E+03  0.24110362296E+04  0.60010608344E+03 0.  0.
         23    2    4    4    0    0  0.58915443408E+03  0.52795747119E+03 -0.20683676291E+03  0.82272833185E+03  0.90875865677E+02 0.  0.
         23    2    4    4    0    0  0.63223201617E+03  0.14538012478E+04  0.22945741999E+02  0.15883078977E+04  0.94551998129E+02 0.  0.
          3    1    3    3  502    0 -0.48445631995E+03 -0.84155579358E+03 -0.64313698580E+03  0.11647056547E+04  0.00000000000E+00 0. -1.
         -3    1    3    3    0  502 -0.73693013029E+03 -0.11402029255E+04 -0.10055664731E+04  0.16894651994E+04  0.00000000000E+00 0.  1.
         15    1    5    5    0    0  0.18456388722E+03  0.19934237318E+03 -0.35079887642E+02  0.27392511104E+03  0.17770000000E+01 0. -1.
        -15    1    5    5    0    0  0.40459054686E+03  0.32861509801E+03 -0.17175687526E+03  0.54880322081E+03  0.17770000000E+01 0.  1.
          3    1    6    6  503    0  0.61574671634E+02  0.97446005563E+02  0.18777570969E+02  0.11678938890E+03  0.00000000000E+00 0. -1.
         -3    1    6    6    0  503  0.57065734453E+03  0.13563552423E+04  0.41681710303E+01  0.14715185088E+04  0.00000000000E+00 0.  1.
<mgrwt>
<rscale>  0 0.23541711E+04</rscale>
<asrwt>0</asrwt>
<pdfrwt beam="1">  1        2 0.54598472E+00 0.23541711E+04</pdfrwt>
<pdfrwt beam="2">  1       -2 0.26404713E+00 0.23541711E+04</pdfrwt>
<totfact> 0.33867602E-02</totfact>
</mgrwt>
</event>
<event>
12    1  0.8033771E-008  0.6341727E+03  0.7818608E-02  0.9836940E-01
          2   -1    0    0  501    0  0.00000000000E+00  0.00000000000E+00  0.25097232629E+04  0.25097232629E+04  0.00000000000E+00 0. -1.
         -2   -1    0    0    0  501 -0.00000000000E+00 -0.00000000000E+00 -0.20138085365E+03  0.20138085365E+03  0.00000000000E+00 0.  1.
         23    2    1    2    0    0  0.53034046516E+03  0.14614124897E+03  0.60257331313E+03  0.82105676902E+03  0.91767895377E+02 0.  0.
    5000000    2    1    2    0    0 -0.53034046516E+03 -0.14614124897E+03  0.17057690962E+04  0.18900473476E+04  0.60001041073E+03 0.  0.
         23    2    4    4    0    0 -0.44622438860E+02  0.12117026111E+03  0.97073608864E+02  0.18605429626E+03  0.92301253479E+02 0.  0.
         23    2    4    4    0    0 -0.48571802630E+03 -0.26731151008E+03  0.16086954873E+04  0.17039930513E+04  0.91179512731E+02 0.  0.
          1    1    3    3  502    0  0.87061751956E+02  0.46550295783E+02  0.15156320232E+03  0.18088140586E+03  0.00000000000E+00 0. -1.
         -1    1    3    3    0  502  0.44327871320E+03  0.99590953190E+02  0.45101011081E+03  0.64017536316E+03  0.00000000000E+00 0.  1.
         15    1    5    5    0    0 -0.62045921747E+02  0.46511445477E+02  0.70727315449E+02  0.10496914711E+03  0.17770000000E+01 0. -1.
        -15    1    5    5    0    0  0.17423482888E+02  0.74658815631E+02  0.26346293415E+02  0.81085149152E+02  0.17770000000E+01 0.  1.
          1    1    6    6  503    0 -0.21333947831E+03 -0.16644316313E+03  0.72990972197E+03  0.77845055192E+03  0.00000000000E+00 0. -1.
         -1    1    6    6    0  503 -0.27237854799E+03 -0.10086834695E+03  0.87878576532E+03  0.92554249938E+03  0.00000000000E+00 0.  1.
<mgrwt>
<rscale>  0 0.63417273E+03</rscale>
<asrwt>0</asrwt>
<pdfrwt beam="1">  1        2 0.38611125E+00 0.63417273E+03</pdfrwt>
<pdfrwt beam="2">  1       -2 0.30981672E-01 0.63417273E+03</pdfrwt>
<totfact> 0.35212833E+01</totfact>
</mgrwt>
</event>
<event>
12    1  0.8033771E-008  0.6567280E+03  0.7818608E-02  0.9794236E-01
          2   -1    0    0  501    0  0.00000000000E+00  0.00000000000E+00  0.64378431281E+03  0.64378431281E+03  0.00000000000E+00 0. -1.
         -2   -1    0    0    0  501 -0.00000000000E+00 -0.00000000000E+00 -0.70174784847E+03  0.70174784847E+03  0.00000000000E+00 0.  1.
         23    2    1    2    0    0 -0.20883007962E+03 -0.48231990146E+03 -0.11499744874E+03  0.54581289839E+03  0.91895687260E+02 0.  0.
    5000000    2    1    2    0    0  0.20883007962E+03  0.48231990146E+03  0.57033913076E+02  0.79971926289E+03  0.60004628380E+03 0.  0.
         23    2    4    4    0    0  0.13935461892E+03 -0.10410398329E+03 -0.19497081613E+02  0.19726505398E+03  0.90972612249E+02 0.  0.
         23    2    4    4    0    0  0.69475460703E+02  0.58642388475E+03  0.76530994689E+02  0.60245420891E+03  0.91511029098E+02 0.  0.
          1    1    3    3  502    0 -0.15656751551E+03 -0.43454680180E+03 -0.89028484173E+02  0.47039385717E+03  0.00000000000E+00 0. -1.
         -1    1    3    3    0  502 -0.52262564111E+02 -0.47773099657E+02 -0.25968964565E+02  0.75419041222E+02  0.00000000000E+00 0.  1.
         15    1    5    5    0    0  0.74872392866E+02 -0.18858971805E+02  0.25425168411E+02  0.81308873740E+02  0.17770000000E+01 0.  1.
        -15    1    5    5    0    0  0.64482226054E+02 -0.85245011484E+02 -0.44922250024E+02  0.11595618024E+03  0.17770000000E+01 0. -1.
          1    1    6    6  503    0  0.63273769159E+02  0.19211088535E+03  0.99140147816E+01  0.20250543159E+03  0.00000000000E+00 0. -1.
         -1    1    6    6    0  503  0.62016915440E+01  0.39431299940E+03  0.66616979907E+02  0.39994877732E+03  0.00000000000E+00 0.  1.
<mgrwt>
<rscale>  0 0.65672801E+03</rscale>
<asrwt>0</asrwt>
<pdfrwt beam="1">  1        2 0.99043741E-01 0.65672801E+03</pdfrwt>
<pdfrwt beam="2">  1       -2 0.10796121E+00 0.65672801E+03</pdfrwt>
<totfact> 0.31944916E+01</totfact>
</mgrwt>
</event>
<event>
12    1  0.8033771E-008  0.6850952E+03  0.7818608E-02  0.9743066E-01
          1   -1    0    0  501    0  0.00000000000E+00  0.00000000000E+00  0.69527053833E+03  0.69527053833E+03  0.00000000000E+00 0. -1.
         -1   -1    0    0    0  501 -0.00000000000E+00 -0.00000000000E+00 -0.80058920728E+03  0.80058920728E+03  0.00000000000E+00 0.  1.
         23    2    1    2    0    0 -0.32337488590E+03 -0.46023228169E+03  0.22462044663E+03  0.61012063232E+03  0.73537548197E+02 0.  0.
    5000000    2    1    2    0    0  0.32337488590E+03  0.46023228169E+03 -0.32993911557E+03  0.88573911329E+03  0.59940711281E+03 0.  0.
         23    2    4    4    0    0  0.45956190659E+03  0.45214453495E+03 -0.30672233414E+03  0.71983676778E+03  0.91948656943E+02 0.  0.
         23    2    4    4    0    0 -0.13618702069E+03  0.80877467379E+01 -0.23216781436E+02  0.16590234551E+03  0.91500016676E+02 0.  0.
          1    1    3    3  502    0 -0.18852504765E+03 -0.25734938011E+03  0.88512285545E+02  0.33106618935E+03  0.00000000000E+00 0. -1.
         -1    1    3    3    0  502 -0.13484983825E+03 -0.20288290157E+03  0.13610816108E+03  0.27905444297E+03  0.00000000000E+00 0.  1.
         15    1    5    5    0    0  0.89362770309E+02  0.46974716582E+02 -0.30890149598E+02  0.10559208203E+03  0.17770000000E+01 0. -1.
        -15    1    5    5    0    0  0.37019913629E+03  0.40516981837E+03 -0.27583218454E+03  0.61424468576E+03  0.17770000000E+01 0.  1.
          3    1    6    6  503    0  0.56217849692E+01 -0.13217649345E+02  0.11452766866E+02  0.18370535902E+02  0.00000000000E+00 0. -1.
         -3    1    6    6    0  503 -0.14180880566E+03  0.21305396082E+02 -0.34669548302E+02  0.14753180961E+03  0.00000000000E+00 0.  1.
<mgrwt>
<rscale>  0 0.68509521E+03</rscale>
<asrwt>0</asrwt>
<pdfrwt beam="1">  1        1 0.10696470E+00 0.68509521E+03</pdfrwt>
<pdfrwt beam="2">  1       -1 0.12316757E+00 0.68509521E+03</pdfrwt>
<totfact> 0.16558100E+01</totfact>
</mgrwt>
</event>
<event>
12    1  0.8033771E-008  0.1318896E+04  0.7818608E-02  0.9014714E-01
          2   -1    0    0  501    0  0.00000000000E+00  0.00000000000E+00  0.13257347865E+04  0.13257347865E+04  0.00000000000E+00 0. -1.
         -2   -1    0    0    0  501 -0.00000000000E+00 -0.00000000000E+00 -0.13639362555E+04  0.13639362555E+04  0.00000000000E+00 0.  1.
         23    2    1    2    0    0  0.35975586399E+03 -0.12199020012E+04  0.85643040023E+02  0.12780086152E+04  0.91575739212E+02 0.  0.
    5000000    2    1    2    0    0 -0.35975586399E+03  0.12199020012E+04 -0.12384450905E+03  0.14116624269E+04  0.59989013237E+03 0.  0.
         23    2    4    4    0    0  0.11713777198E+03  0.29882088088E+03 -0.15913769249E+03  0.36954989311E+03  0.90703593369E+02 0.  0.
         23    2    4    4    0    0 -0.47689363598E+03  0.92108112029E+03  0.35293183435E+02  0.10421125338E+04  0.94524885945E+02 0.  0.
          3    1    3    3  502    0  0.20313722004E+03 -0.64184560366E+03  0.89146216123E+02  0.67910054995E+03  0.00000000000E+00 0. -1.
         -3    1    3    3    0  502  0.15661864395E+03 -0.57805639751E+03 -0.35031761003E+01  0.59890806521E+03  0.00000000000E+00 0.  1.
         15    1    5    5    0    0  0.10681166555E+02  0.88388738972E+02 -0.79249325561E+01  0.89401447310E+02  0.17770000000E+01 0. -1.
        -15    1    5    5    0    0  0.10645660543E+03  0.21043214190E+03 -0.15121275993E+03  0.28014844580E+03  0.17770000000E+01 0.  1.
          1    1    6    6  503    0 -0.31014135955E+03  0.68297607659E+03  0.79277461645E+01  0.75013787616E+03  0.00000000000E+00 0. -1.
         -1    1    6    6    0  503 -0.16675227643E+03  0.23810504370E+03  0.27365437271E+02  0.29197465761E+03  0.00000000000E+00 0.  1.
<mgrwt>
<rscale>  0 0.13188955E+04</rscale>
<asrwt>0</asrwt>
<pdfrwt beam="1">  1        2 0.20395920E+00 0.13188955E+04</pdfrwt>
<pdfrwt beam="2">  1       -2 0.20983634E+00 0.13188955E+04</pdfrwt>
<totfact> 0.17581061E+00</totfact>
</mgrwt>
</event>
<event>
12    1  0.8033771E-008  0.7503653E+03  0.7818608E-02  0.9634777E-01
         -2   -1    0    0    0  501 -0.00000000000E+00  0.00000000000E+00  0.38230798123E+03  0.38230798123E+03  0.00000000000E+00 0.  1.
          2   -1    0    0  501    0  0.00000000000E+00 -0.00000000000E+00 -0.20088292609E+04  0.20088292609E+04  0.00000000000E+00 0. -1.
         23    2    1    2    0    0  0.37409038228E+03 -0.60504701892E+03 -0.11248299955E+04  0.13339275069E+04  0.89969804131E+02 0.  0.
    5000000    2    1    2    0    0 -0.37409038228E+03  0.60504701892E+03 -0.50169128414E+03  0.10572097352E+04  0.59997730825E+03 0.  0.
         23    2    4    4    0    0 -0.31847765730E+03  0.20499679775E+03  0.20627901076E+02  0.39055831969E+03  0.93051520632E+02 0.  0.
         23    2    4    4    0    0 -0.55612724975E+02  0.40005022117E+03 -0.52231918522E+03  0.66665141551E+03  0.92053375396E+02 0.  0.
          3    1    3    3  502    0  0.31617264026E+03 -0.51333639845E+03 -0.88658872415E+03  0.10721562210E+04  0.00000000000E+00 0. -1.
         -3    1    3    3    0  502  0.57917742014E+02 -0.91710620465E+02 -0.23824127136E+03  0.26177128590E+03  0.00000000000E+00 0.  1.
         15    1    5    5    0    0 -0.29101966571E+03  0.15884569514E+03 -0.37058460381E+01  0.33157396116E+03  0.17770000000E+01 0. -1.
        -15    1    5    5    0    0 -0.27457991590E+02  0.46151102606E+02  0.24333747114E+02  0.58984358533E+02  0.17770000000E+01 0.  1.
          1    1    6    6  503    0 -0.26980166984E+02  0.23812585313E+03 -0.37959322746E+03  0.44891298675E+03  0.00000000000E+00 0. -1.
         -1    1    6    6    0  503 -0.28632557991E+02  0.16192436804E+03 -0.14272595776E+03  0.21773842877E+03  0.00000000000E+00 0.  1.
<mgrwt>
<rscale>  0 0.75036530E+03</rscale>
<asrwt>0</asrwt>
<pdfrwt beam="1">  1        2 0.30905066E+00 0.75036530E+03</pdfrwt>
<pdfrwt beam="2">  1       -2 0.58816612E-01 0.75036530E+03</pdfrwt>
<totfact> 0.18458451E+01</totfact>
</mgrwt>
</event>
<event>
12    1  0.8444490E-008  0.1305236E+04  0.7818608E-02  0.9025423E-01
          2   -1    0    0  501    0  0.00000000000E+00  0.00000000000E+00  0.17390310496E+04  0.17390310496E+04  0.00000000000E+00 0.  1.
         -2   -1    0    0    0  501 -0.00000000000E+00 -0.00000000000E+00 -0.11355765828E+04  0.11355765828E+04  0.00000000000E+00 0. -1.
         23    2    1    2    0    0  0.53043877168E+03 -0.11890303576E+04  0.61089597780E+03  0.14410194857E+04  0.90469778085E+02 0.  0.
    5000000    2    1    2    0    0 -0.53043877168E+03  0.11890303576E+04 -0.74415110475E+01  0.14335881467E+04  0.59996759616E+03 0.  0.
         23    2    4    4    0    0 -0.22857102883E+03  0.54283463500E+03 -0.28794880779E+03  0.66179706552E+03  0.90258982080E+02 0.  0.
         23    2    4    4    0    0 -0.30186774285E+03  0.64619572263E+03  0.28050729675E+03  0.77179108119E+03  0.91016939960E+02 0.  0.
          3    1    3    3  502    0  0.33755261669E+03 -0.72347846171E+03  0.42051519521E+03  0.90232803513E+03  0.00000000000E+00 0. -1.
         -3    1    3    3    0  502  0.19288615499E+03 -0.46555189592E+03  0.19038078259E+03  0.53869145061E+03  0.00000000000E+00 0.  1.
         15    1    5    5    0    0 -0.86189392915E+02  0.29027163935E+03 -0.11320421709E+03  0.32327169464E+03  0.17770000000E+01 0. -1.
        -15    1    5    5    0    0 -0.14238163592E+03  0.25256299565E+03 -0.17474459071E+03  0.33852537087E+03  0.17770000000E+01 0.  1.
          1    1    6    6  503    0 -0.10643999849E+03  0.16818548147E+03  0.44247138066E+02  0.20389614680E+03  0.00000000000E+00 0. -1.
         -1    1    6    6    0  503 -0.19542774436E+03  0.47801024116E+03  0.23626015868E+03  0.56789493438E+03  0.00000000000E+00 0.  1.
<mgrwt>
<rscale>  0 0.13052360E+04</rscale>
<asrwt>0</asrwt>
<pdfrwt beam="1">  1        2 0.26754324E+00 0.13052360E+04</pdfrwt>
<pdfrwt beam="2">  1       -2 0.17470409E+00 0.13052360E+04</pdfrwt>
<totfact> 0.17681155E+00</totfact>
</mgrwt>
</event>
<event>
12    1  0.8033771E-008  0.5334841E+03  0.7818608E-02  0.1005391E+00
          2   -1    0    0  501    0  0.00000000000E+00  0.00000000000E+00  0.19248791064E+04  0.19248791064E+04  0.00000000000E+00 0.  1.
         -2   -1    0    0    0  501 -0.00000000000E+00 -0.00000000000E+00 -0.19443119811E+03  0.19443119811E+03  0.00000000000E+00 0. -1.
         23    2    1    2    0    0 -0.11523278653E+03 -0.36186577999E+03  0.11086327184E+04  0.11751993801E+04  0.88326897499E+02 0.  0.
    5000000    2    1    2    0    0  0.11523278653E+03  0.36186577999E+03  0.62181518989E+03  0.94411092443E+03  0.60038809901E+03 0.  0.
         23    2    4    4    0    0 -0.73926515974E+02 -0.12998542304E+03  0.13381045845E+03  0.22079135229E+03  0.92099090595E+02 0.  0.
         23    2    4    4    0    0  0.18915930251E+03  0.49185120302E+03  0.48800473144E+03  0.72331957214E+03  0.85695611866E+02 0.  0.
          4    1    3    3  502    0 -0.45922966436E+02 -0.58912667292E+02  0.15220977935E+03  0.16955069491E+03  0.00000000000E+00 0. -1.
         -4    1    3    3    0  502 -0.69309820097E+02 -0.30295311269E+03  0.95642293909E+03  0.10056486852E+04  0.00000000000E+00 0.  1.
         15    1    5    5    0    0 -0.23166886499E+02 -0.71361127040E+02  0.12069361871E+03  0.14212396845E+03  0.17770000000E+01 0. -1.
        -15    1    5    5    0    0 -0.50759629475E+02 -0.58624295997E+02  0.13116839737E+02  0.78667383834E+02  0.17770000000E+01 0.  1.
          4    1    6    6  503    0  0.14699029409E+03  0.32357249894E+03  0.37286526032E+03  0.51510563090E+03  0.00000000000E+00 0. -1.
         -4    1    6    6    0  503  0.42169008413E+02  0.16827870408E+03  0.11513947112E+03  0.20821394124E+03  0.00000000000E+00 0.  1.
<mgrwt>
<rscale>  0 0.53348413E+03</rscale>
<asrwt>0</asrwt>
<pdfrwt beam="1">  1        2 0.29613523E+00 0.53348413E+03</pdfrwt>
<pdfrwt beam="2">  1       -2 0.29912493E-01 0.53348413E+03</pdfrwt>
<totfact> 0.79985907E+01</totfact>
</mgrwt>
</event>
<event>
12    1  0.8033771E-008  0.1240106E+04  0.7818608E-02  0.9078458E-01
         -2   -1    0    0    0  501 -0.00000000000E+00  0.00000000000E+00  0.43565658118E+03  0.43565658118E+03  0.00000000000E+00 0. -1.
          2   -1    0    0  501    0  0.00000000000E+00 -0.00000000000E+00 -0.36579186515E+04  0.36579186515E+04  0.00000000000E+00 0.  1.
         23    2    1    2    0    0  0.10844261824E+04 -0.45770076160E+03 -0.17992053898E+04  0.21517974246E+04  0.87304006697E+02 0.  0.
    5000000    2    1    2    0    0 -0.10844261824E+04  0.45770076160E+03 -0.14230566805E+04  0.19417778080E+04  0.59995050430E+03 0.  0.
         23    2    4    4    0    0 -0.11294275478E+03 -0.10160754253E+03 -0.32394564688E+03  0.36918314561E+03  0.90968424816E+02 0.  0.
         23    2    4    4    0    0 -0.97148342763E+03  0.55930830413E+03 -0.10991110336E+04  0.15725946624E+04  0.91668308826E+02 0.  0.
          1    1    3    3  502    0  0.85641301594E+03 -0.32251345919E+03 -0.14060654468E+04  0.16776406724E+04  0.00000000000E+00 0. -1.
         -1    1    3    3    0  502  0.22801316647E+03 -0.13518730241E+03 -0.39313994303E+03  0.47415675217E+03  0.00000000000E+00 0.  1.
         15    1    5    5    0    0 -0.97343223717E+02 -0.27700432053E+02 -0.17487633066E+03  0.20205916434E+03  0.17770000000E+01 0.  1.
        -15    1    5    5    0    0 -0.15599531064E+02 -0.73907110475E+02 -0.14906931622E+03  0.16712398127E+03  0.17770000000E+01 0. -1.
          1    1    6    6  503    0 -0.51834546732E+03  0.33915305027E+03 -0.64633542461E+03  0.89524091512E+03  0.00000000000E+00 0. -1.
         -1    1    6    6    0  503 -0.45313796032E+03  0.22015525386E+03 -0.45277560898E+03  0.67735374729E+03  0.00000000000E+00 0.  1.
<mgrwt>
<rscale>  0 0.12401063E+04</rscale>
<asrwt>0</asrwt>
<pdfrwt beam="1">  1        2 0.56275673E+00 0.12401063E+04</pdfrwt>
<pdfrwt beam="2">  1       -2 0.67024088E-01 0.12401063E+04</pdfrwt>
<totfact> 0.12852337E+00</totfact>
</mgrwt>
</event>
<event>
12    1  0.8033771E-008  0.1487804E+04  0.7818608E-02  0.8892604E-01
          2   -1    0    0  501    0  0.00000000000E+00  0.00000000000E+00  0.11966164799E+04  0.11966164799E+04  0.00000000000E+00 0. -1.
         -2   -1    0    0    0  501 -0.00000000000E+00 -0.00000000000E+00 -0.18836574242E+04  0.18836574242E+04  0.00000000000E+00 0.  1.
         23    2    1    2    0    0  0.14314108396E+04  0.31020564473E+02 -0.48689545189E+03  0.15150656787E+04  0.91965006823E+02 0.  0.
    5000000    2    1    2    0    0 -0.14314108396E+04 -0.31020564473E+02 -0.20014549250E+03  0.15652082254E+04  0.59993274924E+03 0.  0.
         23    2    4    4    0    0 -0.47035035190E+03 -0.27445033303E+03 -0.14010594642E+02  0.55233131660E+03  0.91220325060E+02 0.  0.
         23    2    4    4    0    0 -0.96106048771E+03  0.24342976856E+03 -0.18613489786E+03  0.10128769088E+04  0.91532065293E+02 0.  0.
          1    1    3    3  502    0  0.69988620177E+03  0.52459310988E+02 -0.26676598999E+03  0.75083737797E+03  0.00000000000E+00 0. -1.
         -1    1    3    3    0  502  0.73152463783E+03 -0.21438746515E+02 -0.22012946190E+03  0.76422830071E+03  0.00000000000E+00 0.  1.
         15    1    5    5    0    0 -0.10606166909E+03 -0.28103278243E+02  0.18823256924E+02  0.11133887294E+03  0.17770000000E+01 0. -1.
        -15    1    5    5    0    0 -0.36428868281E+03 -0.24634705479E+03 -0.32833851567E+02  0.44099244366E+03  0.17770000000E+01 0.  1.
          4    1    6    6  503    0 -0.88395921918E+03  0.21113727319E+03 -0.14721998942E+03  0.92067180612E+03  0.00000000000E+00 0. -1.
         -4    1    6    6    0  503 -0.77101268529E+02  0.32292495363E+02 -0.38914908440E+02  0.92205102703E+02  0.00000000000E+00 0.  1.
<mgrwt>
<rscale>  0 0.14878043E+04</rscale>
<asrwt>0</asrwt>
<pdfrwt beam="1">  1        2 0.18409484E+00 0.14878043E+04</pdfrwt>
<pdfrwt beam="2">  1       -2 0.28979345E+00 0.14878043E+04</pdfrwt>
<totfact> 0.66026505E-01</totfact>
</mgrwt>
</event>
<event>
12    1  0.8033771E-008  0.6578783E+03  0.7818608E-02  0.9792107E-01
         -1   -1    0    0    0  501 -0.00000000000E+00  0.00000000000E+00  0.13964136666E+04  0.13964136666E+04  0.00000000000E+00 0.  1.
          1   -1    0    0  501    0  0.00000000000E+00 -0.00000000000E+00 -0.53772684018E+03  0.53772684018E+03  0.00000000000E+00 0. -1.
         23    2    1    2    0    0 -0.36251972788E+03  0.42054878200E+03 -0.19916267751E+03  0.59733994086E+03  0.94166882144E+02 0.  0.
    5000000    2    1    2    0    0  0.36251972788E+03 -0.42054878200E+03  0.10578495039E+04  0.13368005659E+04  0.59975690818E+03 0.  0.
         23    2    4    4    0    0  0.35625792334E+03 -0.38796190097E+02  0.75469184906E+03  0.84043549496E+03  0.91362912865E+02 0.  0.
         23    2    4    4    0    0  0.62618045411E+01 -0.38175259190E+03  0.30315765483E+03  0.49636507091E+03  0.93270940416E+02 0.  0.
          4    1    3    3  502    0 -0.20491528426E+03  0.30585444201E+03 -0.12524602773E+03  0.38887501962E+03  0.00000000000E+00 0.  1.
         -4    1    3    3    0  502 -0.15760444362E+03  0.11469433998E+03 -0.73916649781E+02  0.20846492124E+03  0.00000000000E+00 0. -1.
         15    1    5    5    0    0  0.30411514686E+03 -0.37506266339E+01  0.58231803754E+03  0.65696083927E+03  0.17770000000E+01 0. -1.
        -15    1    5    5    0    0  0.52142776475E+02 -0.35045563463E+02  0.17237381152E+03  0.18347465570E+03  0.17770000000E+01 0.  1.
          4    1    6    6  503    0  0.29782405673E+02 -0.25862141580E+03  0.15781398599E+03  0.30442943775E+03  0.00000000000E+00 0. -1.
         -4    1    6    6    0  503 -0.23520601132E+02 -0.12313117610E+03  0.14534366884E+03  0.19193563316E+03  0.00000000000E+00 0.  1.
<mgrwt>
<rscale>  0 0.65787826E+03</rscale>
<asrwt>0</asrwt>
<pdfrwt beam="1">  1        1 0.82727207E-01 0.65787826E+03</pdfrwt>
<pdfrwt beam="2">  1       -1 0.21483287E+00 0.65787826E+03</pdfrwt>
<totfact> 0.50220334E+00</totfact>
</mgrwt>
</event>
<event>
12    1  0.8033771E-008  0.5788454E+03  0.7818608E-02  0.9950294E-01
          1   -1    0    0  501    0  0.00000000000E+00  0.00000000000E+00  0.90547516785E+03  0.90547516785E+03  0.00000000000E+00 0. -1.
         -1   -1    0    0    0  501 -0.00000000000E+00 -0.00000000000E+00 -0.39875026267E+03  0.39875026267E+03  0.00000000000E+00 0.  1.
         23    2    1    2    0    0 -0.38808982524E+03 -0.21937047548E+03  0.22121678413E+03  0.50361660284E+03  0.77173176063E+02 0.  0.
    5000000    2    1    2    0    0  0.38808982524E+03  0.21937047548E+03  0.28550812105E+03  0.80060882768E+03  0.60060177306E+03 0.  0.
         23    2    4    4    0    0 -0.50357224562E+02 -0.13393889408E+03  0.18397664656E+02  0.17108059477E+03  0.91948999069E+02 0.  0.
         23    2    4    4    0    0  0.43844704981E+03  0.35330936956E+03  0.26711045639E+03  0.62952823290E+03  0.88850852595E+02 0.  0.
          3    1    3    3  502    0 -0.23386934426E+03 -0.94826132458E+02  0.14629460932E+03  0.29170015135E+03  0.00000000000E+00 0. -1.
         -3    1    3    3    0  502 -0.15422048098E+03 -0.12454434302E+03  0.74922174815E+02  0.21191645149E+03  0.00000000000E+00 0.  1.
         15    1    5    5    0    0 -0.21671314363E+02 -0.37144837495E+02 -0.36247592567E+02  0.56271045082E+02  0.17770000000E+01 0. -1.
        -15    1    5    5    0    0 -0.28685910199E+02 -0.96794056587E+02  0.54645257222E+02  0.11480954969E+03  0.17770000000E+01 0.  1.
          3    1    6    6  503    0  0.22109177964E+03  0.17718263385E+03  0.85329376562E+02  0.29589924513E+03  0.00000000000E+00 0. -1.
         -3    1    6    6    0  503  0.21735527016E+03  0.17612673571E+03  0.18178107983E+03  0.33362898778E+03  0.00000000000E+00 0.  1.
<mgrwt>
<rscale>  0 0.57884539E+03</rscale>
<asrwt>0</asrwt>
<pdfrwt beam="1">  1        1 0.13930387E+00 0.57884539E+03</pdfrwt>
<pdfrwt beam="2">  1       -1 0.61346194E-01 0.57884539E+03</pdfrwt>
<totfact> 0.50610480E+01</totfact>
</mgrwt>
</event>
<event>
12    1  0.8033771E-008  0.5366075E+03  0.7818608E-02  0.1004642E+00
         -2   -1    0    0    0  501 -0.00000000000E+00  0.00000000000E+00  0.18158931430E+03  0.18158931430E+03  0.00000000000E+00 0.  1.
          2   -1    0    0  501    0  0.00000000000E+00 -0.00000000000E+00 -0.24388963989E+04  0.24388963989E+04  0.00000000000E+00 0. -1.
         23    2    1    2    0    0 -0.44923646862E+03 -0.26837625008E+03 -0.79194564393E+03  0.95282310455E+03  0.82793413224E+02 0.  0.
    5000000    2    1    2    0    0  0.44923646862E+03  0.26837625008E+03 -0.14653614407E+04  0.16676626087E+04  0.59997933975E+03 0.  0.
         23    2    4    4    0    0  0.24007191343E+03  0.23334617716E+03 -0.13795571437E+04  0.14226579960E+04  0.93235716498E+02 0.  0.
         23    2    4    4    0    0  0.20916455519E+03  0.35030072920E+02 -0.85804297025E+02  0.24500461270E+03  0.87681045273E+02 0.  0.
          4    1    3    3  502    0 -0.60061208959E+02 -0.58619042580E+02 -0.17202027861E+03  0.19140145566E+03  0.00000000000E+00 0. -1.
         -4    1    3    3    0  502 -0.38917525966E+03 -0.20975720750E+03 -0.61992536532E+03  0.76142164889E+03  0.00000000000E+00 0.  1.
         15    1    5    5    0    0  0.42069905203E+02  0.43765083956E+02 -0.13147022292E+03  0.14482001499E+03  0.17770000000E+01 0. -1.
        -15    1    5    5    0    0  0.19800200823E+03  0.18958109320E+03 -0.12480869207E+04  0.12778379810E+04  0.17770000000E+01 0.  1.
          2    1    6    6  503    0  0.18082945680E+02  0.59617804228E+01 -0.43020953254E+02  0.47046128100E+02  0.00000000000E+00 0. -1.
         -2    1    6    6    0  503  0.19108160951E+03  0.29068292498E+02 -0.42783343771E+02  0.19795848460E+03  0.00000000000E+00 0.  1.
<mgrwt>
<rscale>  0 0.53660751E+03</rscale>
<asrwt>0</asrwt>
<pdfrwt beam="1">  1        2 0.37521483E+00 0.53660751E+03</pdfrwt>
<pdfrwt beam="2">  1       -2 0.27936817E-01 0.53660751E+03</pdfrwt>
<totfact> 0.47508275E+01</totfact>
</mgrwt>
</event>
<event>
12    1  0.8033771E-008  0.3471566E+03  0.7818608E-02  0.1063788E+00
         -2   -1    0    0    0  501 -0.00000000000E+00  0.00000000000E+00  0.19573788531E+03  0.19573788531E+03  0.00000000000E+00 0.  1.
          2   -1    0    0  501    0  0.00000000000E+00 -0.00000000000E+00 -0.12001387177E+04  0.12001387177E+04  0.00000000000E+00 0. -1.
         23    2    1    2    0    0 -0.35985224591E+01 -0.19349047844E+03 -0.62326444446E+03  0.65900367541E+03  0.91519188561E+02 0.  0.
    5000000    2    1    2    0    0  0.35985224591E+01  0.19349047844E+03 -0.38113638789E+03  0.73687292755E+03  0.60022100144E+03 0.  0.
         23    2    4    4    0    0  0.16004563952E+03 -0.74171939685E+02 -0.36266933635E+03  0.41319114644E+03  0.89898790858E+02 0.  0.
         23    2    4    4    0    0 -0.15644711706E+03  0.26766241812E+03 -0.18467051541E+02  0.32368178111E+03  0.91159162570E+02 0.  0.
          1    1    3    3  502    0  0.33286845636E+02 -0.12904832024E+03 -0.47266583214E+03  0.49109517603E+03  0.00000000000E+00 0. -1.
         -1    1    3    3    0  502 -0.36885368096E+02 -0.64442158200E+02 -0.15059861231E+03  0.16790849938E+03  0.00000000000E+00 0.  1.
         15    1    5    5    0    0  0.35036439981E+02 -0.20590623276E+02 -0.18507357584E+03  0.18949119267E+03  0.17770000000E+01 0.  1.
        -15    1    5    5    0    0  0.12500919954E+03 -0.53581316409E+02 -0.17759576051E+03  0.22369995377E+03  0.17770000000E+01 0. -1.
          1    1    6    6  503    0 -0.90877183496E+01  0.18590103269E+02  0.23437157552E+02  0.31264659257E+02  0.00000000000E+00 0. -1.
         -1    1    6    6    0  503 -0.14735939871E+03  0.24907231485E+03 -0.41904209093E+02  0.29241712186E+03  0.00000000000E+00 0.  1.
<mgrwt>
<rscale>  0 0.34715660E+03</rscale>
<asrwt>0</asrwt>
<pdfrwt beam="1">  1        2 0.18463673E+00 0.34715660E+03</pdfrwt>
<pdfrwt beam="2">  1       -2 0.30113521E-01 0.34715660E+03</pdfrwt>
<totfact> 0.20247446E+02</totfact>
</mgrwt>
</event>
<event>
12    1  0.8033771E-008  0.1641348E+04  0.7818608E-02  0.8795541E-01
         -2   -1    0    0    0  501 -0.00000000000E+00  0.00000000000E+00  0.94034104839E+03  0.94034104839E+03  0.00000000000E+00 0.  1.
          2   -1    0    0  501    0  0.00000000000E+00 -0.00000000000E+00 -0.33169852362E+04  0.33169852362E+04  0.00000000000E+00 0. -1.
         23    2    1    2    0    0 -0.14870716277E+04 -0.59610085521E+03 -0.41966548236E+03  0.16583158819E+04  0.84700601067E+02 0.  0.
    5000000    2    1    2    0    0  0.14870716277E+04  0.59610085521E+03 -0.19569787055E+04  0.25990104027E+04  0.59864109806E+03 0.  0.
         23    2    4    4    0    0  0.14040994947E+04  0.64871203846E+03 -0.19030035518E+04  0.24538982444E+04  0.88720773479E+02 0.  0.
         23    2    4    4    0    0  0.82972132972E+02 -0.52611183244E+02 -0.53975153688E+02  0.14511215836E+03  0.92151559051E+02 0.  0.
          2    1    3    3  502    0 -0.62480980640E+03 -0.28809598984E+03 -0.20402962530E+03  0.71764523376E+03  0.00000000000E+00 0. -1.
         -2    1    3    3    0  502 -0.86226182125E+03 -0.30800486538E+03 -0.21563585706E+03  0.94067064817E+03  0.00000000000E+00 0.  1.
         15    1    5    5    0    0  0.36944981817E+03  0.14875189275E+03 -0.43825480142E+03  0.59219145759E+03  0.17770000000E+01 0. -1.
        -15    1    5    5    0    0  0.10346496765E+04  0.49996014570E+03 -0.14647487504E+04  0.18617067868E+04  0.17770000000E+01 0.  1.
          1    1    6    6  503    0 -0.65485074619E+01 -0.40842039638E+02 -0.31121986589E+01  0.41480609112E+02  0.00000000000E+00 0. -1.
         -1    1    6    6    0  503  0.89520640434E+02 -0.11769143606E+02 -0.50862955029E+02  0.10363154925E+03  0.00000000000E+00 0.  1.
<mgrwt>
<rscale>  0 0.16413483E+04</rscale>
<asrwt>0</asrwt>
<pdfrwt beam="1">  1        2 0.51030541E+00 0.16413483E+04</pdfrwt>
<pdfrwt beam="2">  1       -2 0.14466786E+00 0.16413483E+04</pdfrwt>
<totfact> 0.33494462E-01</totfact>
</mgrwt>
</event>
<event>
12    1  0.8033771E-008  0.1830998E+04  0.7818608E-02  0.8689987E-01
         -2   -1    0    0    0  501 -0.00000000000E+00  0.00000000000E+00  0.17894848874E+04  0.17894848874E+04  0.00000000000E+00 0.  1.
          2   -1    0    0  501    0  0.00000000000E+00 -0.00000000000E+00 -0.31215894848E+04  0.31215894848E+04  0.00000000000E+00 0. -1.
         23    2    1    2    0    0  0.14573493726E+04  0.10511380047E+04  0.87633789175E+03  0.20014271635E+04  0.94785503084E+02 0.  0.
    5000000    2    1    2    0    0 -0.14573493726E+04 -0.10511380047E+04 -0.22084424892E+04  0.29096472087E+04  0.60005862382E+03 0.  0.
         23    2    4    4    0    0 -0.11885034029E+04 -0.61051729885E+03 -0.18070500711E+04  0.22493417118E+04  0.94002480596E+02 0.  0.
         23    2    4    4    0    0 -0.26884596977E+03 -0.44062070585E+03 -0.40139241813E+03  0.66030549686E+03  0.91993010422E+02 0.  0.
          4    1    3    3  502    0  0.11509534212E+04  0.78133371333E+03  0.68042094937E+03  0.15485957567E+04  0.00000000000E+00 0. -1.
         -4    1    3    3    0  502  0.30639595138E+03  0.26980429137E+03  0.19591694238E+03  0.45283140679E+03  0.00000000000E+00 0.  1.
         15    1    5    5    0    0 -0.72067135485E+03 -0.32785632653E+03 -0.10239086808E+04  0.12943141492E+04  0.17770000000E+01 0.  1.
        -15    1    5    5    0    0 -0.46783204801E+03 -0.28266097232E+03 -0.78314139030E+03  0.95502756261E+03  0.17770000000E+01 0. -1.
          1    1    6    6  503    0 -0.49120224294E+02 -0.16300389516E+03 -0.13158555201E+03  0.21516929095E+03  0.00000000000E+00 0. -1.
         -1    1    6    6    0  503 -0.21972574547E+03 -0.27761681068E+03 -0.26980686613E+03  0.44513620591E+03  0.00000000000E+00 0.  1.
<mgrwt>
<rscale>  0 0.18309979E+04</rscale>
<asrwt>0</asrwt>
<pdfrwt beam="1">  1        2 0.48024453E+00 0.18309979E+04</pdfrwt>
<pdfrwt beam="2">  1       -2 0.27530537E+00 0.18309979E+04</pdfrwt>
<totfact> 0.59179411E-02</totfact>
</mgrwt>
</event>
<event>
12    1  0.8033771E-008  0.1378063E+04  0.7818608E-02  0.8969852E-01
          1   -1    0    0  501    0  0.00000000000E+00  0.00000000000E+00  0.15588677304E+04  0.15588677304E+04  0.00000000000E+00 0. -1.
         -1   -1    0    0    0  501 -0.00000000000E+00 -0.00000000000E+00 -0.16081046917E+04  0.16081046917E+04  0.00000000000E+00 0.  1.
         23    2    1    2    0    0  0.97036995789E+03 -0.89187201803E+03 -0.79108957928E+03  0.15399199378E+04  0.92071388868E+02 0.  0.
    5000000    2    1    2    0    0 -0.97036995789E+03  0.89187201803E+03  0.74185261803E+03  0.16270524843E+04  0.59991743438E+03 0.  0.
         23    2    4    4    0    0 -0.78649295948E+03  0.93334838646E+03  0.56136612296E+03  0.13463691243E+04  0.88698980380E+02 0.  0.
         23    2    4    4    0    0 -0.18387699841E+03 -0.41476368427E+02  0.18048649507E+03  0.28068335997E+03  0.10332828258E+03 0.  0.
          4    1    3    3  502    0  0.43457109560E+03 -0.43229107050E+03 -0.32228464261E+03  0.69252797606E+03  0.00000000000E+00 0. -1.
         -4    1    3    3    0  502  0.53579886229E+03 -0.45958094754E+03 -0.46880493666E+03  0.84739196173E+03  0.00000000000E+00 0.  1.
         15    1    5    5    0    0 -0.61502534325E+03  0.68448216585E+03  0.39519995130E+03  0.10014779915E+04  0.17770000000E+01 0.  1.
        -15    1    5    5    0    0 -0.17146761623E+03  0.24886622061E+03  0.16616617166E+03  0.34489113284E+03  0.17770000000E+01 0. -1.
          3    1    6    6  503    0 -0.14195546820E+03  0.16906866258E+02  0.11552988817E+03  0.18380520161E+03  0.00000000000E+00 0. -1.
         -3    1    6    6    0  503 -0.41921530209E+02 -0.58383234685E+02  0.64956606906E+02  0.96878158365E+02  0.00000000000E+00 0.  1.
<mgrwt>
<rscale>  0 0.13780635E+04</rscale>
<asrwt>0</asrwt>
<pdfrwt beam="1">  1        1 0.23982581E+00 0.13780635E+04</pdfrwt>
<pdfrwt beam="2">  1       -1 0.24740072E+00 0.13780635E+04</pdfrwt>
<totfact> 0.41402677E-01</totfact>
</mgrwt>
</event>
<event>
12    1  0.8033771E-008  0.9262845E+03  0.7818608E-02  0.9393308E-01
         -2   -1    0    0    0  501 -0.00000000000E+00  0.00000000000E+00  0.11931781541E+04  0.11931781541E+04  0.00000000000E+00 0. -1.
          2   -1    0    0  501    0  0.00000000000E+00 -0.00000000000E+00 -0.10242701599E+04  0.10242701599E+04  0.00000000000E+00 0.  1.
         23    2    1    2    0    0 -0.31808918983E+03  0.79752988447E+03  0.63412845721E+03  0.10713174276E+04  0.91473936476E+02 0.  0.
    5000000    2    1    2    0    0  0.31808918983E+03 -0.79752988447E+03 -0.46522046295E+03  0.11461308864E+04  0.59995939896E+03 0.  0.
         23    2    4    4    0    0  0.31229511637E+03 -0.16237620521E+03 -0.32761789707E+03  0.48870974829E+03  0.87232218070E+02 0.  0.
         23    2    4    4    0    0  0.57940734631E+01 -0.63515367927E+03 -0.13760256588E+03  0.65742113815E+03  0.99067245748E+02 0.  0.
          3    1    3    3  502    0 -0.56835241927E+02  0.12176283666E+03  0.14182682780E+03  0.19537472252E+03  0.00000000000E+00 0. -1.
         -3    1    3    3    0  502 -0.26125394790E+03  0.67576704782E+03  0.49230162941E+03  0.87594270505E+03  0.00000000000E+00 0.  1.
         15    1    5    5    0    0  0.21053553185E+03 -0.11686669168E+03 -0.16641930631E+03  0.29271415585E+03  0.17770000000E+01 0.  1.
        -15    1    5    5    0    0  0.10175958452E+03 -0.45509513528E+02 -0.16119859076E+03  0.19599559244E+03  0.17770000000E+01 0. -1.
          3    1    6    6  503    0 -0.40318809152E+02 -0.21770473398E+03 -0.26506643787E+02  0.22298780176E+03  0.00000000000E+00 0. -1.
         -3    1    6    6    0  503  0.46112882615E+02 -0.41744894528E+03 -0.11109592209E+03  0.43443333639E+03  0.00000000000E+00 0.  1.
<mgrwt>
<rscale>  0 0.92628452E+03</rscale>
<asrwt>0</asrwt>
<pdfrwt beam="1">  1        2 0.15758002E+00 0.92628452E+03</pdfrwt>
<pdfrwt beam="2">  1       -2 0.18356587E+00 0.92628452E+03</pdfrwt>
<totfact> 0.41627638E+00</totfact>
</mgrwt>
</event>
<event>
12    1  0.8033771E-008  0.5189116E+03  0.7818608E-02  0.1008957E+00
         -2   -1    0    0    0  501 -0.00000000000E+00  0.00000000000E+00  0.62429576861E+03  0.62429576861E+03  0.00000000000E+00 0.  1.
          2   -1    0    0  501    0  0.00000000000E+00 -0.00000000000E+00 -0.49870913911E+03  0.49870913911E+03  0.00000000000E+00 0. -1.
         23    2    1    2    0    0 -0.23012438411E+03 -0.31313674062E+03  0.75156128558E+02  0.40661356058E+03  0.93135887283E+02 0.  0.
    5000000    2    1    2    0    0  0.23012438411E+03  0.31313674062E+03  0.50430500935E+02  0.71639134714E+03  0.59971783061E+03 0.  0.
         23    2    4    4    0    0  0.37078374596E+03  0.29086187938E+03 -0.10229714904E+03  0.49067458340E+03  0.90640062586E+02 0.  0.
         23    2    4    4    0    0 -0.14065936185E+03  0.22274861238E+02  0.15272764997E+03  0.22571676375E+03  0.85680201042E+02 0.  0.
          1    1    3    3  502    0 -0.14146273991E+03 -0.12856029286E+03  0.87683107354E+01  0.19135396247E+03  0.00000000000E+00 0. -1.
         -1    1    3    3    0  502 -0.88661644202E+02 -0.18457644776E+03  0.66387817823E+02  0.21525959810E+03  0.00000000000E+00 0.  1.
         15    1    5    5    0    0  0.97771621339E+02  0.12034374187E+03 -0.58877172053E+02  0.16586616672E+03  0.17770000000E+01 0.  1.
        -15    1    5    5    0    0  0.27301212462E+03  0.17051813751E+03 -0.43419976982E+02  0.32480841667E+03  0.17770000000E+01 0. -1.
          1    1    6    6  503    0 -0.95699741900E+02  0.54033881366E+02  0.88316909080E+02  0.14098928103E+03  0.00000000000E+00 0. -1.
         -1    1    6    6    0  503 -0.44959619952E+02 -0.31759020128E+02  0.64410740890E+02  0.84727482718E+02  0.00000000000E+00 0.  1.
<mgrwt>
<rscale>  0 0.51891165E+03</rscale>
<asrwt>0</asrwt>
<pdfrwt beam="1">  1        2 0.76724483E-01 0.51891165E+03</pdfrwt>
<pdfrwt beam="2">  1       -2 0.96045503E-01 0.51891165E+03</pdfrwt>
<totfact> 0.57766175E+01</totfact>
</mgrwt>
</event>
<event>
12    1  0.8033771E-008  0.1155831E+04  0.7818608E-02  0.9152421E-01
         -1   -1    0    0    0  501 -0.00000000000E+00  0.00000000000E+00  0.51967417030E+03  0.51967417030E+03  0.00000000000E+00 0.  1.
          1   -1    0    0  501    0  0.00000000000E+00 -0.00000000000E+00 -0.30085379442E+04  0.30085379442E+04  0.00000000000E+00 0. -1.
         23    2    1    2    0    0 -0.44472800031E+03  0.10580625583E+04 -0.15397724600E+04  0.19226025084E+04  0.90674169608E+02 0.  0.
    5000000    2    1    2    0    0  0.44472800031E+03 -0.10580625583E+04 -0.94909131393E+03  0.16056096062E+04  0.59994042520E+03 0.  0.
         23    2    4    4    0    0  0.90085989253E+02 -0.26266132258E+03 -0.59175494222E+03  0.65991650419E+03  0.90605877441E+02 0.  0.
         23    2    4    4    0    0  0.35464201106E+03 -0.79540123571E+03 -0.35733637171E+03  0.94569310199E+03  0.90620521052E+02 0.  0.
          3    1    3    3  502    0 -0.24544916658E+03  0.60505205571E+03 -0.80150973487E+03  0.10338042071E+04  0.00000000000E+00 0. -1.
         -3    1    3    3    0  502 -0.19927883373E+03  0.45301050258E+03 -0.73826272515E+03  0.88879830128E+03  0.00000000000E+00 0.  1.
         15    1    5    5    0    0  0.19099203930E+02 -0.17538760884E+03 -0.40703730159E+03  0.44363060708E+03  0.17770000000E+01 0. -1.
        -15    1    5    5    0    0  0.70986785323E+02 -0.87273713743E+02 -0.18471764062E+03  0.21628589711E+03  0.17770000000E+01 0.  1.
          3    1    6    6  503    0  0.16793663666E+03 -0.47782158600E+03 -0.22565933057E+03  0.55447120345E+03  0.00000000000E+00 0. -1.
         -3    1    6    6    0  503  0.18670537439E+03 -0.31757964971E+03 -0.13167704114E+03  0.39122189855E+03  0.00000000000E+00 0.  1.
<mgrwt>
<rscale>  0 0.11558313E+04</rscale>
<asrwt>0</asrwt>
<pdfrwt beam="1">  1        1 0.46285200E+00 0.11558313E+04</pdfrwt>
<pdfrwt beam="2">  1       -1 0.79949871E-01 0.11558313E+04</pdfrwt>
<totfact> 0.92424134E-01</totfact>
</mgrwt>
</event>
<event>
12    1  0.8033771E-008  0.8378280E+03  0.7818608E-02  0.9506821E-01
         -1   -1    0    0    0  501 -0.00000000000E+00  0.00000000000E+00  0.11853719365E+04  0.11853719365E+04  0.00000000000E+00 0.  1.
          1   -1    0    0  501    0  0.00000000000E+00 -0.00000000000E+00 -0.93841630631E+03  0.93841630631E+03  0.00000000000E+00 0. -1.
         23    2    1    2    0    0 -0.48794924514E+03 -0.56087740300E+03 -0.50890882864E+03  0.90559539575E+03  0.91852587956E+02 0.  0.
    5000000    2    1    2    0    0  0.48794924514E+03  0.56087740300E+03  0.75586445882E+03  0.12181928470E+04  0.59998733773E+03 0.  0.
         23    2    4    4    0    0  0.53790890083E+03  0.62149655053E+03  0.60674591388E+03  0.10254667113E+04  0.88529227669E+02 0.  0.
         23    2    4    4    0    0 -0.49959655691E+02 -0.60619147531E+02  0.14911854493E+03  0.19272613569E+03  0.93468575954E+02 0.  0.
          1    1    3    3  502    0 -0.19944066454E+03 -0.17192546327E+03 -0.15229643629E+03  0.30418604192E+03  0.00000000000E+00 0. -1.
         -1    1    3    3    0  502 -0.28850858059E+03 -0.38895193973E+03 -0.35661239235E+03  0.60140935383E+03  0.00000000000E+00 0.  1.
         15    1    5    5    0    0  0.19762418953E+03  0.20325451590E+03  0.25802604894E+03  0.38333838600E+03  0.17770000000E+01 0. -1.
        -15    1    5    5    0    0  0.34028471130E+03  0.41824203463E+03  0.34871986495E+03  0.64212832535E+03  0.17770000000E+01 0.  1.
          3    1    6    6  503    0  0.17334175740E+02 -0.21230355664E+02  0.36133026548E+01  0.27645209463E+02  0.00000000000E+00 0. -1.
         -3    1    6    6    0  503 -0.67293831431E+02 -0.39388791867E+02  0.14550524228E+03  0.16508092623E+03  0.00000000000E+00 0.  1.
<mgrwt>
<rscale>  0 0.83782797E+03</rscale>
<asrwt>0</asrwt>
<pdfrwt beam="1">  1        1 0.14437174E+00 0.83782797E+03</pdfrwt>
<pdfrwt beam="2">  1       -1 0.18236491E+00 0.83782797E+03</pdfrwt>
<totfact> 0.34738714E+00</totfact>
</mgrwt>
</event>
<event>
12    1  0.8033771E-008  0.2010235E+04  0.7818608E-02  0.8601851E-01
          2   -1    0    0  501    0  0.00000000000E+00  0.00000000000E+00  0.23426846729E+04  0.23426846729E+04  0.00000000000E+00 0. -1.
         -2   -1    0    0    0  501 -0.00000000000E+00 -0.00000000000E+00 -0.38786084656E+04  0.38786084656E+04  0.00000000000E+00 0.  1.
         23    2    1    2    0    0 -0.12231705594E+04 -0.15424977156E+04 -0.30744019109E+04  0.36517939766E+04  0.90590938999E+02 0.  0.
    5000000    2    1    2    0    0  0.12231705594E+04  0.15424977156E+04  0.15384781181E+04  0.25694991619E+04  0.59997133547E+03 0.  0.
         23    2    4    4    0    0  0.10423582145E+04  0.15226417080E+04  0.13152564342E+04  0.22677764652E+04  0.89231104464E+02 0.  0.
         23    2    4    4    0    0  0.18081234491E+03  0.19856007533E+02  0.22322168398E+03  0.30172269679E+03  0.90118258149E+02 0.  0.
          4    1    3    3  502    0 -0.55695670914E+03 -0.63841464709E+03 -0.12835482762E+04  0.15379435018E+04  0.00000000000E+00 0. -1.
         -4    1    3    3    0  502 -0.66621385024E+03 -0.90408306848E+03 -0.17908536347E+04  0.21138504748E+04  0.00000000000E+00 0.  1.
         15    1    5    5    0    0  0.42998416755E+03  0.55482706345E+03  0.51530531106E+03  0.87078250787E+03  0.17770000000E+01 0.  1.
        -15    1    5    5    0    0  0.61237404691E+03  0.96781464459E+03  0.79995112311E+03  0.13969939573E+04  0.17770000000E+01 0. -1.
          3    1    6    6  503    0  0.54586814569E+02 -0.35552516387E+02  0.70736105390E+02  0.96162874084E+02  0.00000000000E+00 0. -1.
         -3    1    6    6    0  503  0.12622553034E+03  0.55408523920E+02  0.15248557859E+03  0.20555982271E+03  0.00000000000E+00 0.  1.
<mgrwt>
<rscale>  0 0.20102345E+04</rscale>
<asrwt>0</asrwt>
<pdfrwt beam="1">  1        2 0.36041303E+00 0.20102345E+04</pdfrwt>
<pdfrwt beam="2">  1       -2 0.59670898E+00 0.20102345E+04</pdfrwt>
<totfact> 0.19148910E-03</totfact>
</mgrwt>
</event>
<event>
12    1  0.8033771E-008  0.7043543E+03  0.7818608E-02  0.9709815E-01
         -3   -1    0    0    0  501 -0.00000000000E+00  0.00000000000E+00  0.89333811755E+03  0.89333811755E+03  0.00000000000E+00 0.  1.
          3   -1    0    0  501    0  0.00000000000E+00 -0.00000000000E+00 -0.11531112282E+04  0.11531112282E+04  0.00000000000E+00 0. -1.
         23    2    1    2    0    0  0.49191626280E+03 -0.36177489961E+03 -0.81795816429E+03  0.10248772913E+04  0.91952248917E+02 0.  0.
    5000000    2    1    2    0    0 -0.49191626280E+03  0.36177489961E+03  0.55818505361E+03  0.10215720545E+04  0.59931312420E+03 0.  0.
         23    2    4    4    0    0 -0.18535807183E+03  0.43241444149E+03  0.49243349052E+03  0.68735074901E+03  0.92846354633E+02 0.  0.
         23    2    4    4    0    0 -0.30655819097E+03 -0.70639541883E+02  0.65751563086E+02  0.33422130548E+03  0.91721009916E+02 0.  0.
          3    1    3    3  502    0  0.31554048996E+03 -0.26028199199E+03 -0.60525067712E+03  0.73050728834E+03  0.00000000000E+00 0. -1.
         -3    1    3    3    0  502  0.17637577283E+03 -0.10149290762E+03 -0.21270748717E+03  0.29437000296E+03  0.00000000000E+00 0.  1.
         15    1    5    5    0    0 -0.63647782826E+02  0.11473641665E+03  0.84045244283E+02  0.15582761751E+03  0.17770000000E+01 0. -1.
        -15    1    5    5    0    0 -0.12171028900E+03  0.31767802484E+03  0.40838824624E+03  0.53152313150E+03  0.17770000000E+01 0.  1.
          2    1    6    6  503    0 -0.11264800919E+03  0.13356515778E+02  0.18573909226E+01  0.11345228243E+03  0.00000000000E+00 0. -1.
         -2    1    6    6    0  503 -0.19391018178E+03 -0.83996057661E+02  0.63894172163E+02  0.22076902305E+03  0.00000000000E+00 0.  1.
<mgrwt>
<rscale>  0 0.70435430E+03</rscale>
<asrwt>0</asrwt>
<pdfrwt beam="1">  1        3 0.17740173E+00 0.70435430E+03</pdfrwt>
<pdfrwt beam="2">  1       -3 0.13743663E+00 0.70435430E+03</pdfrwt>
<totfact> 0.21680523E-01</totfact>
</mgrwt>
</event>
<event>
12    1  0.8033771E-008  0.7886179E+03  0.7818608E-02  0.9576640E-01
          2   -1    0    0  501    0  0.00000000000E+00  0.00000000000E+00  0.29094499051E+04  0.29094499051E+04  0.00000000000E+00 0. -1.
         -2   -1    0    0    0  501 -0.00000000000E+00 -0.00000000000E+00 -0.27184432650E+03  0.27184432650E+03  0.00000000000E+00 0.  1.
         23    2    1    2    0    0  0.35098988958E+03 -0.69639081184E+03  0.13357533529E+04  0.15494382743E+04  0.91476119442E+02 0.  0.
    5000000    2    1    2    0    0 -0.35098988958E+03  0.69639081184E+03  0.13018522257E+04  0.16318559574E+04  0.59998381866E+03 0.  0.
         23    2    4    4    0    0 -0.26416183392E+03  0.47570896915E+03  0.36640657058E+03  0.66222563516E+03  0.90600877858E+02 0.  0.
         23    2    4    4    0    0 -0.86828055669E+02  0.22068184269E+03  0.93544565512E+03  0.96963032221E+03  0.94259223084E+02 0.  0.
          1    1    3    3  502    0  0.11346367952E+03 -0.28018989663E+03  0.44503195991E+03  0.53799054832E+03  0.00000000000E+00 0. -1.
         -1    1    3    3    0  502  0.23752621006E+03 -0.41620091521E+03  0.89072139303E+03  0.10114477259E+04  0.00000000000E+00 0.  1.
         15    1    5    5    0    0 -0.20765017810E+03  0.34969695919E+03  0.22602542628E+03  0.46529260770E+03  0.17770000000E+01 0. -1.
        -15    1    5    5    0    0 -0.56511655814E+02  0.12601200996E+03  0.14038114430E+03  0.19693302746E+03  0.17770000000E+01 0.  1.
          2    1    6    6  503    0  0.79845302409E+01  0.85072192845E+02  0.40749496711E+03  0.41635703301E+03  0.00000000000E+00 0. -1.
         -2    1    6    6    0  503 -0.94812585910E+02  0.13560964984E+03  0.52795068801E+03  0.55327328921E+03  0.00000000000E+00 0.  1.
<mgrwt>
<rscale>  0 0.78861789E+03</rscale>
<asrwt>0</asrwt>
<pdfrwt beam="1">  1        2 0.44760766E+00 0.78861789E+03</pdfrwt>
<pdfrwt beam="2">  1       -2 0.41822206E-01 0.78861789E+03</pdfrwt>
<totfact> 0.11307686E+01</totfact>
</mgrwt>
</event>
<event>
12    1  0.8033771E-008  0.1157204E+04  0.7818608E-02  0.9151163E-01
         -1   -1    0    0    0  501 -0.00000000000E+00  0.00000000000E+00  0.83420609491E+03  0.83420609491E+03  0.00000000000E+00 0.  1.
          1   -1    0    0  501    0  0.00000000000E+00 -0.00000000000E+00 -0.17522660846E+04  0.17522660846E+04  0.00000000000E+00 0. -1.
         23    2    1    2    0    0  0.69648817548E+03 -0.88206158803E+03 -0.28228501608E+03  0.11622818616E+04  0.89921475817E+02 0.  0.
    5000000    2    1    2    0    0 -0.69648817548E+03  0.88206158803E+03 -0.63577497365E+03  0.14241903180E+04  0.60081596268E+03 0.  0.
         23    2    4    4    0    0 -0.52312803633E+03  0.36785984012E+03 -0.94374966825E+02  0.65280054870E+03  0.90874185822E+02 0.  0.
         23    2    4    4    0    0 -0.17336013914E+03  0.51420174791E+03 -0.54140000683E+03  0.77138976927E+03  0.86435139490E+02 0.  0.
          3    1    3    3  502    0  0.25729498462E+03 -0.26800485794E+03 -0.11627348850E+03  0.38929017084E+03  0.00000000000E+00 0. -1.
         -3    1    3    3    0  502  0.43919319086E+03 -0.61405673009E+03 -0.16601152759E+03  0.77299169074E+03  0.00000000000E+00 0.  1.
         15    1    5    5    0    0 -0.35424860413E+03  0.29610235242E+03 -0.53425064798E+02  0.46478604961E+03  0.17770000000E+01 0. -1.
        -15    1    5    5    0    0 -0.16887943220E+03  0.71757487702E+02 -0.40949902028E+02  0.18801449909E+03  0.17770000000E+01 0.  1.
          2    1    6    6  503    0 -0.13581699811E+02  0.49200843116E+02 -0.20271197059E+02  0.54919094705E+02  0.00000000000E+00 0. -1.
         -2    1    6    6    0  503 -0.15977843933E+03  0.46500090479E+03 -0.52112880977E+03  0.71647067456E+03  0.00000000000E+00 0.  1.
<mgrwt>
<rscale>  0 0.11572039E+04</rscale>
<asrwt>0</asrwt>
<pdfrwt beam="1">  1        1 0.26957939E+00 0.11572039E+04</pdfrwt>
<pdfrwt beam="2">  1       -1 0.12833940E+00 0.11572039E+04</pdfrwt>
<totfact> 0.22719413E+00</totfact>
</mgrwt>
</event>
<event>
12    1  0.8033771E-008  0.8104002E+03  0.7818608E-02  0.9545084E-01
          1   -1    0    0  501    0  0.00000000000E+00  0.00000000000E+00  0.16674391090E+04  0.16674391090E+04  0.00000000000E+00 0. -1.
         -1   -1    0    0    0  501 -0.00000000000E+00 -0.00000000000E+00 -0.48692149183E+03  0.48692149183E+03  0.00000000000E+00 0.  1.
         23    2    1    2    0    0  0.56700145901E+03 -0.48744346145E+03  0.19217623230E+03  0.77744614799E+03  0.91646200862E+02 0.  0.
    5000000    2    1    2    0    0 -0.56700145901E+03  0.48744346145E+03  0.98834138484E+03  0.13769144528E+04  0.59998577879E+03 0.  0.
         23    2    4    4    0    0 -0.50229012972E+02  0.31109247929E+03  0.12185258263E+03  0.34897549725E+03  0.87374832588E+02 0.  0.
         23    2    4    4    0    0 -0.51677244603E+03  0.17635098216E+03  0.86648880221E+03  0.10279389556E+04  0.87762304706E+02 0.  0.
          3    1    3    3  502    0  0.40253982108E+03 -0.30009400861E+03  0.10201693581E+03  0.51234966259E+03  0.00000000000E+00 0. -1.
         -3    1    3    3    0  502  0.16446163792E+03 -0.18734945284E+03  0.90159296485E+02  0.26509648540E+03  0.00000000000E+00 0.  1.
         15    1    5    5    0    0 -0.16472924081E+02  0.26044031021E+03  0.12200919583E+03  0.28807970079E+03  0.17770000000E+01 0.  1.
        -15    1    5    5    0    0 -0.33756088891E+02  0.50652169077E+02 -0.15661319662E+00  0.60895796457E+02  0.17770000000E+01 0. -1.
          2    1    6    6  503    0 -0.18210544870E+03  0.82880253319E+02  0.38854047111E+03  0.43703000872E+03  0.00000000000E+00 0.  1.
         -2    1    6    6    0  503 -0.33466699734E+03  0.93470728842E+02  0.47794833110E+03  0.59090894684E+03  0.00000000000E+00 0. -1.
<mgrwt>
<rscale>  0 0.81040016E+03</rscale>
<asrwt>0</asrwt>
<pdfrwt beam="1">  1        1 0.25652909E+00 0.81040016E+03</pdfrwt>
<pdfrwt beam="2">  1       -1 0.74910999E-01 0.81040016E+03</pdfrwt>
<totfact> 0.92789393E+00</totfact>
</mgrwt>
</event>
<event>
12    1  0.8033771E-008  0.9254351E+03  0.7818608E-02  0.9394333E-01
         -2   -1    0    0    0  501 -0.00000000000E+00  0.00000000000E+00  0.43130055499E+03  0.43130055499E+03  0.00000000000E+00 0.  1.
          2   -1    0    0  501    0  0.00000000000E+00 -0.00000000000E+00 -0.21881516562E+04  0.21881516562E+04  0.00000000000E+00 0. -1.
         23    2    1    2    0    0  0.71529353919E+03 -0.49324988048E+03 -0.64229297716E+03  0.10841566613E+04  0.88966881344E+02 0.  0.
    5000000    2    1    2    0    0 -0.71529353919E+03  0.49324988048E+03 -0.11145581241E+04  0.15352955499E+04  0.59996026685E+03 0.  0.
         23    2    4    4    0    0 -0.12968508265E+03  0.35438632256E+03 -0.19976119432E+03  0.43683810150E+03  0.92277331371E+02 0.  0.
         23    2    4    4    0    0 -0.58560845655E+03  0.13886355792E+03 -0.91479692977E+03  0.10984574484E+04  0.86804326861E+02 0.  0.
          2    1    3    3  502    0  0.16269236341E+03 -0.89143644226E+02 -0.17701196099E+03  0.25641495423E+03  0.00000000000E+00 0. -1.
         -2    1    3    3    0  502  0.55260117578E+03 -0.40410623626E+03 -0.46528101617E+03  0.82774170709E+03  0.00000000000E+00 0.  1.
         15    1    5    5    0    0 -0.61073154305E+02  0.18595692106E+03 -0.15462726348E+03  0.24944469328E+03  0.17770000000E+01 0.  1.
        -15    1    5    5    0    0 -0.68611928341E+02  0.16842940150E+03 -0.45133930844E+02  0.18739340822E+03  0.17770000000E+01 0. -1.
          2    1    6    6  503    0 -0.40148030329E+03  0.76194781099E+02 -0.55186571067E+03  0.68669341136E+03  0.00000000000E+00 0. -1.
         -2    1    6    6    0  503 -0.18412815325E+03  0.62668776825E+02 -0.36293121910E+03  0.41176403705E+03  0.00000000000E+00 0.  1.
<mgrwt>
<rscale>  0 0.92543508E+03</rscale>
<asrwt>0</asrwt>
<pdfrwt beam="1">  1        2 0.33663872E+00 0.92543508E+03</pdfrwt>
<pdfrwt beam="2">  1       -2 0.66353930E-01 0.92543508E+03</pdfrwt>
<totfact> 0.11113315E+01</totfact>
</mgrwt>
</event>
<event>
12    1  0.8033771E-008  0.9016867E+03  0.7818608E-02  0.9423475E-01
          1   -1    0    0  501    0  0.00000000000E+00  0.00000000000E+00  0.15745151185E+04  0.15745151185E+04  0.00000000000E+00 0. -1.
         -1   -1    0    0    0  501 -0.00000000000E+00 -0.00000000000E+00 -0.54944947358E+03  0.54944947358E+03  0.00000000000E+00 0.  1.
         23    2    1    2    0    0  0.73324347366E+03  0.38587533103E+03  0.52562904314E+03  0.98550086030E+03  0.91543934264E+02 0.  0.
    5000000    2    1    2    0    0 -0.73324347366E+03 -0.38587533103E+03  0.49943660178E+03  0.11384637318E+04  0.60009748096E+03 0.  0.
         23    2    4    4    0    0 -0.13460033194E+03  0.11234596393E+03 -0.18940930708E+02  0.19823329682E+03  0.90547314372E+02 0.  0.
         23    2    4    4    0    0 -0.59864314171E+03 -0.49822129496E+03  0.51837753249E+03  0.94023043497E+03  0.93380591095E+02 0.  0.
          3    1    3    3  502    0  0.26731691607E+03  0.19116864824E+03  0.20493046096E+03  0.38729869548E+03  0.00000000000E+00 0. -1.
         -3    1    3    3    0  502  0.46592655758E+03  0.19470668278E+03  0.32069858218E+03  0.59820216482E+03  0.00000000000E+00 0.  1.
         15    1    5    5    0    0 -0.19877602889E+02  0.61896592159E+02 -0.31511694522E+02  0.72266533320E+02  0.17770000000E+01 0.  1.
        -15    1    5    5    0    0 -0.11472272906E+03  0.50449371773E+02  0.12570763814E+02  0.12596676350E+03  0.17770000000E+01 0. -1.
          3    1    6    6  503    0 -0.35687485578E+02 -0.21215826639E+02  0.55055472444E+02  0.68955151895E+02  0.00000000000E+00 0. -1.
         -3    1    6    6    0  503 -0.56295565613E+03 -0.47700546832E+03  0.46332206005E+03  0.87127528308E+03  0.00000000000E+00 0.  1.
<mgrwt>
<rscale>  0 0.90168672E+03</rscale>
<asrwt>0</asrwt>
<pdfrwt beam="1">  1        1 0.24223309E+00 0.90168672E+03</pdfrwt>
<pdfrwt beam="2">  1       -1 0.84530689E-01 0.90168672E+03</pdfrwt>
<totfact> 0.81994355E+00</totfact>
</mgrwt>
</event>
<event>
12    1  0.8033771E-008  0.3567995E+03  0.7818608E-02  0.1059858E+00
          2   -1    0    0  501    0  0.00000000000E+00  0.00000000000E+00  0.69306005087E+03  0.69306005087E+03  0.00000000000E+00 0. -1.
         -2   -1    0    0    0  501 -0.00000000000E+00 -0.00000000000E+00 -0.40884701764E+03  0.40884701764E+03  0.00000000000E+00 0.  1.
         23    2    1    2    0    0  0.25131855181E+03  0.22602230188E+03 -0.11815439172E+02  0.35234144845E+03  0.98781558295E+02 0.  0.
    5000000    2    1    2    0    0 -0.25131855181E+03 -0.22602230188E+03  0.29602847240E+03  0.74956562006E+03  0.59997388849E+03 0.  0.
         23    2    4    4    0    0 -0.13990958363E+03 -0.10623459664E+03 -0.15957891280E+03  0.25606205179E+03  0.96134613132E+02 0.  0.
         23    2    4    4    0    0 -0.11140896818E+03 -0.11978770524E+03  0.45560738520E+03  0.49350356827E+03  0.95951185098E+02 0.  0.
          3    1    3    3  502    0  0.47093647586E+02  0.72275615101E+02 -0.40144639076E+02  0.95148138330E+02  0.00000000000E+00 0. -1.
         -3    1    3    3    0  502  0.20422490423E+03  0.15374668678E+03  0.28329199905E+02  0.25719331012E+03  0.00000000000E+00 0.  1.
         15    1    5    5    0    0 -0.19037151228E+02  0.18462965242E+02 -0.21586390359E+02  0.34240680339E+02  0.17770000000E+01 0. -1.
        -15    1    5    5    0    0 -0.12087243240E+03 -0.12469756188E+03 -0.13799252244E+03  0.22182137145E+03  0.17770000000E+01 0.  1.
          1    1    6    6  503    0 -0.62349799850E+02 -0.10145022230E+03  0.39897219023E+03  0.41636336742E+03  0.00000000000E+00 0. -1.
         -1    1    6    6    0  503 -0.49059168332E+02 -0.18337482941E+02  0.56635194969E+02  0.77140200850E+02  0.00000000000E+00 0.  1.
<mgrwt>
<rscale>  0 0.35679952E+03</rscale>
<asrwt>0</asrwt>
<pdfrwt beam="1">  1        2 0.10662462E+00 0.35679952E+03</pdfrwt>
<pdfrwt beam="2">  1       -2 0.62899541E-01 0.35679952E+03</pdfrwt>
<totfact> 0.10172604E+02</totfact>
</mgrwt>
</event>
<event>
12    1  0.8033771E-008  0.8592071E+03  0.7818608E-02  0.9478062E-01
         -1   -1    0    0    0  501 -0.00000000000E+00  0.00000000000E+00  0.12458400788E+04  0.12458400788E+04  0.00000000000E+00 0.  1.
          1   -1    0    0  501    0  0.00000000000E+00 -0.00000000000E+00 -0.70753574018E+03  0.70753574018E+03  0.00000000000E+00 0. -1.
         23    2    1    2    0    0 -0.71987184219E+03 -0.42144267393E+03  0.13812606401E+03  0.85064735763E+03  0.93234762261E+02 0.  0.
    5000000    2    1    2    0    0  0.71987184219E+03  0.42144267393E+03  0.40017827462E+03  0.11027284614E+04  0.60003167534E+03 0.  0.
         23    2    4    4    0    0  0.64238009158E+03  0.27705227691E+03  0.50829197956E+02  0.70681205973E+03  0.87117932807E+02 0.  0.
         23    2    4    4    0    0  0.77491750611E+02  0.14439039701E+03  0.34934907667E+03  0.39591640162E+03  0.88608473298E+02 0.  0.
          1    1    3    3  502    0 -0.21028576623E+03 -0.17332447193E+03  0.39794970162E+02  0.27539991956E+03  0.00000000000E+00 0. -1.
         -1    1    3    3    0  502 -0.50958607597E+03 -0.24811820200E+03  0.98331093846E+02  0.57524743807E+03  0.00000000000E+00 0.  1.
         15    1    5    5    0    0  0.12484562956E+03  0.92950296198E+02  0.13251434372E+02  0.15622082776E+03  0.17770000000E+01 0.  1.
        -15    1    5    5    0    0  0.51753446202E+03  0.18410198072E+03  0.37577763584E+02  0.55059123198E+03  0.17770000000E+01 0. -1.
          1    1    6    6  503    0  0.47582091379E+02  0.13448000596E+03  0.21569631179E+03  0.25859974158E+03  0.00000000000E+00 0. -1.
         -1    1    6    6    0  503  0.29909659232E+02  0.99103910525E+01  0.13365276487E+03  0.13731666004E+03  0.00000000000E+00 0.  1.
<mgrwt>
<rscale>  0 0.85920707E+03</rscale>
<asrwt>0</asrwt>
<pdfrwt beam="1">  1        1 0.10885165E+00 0.85920707E+03</pdfrwt>
<pdfrwt beam="2">  1       -1 0.19166770E+00 0.85920707E+03</pdfrwt>
<totfact> 0.47053475E+00</totfact>
</mgrwt>
</event>
<event>
12    1  0.8033771E-008  0.7993585E+03  0.7818608E-02  0.9560946E-01
          1   -1    0    0  501    0  0.00000000000E+00  0.00000000000E+00  0.67929501022E+03  0.67929501022E+03  0.00000000000E+00 0. -1.
         -1   -1    0    0    0  501 -0.00000000000E+00 -0.00000000000E+00 -0.12904593821E+04  0.12904593821E+04  0.00000000000E+00 0.  1.
         23    2    1    2    0    0 -0.61235671503E+03 -0.49067685317E+03 -0.58315646308E+03  0.98152478316E+03  0.87034009732E+02 0.  0.
    5000000    2    1    2    0    0  0.61235671503E+03  0.49067685317E+03 -0.28007908828E+02  0.98822960919E+03  0.60005732796E+03 0.  0.
         23    2    4    4    0    0  0.47263308740E+03  0.34705117648E+03  0.24115838114E+03  0.64056523990E+03  0.91323093323E+02 0.  0.
         23    2    4    4    0    0  0.13972362763E+03  0.14362567669E+03 -0.26916628997E+03  0.34766436929E+03  0.90934013959E+02 0.  0.
          2    1    3    3  502    0 -0.44446960296E+03 -0.37413600733E+03 -0.38571199140E+03  0.69735551927E+03  0.00000000000E+00 0. -1.
         -2    1    3    3    0  502 -0.16788711207E+03 -0.11654084584E+03 -0.19744447168E+03  0.28416926390E+03  0.00000000000E+00 0.  1.
         15    1    5    5    0    0  0.24051010742E+03  0.23264492531E+03  0.13321391949E+03  0.36016368379E+03  0.17770000000E+01 0. -1.
        -15    1    5    5    0    0  0.23212297998E+03  0.11440625117E+03  0.10794446165E+03  0.28040155612E+03  0.17770000000E+01 0.  1.
          1    1    6    6  503    0  0.11090048554E+03  0.49369853789E+02 -0.15342844901E+03  0.19564403676E+03  0.00000000000E+00 0.  1.
         -1    1    6    6    0  503  0.28823142088E+02  0.94255822902E+02 -0.11573784096E+03  0.15202033252E+03  0.00000000000E+00 0. -1.
<mgrwt>
<rscale>  0 0.79935854E+03</rscale>
<asrwt>0</asrwt>
<pdfrwt beam="1">  1        1 0.10450693E+00 0.79935854E+03</pdfrwt>
<pdfrwt beam="2">  1       -1 0.19853221E+00 0.79935854E+03</pdfrwt>
<totfact> 0.45221231E+00</totfact>
</mgrwt>
</event>
<event>
12    1  0.8033771E-008  0.1502631E+04  0.7818608E-02  0.8882705E-01
          2   -1    0    0  501    0  0.00000000000E+00  0.00000000000E+00  0.38720277657E+04  0.38720277657E+04  0.00000000000E+00 0. -1.
         -2   -1    0    0    0  501 -0.00000000000E+00 -0.00000000000E+00 -0.61644611246E+03  0.61644611246E+03  0.00000000000E+00 0.  1.
         23    2    1    2    0    0 -0.95374021727E+03  0.11381667340E+04  0.16107247693E+04  0.21926917366E+04  0.91754306760E+02 0.  0.
    5000000    2    1    2    0    0  0.95374021727E+03 -0.11381667340E+04  0.16448568840E+04  0.22957821416E+04  0.60001463014E+03 0.  0.
         23    2    4    4    0    0  0.38304354843E+03 -0.68388722870E+03  0.12038833499E+04  0.14393786828E+04  0.89731660148E+02 0.  0.
         23    2    4    4    0    0  0.57069666884E+03 -0.45427950533E+03  0.44097353410E+03  0.85640345878E+03  0.83094341854E+02 0.  0.
          3    1    3    3  502    0 -0.23114630786E+03  0.32994990199E+03  0.46818322594E+03  0.61764964706E+03  0.00000000000E+00 0. -1.
         -3    1    3    3    0  502 -0.72259390941E+03  0.80821683204E+03  0.11425415433E+04  0.15750420895E+04  0.00000000000E+00 0.  1.
         15    1    5    5    0    0  0.38420688196E+03 -0.65130016084E+03  0.11591469186E+04  0.13839911720E+04  0.17770000000E+01 0. -1.
        -15    1    5    5    0    0 -0.11633335263E+01 -0.32587067860E+02  0.44736431283E+02  0.55387510772E+02  0.17770000000E+01 0.  1.
          2    1    6    6  503    0  0.37095285054E+03 -0.29533510328E+03  0.33206684714E+03  0.57887583429E+03  0.00000000000E+00 0. -1.
         -2    1    6    6    0  503  0.19974381830E+03 -0.15894440205E+03  0.10890668696E+03  0.27752762449E+03  0.00000000000E+00 0.  1.
<mgrwt>
<rscale>  0 0.15026314E+04</rscale>
<asrwt>0</asrwt>
<pdfrwt beam="1">  1        2 0.59569657E+00 0.15026314E+04</pdfrwt>
<pdfrwt beam="2">  1       -2 0.94837866E-01 0.15026314E+04</pdfrwt>
<totfact> 0.39175499E-01</totfact>
</mgrwt>
</event>
<event>
12    1  0.8033771E-008  0.7908349E+03  0.7818608E-02  0.9573379E-01
         -1   -1    0    0    0  501 -0.00000000000E+00  0.00000000000E+00  0.10447137437E+04  0.10447137437E+04  0.00000000000E+00 0.  1.
          1   -1    0    0  501    0  0.00000000000E+00 -0.00000000000E+00 -0.70366318690E+03  0.70366318690E+03  0.00000000000E+00 0. -1.
         23    2    1    2    0    0  0.69574564015E+03 -0.24838002614E+03  0.27675586559E+03  0.79442181208E+03  0.93581906381E+02 0.  0.
    5000000    2    1    2    0    0 -0.69574564015E+03  0.24838002614E+03  0.64294691197E+02  0.95395511850E+03  0.60011826137E+03 0.  0.
         23    2    4    4    0    0  0.11512343163E+02  0.15987788922E+02 -0.14643152835E+03  0.17466038616E+03  0.93144589530E+02 0.  0.
         23    2    4    4    0    0 -0.70725798331E+03  0.23239223721E+03  0.21072621955E+03  0.77929473234E+03  0.93138248736E+02 0.  0.
          4    1    3    3  502    0  0.24141126265E+03 -0.96949463224E+02  0.14450412651E+03  0.29759038750E+03  0.00000000000E+00 0.  1.
         -4    1    3    3    0  502  0.45433437750E+03 -0.15143056291E+03  0.13225173907E+03  0.49683142458E+03  0.00000000000E+00 0. -1.
         15    1    5    5    0    0  0.32650567659E+02  0.46470214513E+02 -0.10193748593E+03  0.11670453792E+03  0.17770000000E+01 0. -1.
        -15    1    5    5    0    0 -0.21138224496E+02 -0.30482425591E+02 -0.44494042419E+02  0.57955848235E+02  0.17770000000E+01 0.  1.
          2    1    6    6  503    0 -0.33137693219E+03  0.15051910421E+03  0.12795280833E+03  0.38579605114E+03  0.00000000000E+00 0. -1.
         -2    1    6    6    0  503 -0.37588105113E+03  0.81873133007E+02  0.82773411220E+02  0.39349868120E+03  0.00000000000E+00 0.  1.
<mgrwt>
<rscale>  0 0.79083494E+03</rscale>
<asrwt>0</asrwt>
<pdfrwt beam="1">  1        1 0.10825588E+00 0.79083494E+03</pdfrwt>
<pdfrwt beam="2">  1       -1 0.16072519E+00 0.79083494E+03</pdfrwt>
<totfact> 0.80073465E+00</totfact>
</mgrwt>
</event>
<event>
12    1  0.8033771E-008  0.6590841E+03  0.7818608E-02  0.9789881E-01
         -2   -1    0    0    0  501 -0.00000000000E+00  0.00000000000E+00  0.78272044197E+03  0.78272044197E+03  0.00000000000E+00 0.  1.
          2   -1    0    0  501    0  0.00000000000E+00 -0.00000000000E+00 -0.57896656450E+03  0.57896656450E+03  0.00000000000E+00 0. -1.
         23    2    1    2    0    0 -0.22840943528E+03  0.47358658076E+03  0.18069956767E+03  0.56357363753E+03  0.92237690540E+02 0.  0.
    5000000    2    1    2    0    0  0.22840943528E+03 -0.47358658076E+03  0.23054309811E+02  0.79811336894E+03  0.59999860739E+03 0.  0.
         23    2    4    4    0    0  0.34084085984E+03 -0.72298301375E+02 -0.55539139699E+02  0.36421785721E+03  0.90390903042E+02 0.  0.
         23    2    4    4    0    0 -0.11243142456E+03 -0.40128827939E+03  0.78593449510E+02  0.43389551173E+03  0.91734815589E+02 0.  0.
          3    1    3    3  502    0 -0.17679434992E+03  0.26229504633E+03  0.10713313199E+03  0.33396473087E+03  0.00000000000E+00 0. -1.
         -3    1    3    3    0  502 -0.51615085364E+02  0.21129153443E+03  0.73566435678E+02  0.22960890666E+03  0.00000000000E+00 0.  1.
         15    1    5    5    0    0  0.22196783135E+03 -0.71359263368E+01 -0.54333558160E+02  0.22863930736E+03  0.17770000000E+01 0. -1.
        -15    1    5    5    0    0  0.11887302849E+03 -0.65162375038E+02 -0.12055815389E+01  0.13557854985E+03  0.17770000000E+01 0.  1.
          4    1    6    6  503    0 -0.12005423036E+03 -0.27372305819E+03  0.57481370377E+02  0.30437056158E+03  0.00000000000E+00 0. -1.
         -4    1    6    6    0  503  0.76228058027E+01 -0.12756522120E+03  0.21112079133E+02  0.12952495015E+03  0.00000000000E+00 0.  1.
<mgrwt>
<rscale>  0 0.65908413E+03</rscale>
<asrwt>0</asrwt>
<pdfrwt beam="1">  1        2 0.89071779E-01 0.65908413E+03</pdfrwt>
<pdfrwt beam="2">  1       -2 0.12041853E+00 0.65908413E+03</pdfrwt>
<totfact> 0.27826307E+01</totfact>
</mgrwt>
</event>
<event>
12    1  0.8033771E-008  0.7018663E+03  0.7818608E-02  0.9714046E-01
         -1   -1    0    0    0  501 -0.00000000000E+00  0.00000000000E+00  0.14481325465E+04  0.14481325465E+04  0.00000000000E+00 0.  1.
          1   -1    0    0  501    0  0.00000000000E+00 -0.00000000000E+00 -0.41873146188E+03  0.41873146188E+03  0.00000000000E+00 0. -1.
         23    2    1    2    0    0 -0.45615587267E+03 -0.45936836292E+03  0.58918556721E+03  0.88065269919E+03  0.96499072357E+02 0.  0.
    5000000    2    1    2    0    0  0.45615587267E+03  0.45936836292E+03  0.44021551745E+03  0.98621130923E+03  0.59977126610E+03 0.  0.
         23    2    4    4    0    0  0.22300928358E+03 -0.95460013216E+01 -0.67894908490E+02  0.25096076107E+03  0.92451707912E+02 0.  0.
         23    2    4    4    0    0  0.23314658909E+03  0.46891436424E+03  0.50811042594E+03  0.73525054816E+03  0.90438656698E+02 0.  0.
          1    1    3    3  502    0 -0.65692672689E+02 -0.42839853403E+02  0.11108206287E+03  0.13597795769E+03  0.00000000000E+00 0.  1.
         -1    1    3    3    0  502 -0.39046319998E+03 -0.41652850951E+03  0.47810350434E+03  0.74467474151E+03  0.00000000000E+00 0. -1.
         15    1    5    5    0    0  0.92926186003E+02  0.24962499716E+01 -0.75959879868E+02  0.12006068627E+03  0.17770000000E+01 0. -1.
        -15    1    5    5    0    0  0.13008309758E+03 -0.12042251293E+02  0.80649713778E+01  0.13090007480E+03  0.17770000000E+01 0.  1.
          4    1    6    6  503    0  0.93460111018E+02  0.28415197695E+03  0.26786367458E+03  0.40153217370E+03  0.00000000000E+00 0. -1.
         -4    1    6    6    0  503  0.13968647807E+03  0.18476238728E+03  0.24024675136E+03  0.33371837446E+03  0.00000000000E+00 0.  1.
<mgrwt>
<rscale>  0 0.70186634E+03</rscale>
<asrwt>0</asrwt>
<pdfrwt beam="1">  1        1 0.64420226E-01 0.70186634E+03</pdfrwt>
<pdfrwt beam="2">  1       -1 0.22278962E+00 0.70186634E+03</pdfrwt>
<totfact> 0.62048587E+00</totfact>
</mgrwt>
</event>
<event>
12    1  0.8033771E-008  0.5334770E+03  0.7818608E-02  0.1005392E+00
         -2   -1    0    0    0  501 -0.00000000000E+00  0.00000000000E+00  0.12950057439E+03  0.12950057439E+03  0.00000000000E+00 0.  1.
          2   -1    0    0  501    0  0.00000000000E+00 -0.00000000000E+00 -0.30654453459E+04  0.30654453459E+04  0.00000000000E+00 0. -1.
         23    2    1    2    0    0 -0.30472585692E+03 -0.26937646424E+03 -0.18000534514E+04  0.18475292218E+04  0.88035617014E+02 0.  0.
    5000000    2    1    2    0    0  0.30472585692E+03  0.26937646424E+03 -0.11358913201E+04  0.13474166986E+04  0.59988427311E+03 0.  0.
         23    2    4    4    0    0  0.87224067727E+01  0.33500893901E+03 -0.32046510702E+03  0.47276732599E+03  0.92217081436E+02 0.  0.
         23    2    4    4    0    0  0.29600345015E+03 -0.65632474775E+02 -0.81542621310E+03  0.87464937259E+03  0.90365655615E+02 0.  0.
          1    1    3    3  502    0 -0.11026468970E+02 -0.38643609210E+02 -0.12335848809E+03  0.12973907713E+03  0.00000000000E+00 0.  1.
         -1    1    3    3    0  502 -0.29369938795E+03 -0.23073285503E+03 -0.16766949633E+04  0.17177901446E+04  0.00000000000E+00 0. -1.
         15    1    5    5    0    0  0.22202730501E+02  0.26137302030E+03 -0.19578116403E+03  0.32732589097E+03  0.17770000000E+01 0.  1.
        -15    1    5    5    0    0 -0.13480323729E+02  0.73635918718E+02 -0.12468394299E+03  0.14544143502E+03  0.17770000000E+01 0. -1.
          3    1    6    6  503    0  0.19947446049E+03 -0.22917446304E+00 -0.49608416823E+03  0.53468646409E+03  0.00000000000E+00 0. -1.
         -3    1    6    6    0  503  0.96528989664E+02 -0.65403300312E+02 -0.31934204486E+03  0.33996290850E+03  0.00000000000E+00 0.  1.
<mgrwt>
<rscale>  0 0.53347704E+03</rscale>
<asrwt>0</asrwt>
<pdfrwt beam="1">  1        2 0.47160691E+00 0.53347704E+03</pdfrwt>
<pdfrwt beam="2">  1       -2 0.19923168E-01 0.53347704E+03</pdfrwt>
<totfact> 0.37464525E+01</totfact>
</mgrwt>
</event>
<event>
12    1  0.8033771E-008  0.1451502E+04  0.7818608E-02  0.8917360E-01
         -2   -1    0    0    0  501 -0.00000000000E+00  0.00000000000E+00  0.12502221703E+04  0.12502221703E+04  0.00000000000E+00 0. -1.
          2   -1    0    0  501    0  0.00000000000E+00 -0.00000000000E+00 -0.18344739514E+04  0.18344739514E+04  0.00000000000E+00 0.  1.
         23    2    1    2    0    0 -0.99588106994E+03 -0.10403149998E+04 -0.47844882152E+03  0.15209779655E+04  0.10210921733E+03 0.  0.
    5000000    2    1    2    0    0  0.99588106994E+03  0.10403149998E+04 -0.10580295953E+03  0.15637181563E+04  0.59998816800E+03 0.  0.
         23    2    4    4    0    0  0.62186221872E+03  0.78168544696E+03 -0.31849691999E+03  0.10526288979E+04  0.94034842321E+02 0.  0.
         23    2    4    4    0    0  0.37401885122E+03  0.25862955286E+03  0.21269396045E+03  0.51108925840E+03  0.95886195851E+02 0.  0.
          2    1    3    3  502    0 -0.75448719331E+03 -0.84125886623E+03 -0.35296017975E+03  0.11838700492E+04  0.00000000000E+00 0. -1.
         -2    1    3    3    0  502 -0.24139387663E+03 -0.19905613360E+03 -0.12548864177E+03  0.33710791627E+03  0.00000000000E+00 0.  1.
         15    1    5    5    0    0  0.14154358366E+03  0.19528915410E+03 -0.11823499904E+03  0.26861703689E+03  0.17770000000E+01 0.  1.
        -15    1    5    5    0    0  0.48031863506E+03  0.58639629286E+03 -0.20026192095E+03  0.78401186099E+03  0.17770000000E+01 0. -1.
          1    1    6    6  503    0  0.20583550720E+03  0.18698859871E+03  0.16003807326E+03  0.32085070822E+03  0.00000000000E+00 0. -1.
         -1    1    6    6    0  503  0.16818334403E+03  0.71640954157E+02  0.52655887189E+02  0.19023855018E+03  0.00000000000E+00 0.  1.
<mgrwt>
<rscale>  0 0.14515024E+04</rscale>
<asrwt>0</asrwt>
<pdfrwt beam="1">  1        2 0.28222676E+00 0.14515024E+04</pdfrwt>
<pdfrwt beam="2">  1       -2 0.19234187E+00 0.14515024E+04</pdfrwt>
<totfact> 0.11664096E+00</totfact>
</mgrwt>
</event>
<event>
12    1  0.8033771E-008  0.7152001E+03  0.7818608E-02  0.9691585E-01
         -2   -1    0    0    0  501 -0.00000000000E+00  0.00000000000E+00  0.56331593822E+03  0.56331593822E+03  0.00000000000E+00 0.  1.
          2   -1    0    0  501    0  0.00000000000E+00 -0.00000000000E+00 -0.10437406859E+04  0.10437406859E+04  0.00000000000E+00 0. -1.
         23    2    1    2    0    0 -0.59237573967E+03  0.78035021386E+00 -0.47309964590E+03  0.76389885982E+03  0.93853967328E+02 0.  0.
    5000000    2    1    2    0    0  0.59237573967E+03 -0.78035021386E+00 -0.73251017694E+01  0.84315776429E+03  0.59995977572E+03 0.  0.
         23    2    4    4    0    0  0.13217658331E+03 -0.25934308903E+03  0.26462663939E+02  0.30628939629E+03  0.91561098140E+02 0.  0.
         23    2    4    4    0    0  0.46019915635E+03  0.25856273881E+03 -0.33787765708E+02  0.53686836800E+03  0.91913426879E+02 0.  0.
          2    1    3    3  502    0 -0.31120943711E+03  0.38854979274E+02 -0.21415061358E+03  0.37976507009E+03  0.00000000000E+00 0. -1.
         -2    1    3    3    0  502 -0.28116630255E+03 -0.38074629060E+02 -0.25894903232E+03  0.38413378973E+03  0.00000000000E+00 0.  1.
         15    1    5    5    0    0  0.14553259951E+03 -0.22238111761E+03  0.21655655099E+02  0.26665562833E+03  0.17770000000E+01 0.  1.
        -15    1    5    5    0    0 -0.13356016202E+02 -0.36961971417E+02  0.48070088397E+01  0.39633767962E+02  0.17770000000E+01 0. -1.
          2    1    6    6  503    0  0.24055215217E+03  0.13987586492E+03  0.28014551987E+02  0.27967018186E+03  0.00000000000E+00 0. -1.
         -2    1    6    6    0  503  0.21964700418E+03  0.11868687390E+03 -0.61802317695E+02  0.25719818614E+03  0.00000000000E+00 0.  1.
<mgrwt>
<rscale>  0 0.71520012E+03</rscale>
<asrwt>0</asrwt>
<pdfrwt beam="1">  1        2 0.16057549E+00 0.71520012E+03</pdfrwt>
<pdfrwt beam="2">  1       -2 0.86663991E-01 0.71520012E+03</pdfrwt>
<totfact> 0.27783416E+01</totfact>
</mgrwt>
</event>
<event>
12    1  0.8033771E-008  0.1040555E+04  0.7818608E-02  0.9265150E-01
          1   -1    0    0  501    0  0.00000000000E+00  0.00000000000E+00  0.18247357726E+04  0.18247357726E+04  0.00000000000E+00 0. -1.
         -1   -1    0    0    0  501 -0.00000000000E+00 -0.00000000000E+00 -0.68229359125E+03  0.68229359125E+03  0.00000000000E+00 0.  1.
         23    2    1    2    0    0 -0.32272864598E+03  0.98041772776E+03  0.48289642707E+03  0.11430348938E+04  0.89258665633E+02 0.  0.
    5000000    2    1    2    0    0  0.32272864598E+03 -0.98041772776E+03  0.65954575433E+03  0.13639944701E+04  0.60008967035E+03 0.  0.
         23    2    4    4    0    0  0.16455793476E+03 -0.73260285431E+03  0.72648625583E+03  0.10488318683E+04  0.92085569097E+02 0.  0.
         23    2    4    4    0    0  0.15817071123E+03 -0.24781487345E+03 -0.66940501507E+02  0.31516260175E+03  0.91740118853E+02 0.  0.
          1    1    3    3  502    0 -0.26145303248E+03  0.69540398926E+03  0.31822309312E+03  0.80821428685E+03  0.00000000000E+00 0. -1.
         -1    1    3    3    0  502 -0.61275613499E+02  0.28501373850E+03  0.16467333396E+03  0.33482060698E+03  0.00000000000E+00 0.  1.
         15    1    5    5    0    0  0.16813703000E+03 -0.70880313491E+03  0.68037603533E+03  0.99678816812E+03  0.17770000000E+01 0.  1.
        -15    1    5    5    0    0 -0.35790952451E+01 -0.23799719405E+02  0.46110220502E+02  0.52043700198E+02  0.17770000000E+01 0. -1.
          3    1    6    6  503    0  0.73016662990E+02 -0.11977539528E+03  0.14732442489E+02  0.14104830113E+03  0.00000000000E+00 0. -1.
         -3    1    6    6    0  503  0.85154048237E+02 -0.12803947817E+03 -0.81672943996E+02  0.17411430062E+03  0.00000000000E+00 0.  1.
<mgrwt>
<rscale>  0 0.10405552E+04</rscale>
<asrwt>0</asrwt>
<pdfrwt beam="1">  1        1 0.28072858E+00 0.10405552E+04</pdfrwt>
<pdfrwt beam="2">  1       -1 0.10496825E+00 0.10405552E+04</pdfrwt>
<totfact> 0.33509485E+00</totfact>
</mgrwt>
</event>
<event>
12    1  0.8033771E-008  0.6556521E+03  0.7818608E-02  0.9796231E-01
          2   -1    0    0  501    0  0.00000000000E+00  0.00000000000E+00  0.16611782725E+04  0.16611782725E+04  0.00000000000E+00 0. -1.
         -2   -1    0    0    0  501 -0.00000000000E+00 -0.00000000000E+00 -0.31849582710E+03  0.31849582710E+03  0.00000000000E+00 0.  1.
         23    2    1    2    0    0 -0.40340956352E+03  0.42664103054E+03  0.72576488535E+03  0.93789428917E+03  0.90272830711E+02 0.  0.
    5000000    2    1    2    0    0  0.40340956352E+03 -0.42664103054E+03  0.61691756000E+03  0.10417798104E+04  0.59996337606E+03 0.  0.
         23    2    4    4    0    0  0.23419285586E+03 -0.47157979413E+03  0.65135904750E+03  0.84268936102E+03  0.92859864578E+02 0.  0.
         23    2    4    4    0    0  0.16921670766E+03  0.44938763588E+02 -0.34441487498E+02  0.19909044937E+03  0.88300647475E+02 0.  0.
          1    1    3    3  502    0 -0.30584696128E+03  0.26650132087E+03  0.47223301003E+03  0.62255066743E+03  0.00000000000E+00 0. -1.
         -1    1    3    3    0  502 -0.97562602235E+02  0.16013970967E+03  0.25353187533E+03  0.31534362174E+03  0.00000000000E+00 0.  1.
         15    1    5    5    0    0  0.43919053042E+02 -0.18855669621E+03  0.23476669257E+03  0.30430423687E+03  0.17770000000E+01 0.  1.
        -15    1    5    5    0    0  0.19027380281E+03 -0.28302309792E+03  0.41659235493E+03  0.53838512415E+03  0.17770000000E+01 0. -1.
          3    1    6    6  503    0  0.63393247426E+02  0.44828105162E+02  0.19869254001E+02  0.80143933559E+02  0.00000000000E+00 0. -1.
         -3    1    6    6    0  503  0.10582346023E+03  0.11065842525E+00 -0.54310741498E+02  0.11894651581E+03  0.00000000000E+00 0.  1.
<mgrwt>
<rscale>  0 0.65565207E+03</rscale>
<asrwt>0</asrwt>
<pdfrwt beam="1">  1        2 0.25556588E+00 0.65565207E+03</pdfrwt>
<pdfrwt beam="2">  1       -2 0.48999359E-01 0.65565207E+03</pdfrwt>
<totfact> 0.42142715E+01</totfact>
</mgrwt>
</event>
<event>
12    1  0.8033771E-008  0.4533260E+03  0.7818608E-02  0.1026735E+00
          2   -1    0    0  501    0  0.00000000000E+00  0.00000000000E+00  0.11444089716E+04  0.11444089716E+04  0.00000000000E+00 0. -1.
         -2   -1    0    0    0  501 -0.00000000000E+00 -0.00000000000E+00 -0.18930518651E+03  0.18930518651E+03  0.00000000000E+00 0.  1.
         23    2    1    2    0    0 -0.51767327001E+01 -0.25905656227E+03  0.33237703025E+03  0.43094788178E+03  0.90024916313E+02 0.  0.
    5000000    2    1    2    0    0  0.51767327001E+01  0.25905656227E+03  0.62272675486E+03  0.90276627634E+03  0.60005102905E+03 0.  0.
         23    2    4    4    0    0 -0.26465594718E+03  0.19134522443E+02  0.29071368107E+03  0.40404562766E+03  0.91266228962E+02 0.  0.
         23    2    4    4    0    0  0.26983267988E+03  0.23992203983E+03  0.33201307379E+03  0.49872064868E+03  0.90096303595E+02 0.  0.
          1    1    3    3  502    0  0.53220335463E-01 -0.22014101652E+03  0.21716752437E+03  0.30923098750E+03  0.00000000000E+00 0. -1.
         -1    1    3    3    0  502 -0.52299530355E+01 -0.38915545754E+02  0.11520950588E+03  0.12171689428E+03  0.00000000000E+00 0.  1.
         15    1    5    5    0    0 -0.11745145692E+03 -0.27665087120E+02  0.16752431816E+03  0.20646490423E+03  0.17770000000E+01 0.  1.
        -15    1    5    5    0    0 -0.14720449026E+03  0.46799609563E+02  0.12318936291E+03  0.19758072343E+03  0.17770000000E+01 0. -1.
          4    1    6    6  503    0  0.12987527098E+03  0.17469007446E+03  0.19825537465E+03  0.29443063989E+03  0.00000000000E+00 0. -1.
         -4    1    6    6    0  503  0.13995740890E+03  0.65231965369E+02  0.13375769914E+03  0.20429000879E+03  0.00000000000E+00 0.  1.
<mgrwt>
<rscale>  0 0.45332601E+03</rscale>
<asrwt>0</asrwt>
<pdfrwt beam="1">  1        2 0.17606291E+00 0.45332601E+03</pdfrwt>
<pdfrwt beam="2">  1       -2 0.29123876E-01 0.45332601E+03</pdfrwt>
<totfact> 0.22915021E+02</totfact>
</mgrwt>
</event>
<event>
12    1  0.8033771E-008  0.9186836E+03  0.7818608E-02  0.9402523E-01
         -2   -1    0    0    0  501 -0.00000000000E+00  0.00000000000E+00  0.46795096602E+03  0.46795096602E+03  0.00000000000E+00 0.  1.
          2   -1    0    0  501    0  0.00000000000E+00 -0.00000000000E+00 -0.20951758852E+04  0.20951758852E+04  0.00000000000E+00 0. -1.
         23    2    1    2    0    0  0.19242132259E+03  0.81094678440E+03 -0.31339605168E+03  0.89546868285E+03  0.94796752237E+02 0.  0.
    5000000    2    1    2    0    0 -0.19242132259E+03 -0.81094678440E+03 -0.13138288675E+04  0.16676581683E+04  0.60023063975E+03 0.  0.
         23    2    4    4    0    0 -0.37309555461E+03 -0.67454572610E+03 -0.91614408413E+03  0.12007722630E+04  0.91223983748E+02 0.  0.
         23    2    4    4    0    0  0.18067423202E+03 -0.13640105830E+03 -0.39768478334E+03  0.46688590535E+03  0.92632795969E+02 0.  0.
          2    1    3    3  502    0  0.12193988165E+03  0.35532147874E+03 -0.17250426107E+03  0.41337683544E+03  0.00000000000E+00 0. -1.
         -2    1    3    3    0  502  0.70481440940E+02  0.45562530566E+03 -0.14089179061E+03  0.48209184741E+03  0.00000000000E+00 0.  1.
         15    1    5    5    0    0 -0.17181720490E+03 -0.23942447714E+03 -0.39229459712E+03  0.49065613297E+03  0.17770000000E+01 0. -1.
        -15    1    5    5    0    0 -0.20127834971E+03 -0.43512124896E+03 -0.52384948701E+03  0.71011613002E+03  0.17770000000E+01 0.  1.
          1    1    6    6  503    0  0.73829117081E+02 -0.60920015546E+02 -0.25955063781E+03  0.27663788679E+03  0.00000000000E+00 0. -1.
         -1    1    6    6    0  503  0.10684511494E+03 -0.75481042754E+02 -0.13813414553E+03  0.19024801855E+03  0.00000000000E+00 0.  1.
<mgrwt>
<rscale>  0 0.91868361E+03</rscale>
<asrwt>0</asrwt>
<pdfrwt beam="1">  1        2 0.32233476E+00 0.91868361E+03</pdfrwt>
<pdfrwt beam="2">  1       -2 0.71992455E-01 0.91868361E+03</pdfrwt>
<totfact> 0.10477789E+01</totfact>
</mgrwt>
</event>
<event>
12    1  0.8033771E-008  0.8566927E+03  0.7818608E-02  0.9481398E-01
         -2   -1    0    0    0  501 -0.00000000000E+00  0.00000000000E+00  0.80977827929E+03  0.80977827929E+03  0.00000000000E+00 0.  1.
          2   -1    0    0  501    0  0.00000000000E+00 -0.00000000000E+00 -0.13202487108E+04  0.13202487108E+04  0.00000000000E+00 0. -1.
         23    2    1    2    0    0  0.76558517889E+03 -0.14670305823E+03  0.31491881353E+03  0.84567873499E+03  0.91412309185E+02 0.  0.
    5000000    2    1    2    0    0 -0.76558517889E+03  0.14670305823E+03 -0.82538924505E+03  0.12843482551E+04  0.60053358034E+03 0.  0.
         23    2    4    4    0    0 -0.17196842570E+03 -0.17447810926E+03 -0.76907591193E+02  0.27209508866E+03  0.90028937782E+02 0.  0.
         23    2    4    4    0    0 -0.59361675319E+03  0.32118116749E+03 -0.74848165386E+03  0.10122531665E+04  0.94305327581E+02 0.  0.
          2    1    3    3  502    0  0.55228193324E+03 -0.67603803099E+02  0.24229332540E+03  0.60687038444E+03  0.00000000000E+00 0. -1.
         -2    1    3    3    0  502  0.21330324566E+03 -0.79099255127E+02  0.72625488128E+02  0.23880835056E+03  0.00000000000E+00 0.  1.
         15    1    5    5    0    0 -0.11740325026E+03 -0.15887691960E+03 -0.84387397671E+02  0.21482502035E+03  0.17770000000E+01 0.  1.
        -15    1    5    5    0    0 -0.54565175443E+02 -0.15601189658E+02  0.74798064776E+01  0.57270068307E+02  0.17770000000E+01 0. -1.
          3    1    6    6  503    0 -0.10280753441E+03  0.48423209304E+02 -0.78652973783E+02  0.13820451012E+03  0.00000000000E+00 0. -1.
         -3    1    6    6    0  503 -0.49080921877E+03  0.27275795818E+03 -0.66982868008E+03  0.87404865634E+03  0.00000000000E+00 0.  1.
<mgrwt>
<rscale>  0 0.85669270E+03</rscale>
<asrwt>0</asrwt>
<pdfrwt beam="1">  1        2 0.20311519E+00 0.85669270E+03</pdfrwt>
<pdfrwt beam="2">  1       -2 0.12458127E+00 0.85669270E+03</pdfrwt>
<totfact> 0.78438782E+00</totfact>
</mgrwt>
</event>
<event>
12    1  0.8033771E-008  0.4766073E+03  0.7818608E-02  0.1020072E+00
         -1   -1    0    0    0  501 -0.00000000000E+00  0.00000000000E+00  0.90506759645E+03  0.90506759645E+03  0.00000000000E+00 0. -1.
          1   -1    0    0  501    0  0.00000000000E+00 -0.00000000000E+00 -0.38573412324E+03  0.38573412324E+03  0.00000000000E+00 0.  1.
         23    2    1    2    0    0  0.36335358747E+03  0.15161137081E+03 -0.21652325589E+01  0.40370286029E+03  0.89215883608E+02 0.  0.
    5000000    2    1    2    0    0 -0.36335358747E+03 -0.15161137081E+03  0.52149870577E+03  0.88709885941E+03  0.59997637367E+03 0.  0.
         23    2    4    4    0    0 -0.20999454945E+03 -0.27550342604E+03  0.56172897545E+03  0.66634754522E+03  0.92085615569E+02 0.  0.
         23    2    4    4    0    0 -0.15335903802E+03  0.12389205523E+03 -0.40230269688E+02  0.22075131419E+03  0.90798855877E+02 0.  0.
          4    1    3    3  502    0  0.24623356629E+03  0.11151588096E+03  0.39298167589E+02  0.27315033745E+03  0.00000000000E+00 0. -1.
         -4    1    3    3    0  502  0.11712002118E+03  0.40095489846E+02 -0.41463400148E+02  0.13055252284E+03  0.00000000000E+00 0.  1.
         15    1    5    5    0    0 -0.20574142164E+03 -0.23382210968E+03  0.52581291511E+03  0.61113393865E+03  0.17770000000E+01 0. -1.
        -15    1    5    5    0    0 -0.42531278048E+01 -0.41681316360E+02  0.35916060347E+02  0.55213606561E+02  0.17770000000E+01 0.  1.
          3    1    6    6  503    0 -0.15228509455E+03  0.10084553071E+03 -0.57992662179E+02  0.19163433918E+03  0.00000000000E+00 0. -1.
         -3    1    6    6    0  503 -0.10739434700E+01  0.23046524523E+02  0.17762392492E+02  0.29116975018E+02  0.00000000000E+00 0.  1.
<mgrwt>
<rscale>  0 0.47660726E+03</rscale>
<asrwt>0</asrwt>
<pdfrwt beam="1">  1        1 0.59343712E-01 0.47660726E+03</pdfrwt>
<pdfrwt beam="2">  1       -1 0.13924117E+00 0.47660726E+03</pdfrwt>
<totfact> 0.28320221E+01</totfact>
</mgrwt>
</event>
<event>
12    1  0.8033771E-008  0.6355896E+03  0.7818608E-02  0.9834201E-01
         -2   -1    0    0    0  501 -0.00000000000E+00  0.00000000000E+00  0.13097927169E+03  0.13097927169E+03  0.00000000000E+00 0.  1.
          2   -1    0    0  501    0  0.00000000000E+00 -0.00000000000E+00 -0.34102999586E+04  0.34102999586E+04  0.00000000000E+00 0. -1.
         23    2    1    2    0    0  0.21343226551E+03  0.45997020490E+03 -0.17153311283E+04  0.17910512106E+04  0.91529437616E+02 0.  0.
    5000000    2    1    2    0    0 -0.21343226551E+03 -0.45997020490E+03 -0.15639895586E+04  0.17502280197E+04  0.60009070987E+03 0.  0.
         23    2    4    4    0    0 -0.23716637343E+03  0.40398730413E+02 -0.34998182075E+03  0.43391114797E+03  0.88947531546E+02 0.  0.
         23    2    4    4    0    0  0.23734107919E+02 -0.50036893532E+03 -0.12140077379E+04  0.13163168717E+04  0.89123172421E+02 0.  0.
          1    1    3    3  502    0  0.12436882187E+03  0.20918637000E+03 -0.95377998149E+03  0.98433875995E+03  0.00000000000E+00 0. -1.
         -1    1    3    3    0  502  0.89063443644E+02  0.25078383491E+03 -0.76155114679E+03  0.80671245064E+03  0.00000000000E+00 0.  1.
         15    1    5    5    0    0 -0.23230429326E+02  0.31011977238E+02 -0.30724156853E+02  0.49482594134E+02  0.17770000000E+01 0. -1.
        -15    1    5    5    0    0 -0.21393594410E+03  0.93867531749E+01 -0.31925766390E+03  0.38442855383E+03  0.17770000000E+01 0.  1.
          1    1    6    6  503    0  0.52002422110E+02 -0.18670279353E+03 -0.47155151154E+03  0.50982645386E+03  0.00000000000E+00 0. -1.
         -1    1    6    6    0  503 -0.28268314191E+02 -0.31366614179E+03 -0.74245622635E+03  0.80649041788E+03  0.00000000000E+00 0.  1.
<mgrwt>
<rscale>  0 0.63558957E+03</rscale>
<asrwt>0</asrwt>
<pdfrwt beam="1">  1        2 0.52466144E+00 0.63558957E+03</pdfrwt>
<pdfrwt beam="2">  1       -2 0.20150661E-01 0.63558957E+03</pdfrwt>
<totfact> 0.21661868E+01</totfact>
</mgrwt>
</event>
<event>
12    1  0.8174836E-008  0.6608451E+03  0.7818608E-02  0.9786639E-01
         -2   -1    0    0    0  501 -0.00000000000E+00  0.00000000000E+00  0.30907733459E+03  0.30907733459E+03  0.00000000000E+00 0.  1.
          2   -1    0    0  501    0  0.00000000000E+00 -0.00000000000E+00 -0.14652280701E+04  0.14652280701E+04  0.00000000000E+00 0. -1.
         23    2    1    2    0    0 -0.34307562627E+03 -0.40413216641E+03 -0.55619404357E+03  0.77371545881E+03  0.90885113302E+02 0.  0.
    5000000    2    1    2    0    0  0.34307562627E+03  0.40413216641E+03 -0.59995669190E+03  0.10005899458E+04  0.60017373675E+03 0.  0.
         23    2    4    4    0    0  0.47971729937E+03  0.17381962047E+03 -0.39822486923E+03  0.65295410098E+03  0.86163006718E+02 0.  0.
         23    2    4    4    0    0 -0.13664167310E+03  0.23031254595E+03 -0.20173182266E+03  0.34763584486E+03  0.91870216673E+02 0.  0.
          4    1    3    3  502    0 -0.95930977183E+02 -0.17682777509E+03 -0.23025150514E+03  0.30575573592E+03  0.00000000000E+00 0. -1.
         -4    1    3    3    0  502 -0.24714464909E+03 -0.22730439133E+03 -0.32594253843E+03  0.46795972289E+03  0.00000000000E+00 0.  1.
         15    1    5    5    0    0  0.35038878271E+03  0.15918682362E+03 -0.32420232896E+03  0.50321273006E+03  0.17770000000E+01 0.  1.
        -15    1    5    5    0    0  0.12932851666E+03  0.14632796848E+02 -0.74022540276E+02  0.14974137092E+03  0.17770000000E+01 0. -1.
          2    1    6    6  503    0 -0.59735123578E+02  0.70833320233E+02 -0.21775970013E+02  0.95183176634E+02  0.00000000000E+00 0. -1.
         -2    1    6    6    0  503 -0.76906549520E+02  0.15947922571E+03 -0.17995585265E+03  0.25245266823E+03  0.00000000000E+00 0.  1.
<mgrwt>
<rscale>  0 0.66084507E+03</rscale>
<asrwt>0</asrwt>
<pdfrwt beam="1">  1        2 0.22541970E+00 0.66084507E+03</pdfrwt>
<pdfrwt beam="2">  1       -2 0.47550360E-01 0.66084507E+03</pdfrwt>
<totfact> 0.57370991E+01</totfact>
</mgrwt>
</event>
<event>
12    1  0.8033771E-008  0.1413600E+04  0.7818608E-02  0.8944033E-01
          1   -1    0    0  501    0  0.00000000000E+00  0.00000000000E+00  0.22759861089E+04  0.22759861089E+04  0.00000000000E+00 0. -1.
         -1   -1    0    0    0  501 -0.00000000000E+00 -0.00000000000E+00 -0.11611020092E+04  0.11611020092E+04  0.00000000000E+00 0.  1.
         23    2    1    2    0    0 -0.11294420736E+04  0.74804131197E+03 -0.29965650212E+03  0.13886633287E+04  0.58194665692E+02 0.  0.
    5000000    2    1    2    0    0  0.11294420736E+04 -0.74804131197E+03  0.14145406018E+04  0.20484247894E+04  0.59992816383E+03 0.  0.
         23    2    4    4    0    0  0.49049799663E+03 -0.66080089472E+03  0.75632577711E+03  0.11213756116E+04  0.90600629210E+02 0.  0.
         23    2    4    4    0    0  0.63894407695E+03 -0.87240417255E+02  0.65821482472E+03  0.92704917783E+03  0.10155293580E+03 0.  0.
          3    1    3    3  502    0 -0.55591695692E+03  0.36676884475E+03 -0.11755297408E+03  0.67630004449E+03  0.00000000000E+00 0. -1.
         -3    1    3    3    0  502 -0.57352511667E+03  0.38127246722E+03 -0.18210352804E+03  0.71236328417E+03  0.00000000000E+00 0.  1.
         15    1    5    5    0    0  0.34323196346E+03 -0.46631820999E+03  0.58625965467E+03  0.82399295758E+03  0.17770000000E+01 0.  1.
        -15    1    5    5    0    0  0.14726603317E+03 -0.19448268473E+03  0.17006612244E+03  0.29738265403E+03  0.17770000000E+01 0. -1.
          1    1    6    6  503    0  0.40646946185E+03 -0.17626391887E+02  0.36644373588E+03  0.54754828524E+03  0.00000000000E+00 0. -1.
         -1    1    6    6    0  503  0.23247461510E+03 -0.69614025368E+02  0.29177108884E+03  0.37950089259E+03  0.00000000000E+00 0.  1.
<mgrwt>
<rscale>  0 0.14135997E+04</rscale>
<asrwt>0</asrwt>
<pdfrwt beam="1">  1        1 0.35015171E+00 0.14135997E+04</pdfrwt>
<pdfrwt beam="2">  1       -1 0.17863108E+00 0.14135997E+04</pdfrwt>
<totfact> 0.39362598E-01</totfact>
</mgrwt>
</event>
<event>
12    1  0.8033771E-008  0.1395737E+04  0.7818608E-02  0.8956910E-01
         -2   -1    0    0    0  501 -0.00000000000E+00  0.00000000000E+00  0.13513773444E+04  0.13513773444E+04  0.00000000000E+00 0.  1.
          2   -1    0    0  501    0  0.00000000000E+00 -0.00000000000E+00 -0.16631370985E+04  0.16631370985E+04  0.00000000000E+00 0. -1.
         23    2    1    2    0    0  0.64428136545E+03  0.12013191701E+04  0.30980742005E+03  0.14007679403E+04  0.88904211079E+02 0.  0.
    5000000    2    1    2    0    0 -0.64428136545E+03 -0.12013191701E+04 -0.62156717415E+03  0.16137465027E+04  0.59963805457E+03 0.  0.
         23    2    4    4    0    0 -0.59840037773E+03 -0.12190264192E+04 -0.48678793049E+03  0.14457339897E+04  0.95267291765E+02 0.  0.
         23    2    4    4    0    0 -0.45880987725E+02  0.17707249125E+02 -0.13477924366E+03  0.16801251294E+03  0.87430819936E+02 0.  0.
          2    1    3    3  502    0  0.41723979071E+03  0.68840910503E+03  0.19383132347E+03  0.82798956564E+03  0.00000000000E+00 0. -1.
         -2    1    3    3    0  502  0.22704157474E+03  0.51291006509E+03  0.11597609658E+03  0.57277837469E+03  0.00000000000E+00 0.  1.
         15    1    5    5    0    0 -0.36925877027E+03 -0.85189453420E+03 -0.32575129763E+03  0.98396819179E+03  0.17770000000E+01 0. -1.
        -15    1    5    5    0    0 -0.22914160746E+03 -0.36713188505E+03 -0.16103663286E+03  0.46176579793E+03  0.17770000000E+01 0.  1.
          3    1    6    6  503    0 -0.38455908652E+01 -0.12160833153E+02 -0.11011522276E+03  0.11085141729E+03  0.00000000000E+00 0. -1.
         -3    1    6    6    0  503 -0.42035396859E+02  0.29868082277E+02 -0.24664020900E+02  0.57161095642E+02  0.00000000000E+00 0.  1.
<mgrwt>
<rscale>  0 0.13957375E+04</rscale>
<asrwt>0</asrwt>
<pdfrwt beam="1">  1        2 0.25586725E+00 0.13957375E+04</pdfrwt>
<pdfrwt beam="2">  1       -2 0.20790421E+00 0.13957375E+04</pdfrwt>
<totfact> 0.11537952E+00</totfact>
</mgrwt>
</event>
<event>
12    1  0.8033771E-008  0.5698306E+03  0.7818608E-02  0.9970053E-01
         -1   -1    0    0    0  501 -0.00000000000E+00  0.00000000000E+00  0.34874182384E+03  0.34874182384E+03  0.00000000000E+00 0.  1.
          1   -1    0    0  501    0  0.00000000000E+00 -0.00000000000E+00 -0.13333945265E+04  0.13333945265E+04  0.00000000000E+00 0. -1.
         23    2    1    2    0    0  0.24999100693E+03 -0.34146811550E+03  0.25276524109E+02  0.43347992886E+03  0.90387878653E+02 0.  0.
    5000000    2    1    2    0    0 -0.24999100693E+03  0.34146811550E+03 -0.10099292267E+04  0.12486564215E+04  0.60007486062E+03 0.  0.
         23    2    4    4    0    0 -0.37066342382E+02 -0.14770537847E+03 -0.37654269803E+03  0.41549914487E+03  0.87546235660E+02 0.  0.
         23    2    4    4    0    0 -0.21292466455E+03  0.48917349397E+03 -0.63338652872E+03  0.83315727659E+03  0.91350603679E+02 0.  0.
          2    1    3    3  502    0  0.14251963964E+03 -0.26246540256E+03  0.28796525685E+02  0.30004862125E+03  0.00000000000E+00 0. -1.
         -2    1    3    3    0  502  0.10747136729E+03 -0.79002712934E+02 -0.35200015757E+01  0.13343130761E+03  0.00000000000E+00 0.  1.
         15    1    5    5    0    0 -0.44482783182E+02 -0.15606156560E+03 -0.33199306822E+03  0.36953549942E+03  0.17770000000E+01 0. -1.
        -15    1    5    5    0    0  0.74164408002E+01  0.83561871284E+01 -0.44549629808E+02  0.45963645444E+02  0.17770000000E+01 0.  1.
          4    1    6    6  503    0 -0.12814130497E+02  0.46058514674E+02 -0.10350303125E+03  0.11401081612E+03  0.00000000000E+00 0.  1.
         -4    1    6    6    0  503 -0.20011053405E+03  0.44311497929E+03 -0.52988349747E+03  0.71914646047E+03  0.00000000000E+00 0. -1.
<mgrwt>
<rscale>  0 0.56983064E+03</rscale>
<asrwt>0</asrwt>
<pdfrwt beam="1">  1        1 0.20513762E+00 0.56983064E+03</pdfrwt>
<pdfrwt beam="2">  1       -1 0.53652588E-01 0.56983064E+03</pdfrwt>
<totfact> 0.31680379E+01</totfact>
</mgrwt>
</event>
<event>
12    1  0.8033771E-008  0.9656397E+03  0.7818608E-02  0.9347055E-01
          2   -1    0    0  501    0  0.00000000000E+00  0.00000000000E+00  0.10417582994E+04  0.10417582994E+04  0.00000000000E+00 0. -1.
         -2   -1    0    0    0  501 -0.00000000000E+00 -0.00000000000E+00 -0.36200397658E+04  0.36200397658E+04  0.00000000000E+00 0.  1.
         23    2    1    2    0    0 -0.60147832210E+03 -0.68797000588E+03  0.73183068654E+03  0.11758413782E+04  0.10930641373E+03 0.  0.
    5000000    2    1    2    0    0  0.60147832210E+03  0.68797000588E+03 -0.33101121529E+04  0.34859566870E+04  0.59997721439E+03 0.  0.
         23    2    4    4    0    0  0.26942716650E+03  0.39991474538E+02 -0.44866895894E+03  0.53193737467E+03  0.86389928668E+02 0.  0.
         23    2    4    4    0    0  0.33205115560E+03  0.64797853134E+03 -0.28614431940E+04  0.29540193123E+04  0.90767825753E+02 0.  0.
          3    1    3    3  502    0 -0.46249341329E+03 -0.57947401121E+03  0.62488232106E+03  0.96962271125E+03  0.00000000000E+00 0. -1.
         -3    1    3    3    0  502 -0.13898490882E+03 -0.10849599466E+03  0.10694836548E+03  0.20621866699E+03  0.00000000000E+00 0.  1.
         15    1    5    5    0    0  0.87123644863E+02 -0.26647351970E+02 -0.12872206103E+03  0.15771219859E+03  0.17770000000E+01 0. -1.
        -15    1    5    5    0    0  0.18230352164E+03  0.66638826508E+02 -0.31994689791E+03  0.37422517608E+03  0.17770000000E+01 0.  1.
          3    1    6    6  503    0  0.22732114958E+03  0.46117156043E+03 -0.18477678843E+04  0.19179677441E+04  0.00000000000E+00 0. -1.
         -3    1    6    6    0  503  0.10473000602E+03  0.18680697091E+03 -0.10136753097E+04  0.10360515682E+04  0.00000000000E+00 0.  1.
<mgrwt>
<rscale>  0 0.96563966E+03</rscale>
<asrwt>0</asrwt>
<pdfrwt beam="1">  1        2 0.16027051E+00 0.96563966E+03</pdfrwt>
<pdfrwt beam="2">  1       -2 0.55692920E+00 0.96563966E+03</pdfrwt>
<totfact> 0.18580666E-02</totfact>
</mgrwt>
</event>
<event>
12    1  0.8033771E-008  0.1003600E+04  0.7818608E-02  0.9304606E-01
          1   -1    0    0  501    0  0.00000000000E+00  0.00000000000E+00  0.45777400531E+04  0.45777400531E+04  0.00000000000E+00 0. -1.
         -1   -1    0    0    0  501 -0.00000000000E+00 -0.00000000000E+00 -0.74472887623E+03  0.74472887623E+03  0.00000000000E+00 0.  1.
         23    2    1    2    0    0  0.70786217313E+03 -0.62665016732E+03 -0.33477932764E+03  0.10069256936E+04  0.89793462313E+02 0.  0.
    5000000    2    1    2    0    0 -0.70786217313E+03  0.62665016732E+03  0.41677905045E+04  0.43155432357E+04  0.59973030733E+03 0.  0.
         23    2    4    4    0    0 -0.66641550272E+03  0.70528546587E+03  0.38849060972E+04  0.40052834764E+04  0.90901768014E+02 0.  0.
         23    2    4    4    0    0 -0.41446670408E+02 -0.78635298556E+02  0.28288440729E+03  0.31025975933E+03  0.91302758452E+02 0.  0.
          2    1    3    3  502    0  0.57152842419E+03 -0.53134708825E+03 -0.30545048254E+03  0.83801817709E+03  0.00000000000E+00 0. -1.
         -2    1    3    3    0  502  0.13633374894E+03 -0.95303079072E+02 -0.29328845101E+02  0.16890751652E+03  0.00000000000E+00 0.  1.
         15    1    5    5    0    0 -0.13512525319E+03  0.16493626157E+03  0.71926332449E+03  0.75020376706E+03  0.17770000000E+01 0.  1.
        -15    1    5    5    0    0 -0.53129024953E+03  0.54034920430E+03  0.31656427728E+04  0.32550797094E+04  0.17770000000E+01 0. -1.
          3    1    6    6  503    0 -0.13130192875E+02 -0.35688472178E+02  0.21140093392E+02  0.43508304494E+02  0.00000000000E+00 0. -1.
         -3    1    6    6    0  503 -0.28316477533E+02 -0.42946826378E+02  0.26174431390E+03  0.26675145483E+03  0.00000000000E+00 0.  1.
<mgrwt>
<rscale>  0 0.10035995E+04</rscale>
<asrwt>0</asrwt>
<pdfrwt beam="1">  1        1 0.70426768E+00 0.10035995E+04</pdfrwt>
<pdfrwt beam="2">  1       -1 0.11457368E+00 0.10035995E+04</pdfrwt>
<totfact> 0.19912620E-02</totfact>
</mgrwt>
</event>
<event>
12    1  0.8033771E-008  0.4286533E+03  0.7818608E-02  0.1034286E+00
         -1   -1    0    0    0  501 -0.00000000000E+00  0.00000000000E+00  0.14976299335E+04  0.14976299335E+04  0.00000000000E+00 0.  1.
          1   -1    0    0  501    0  0.00000000000E+00 -0.00000000000E+00 -0.40482398557E+03  0.40482398557E+03  0.00000000000E+00 0. -1.
         23    2    1    2    0    0  0.25613550221E+03 -0.24942992793E+03 -0.20957473043E+03  0.42465203673E+03  0.92666607927E+02 0.  0.
    5000000    2    1    2    0    0 -0.25613550221E+03  0.24942992793E+03  0.13023806783E+04  0.14778018823E+04  0.59990189833E+03 0.  0.
         23    2    4    4    0    0 -0.64026495758E+02 -0.80839022004E+02  0.22435475323E+02  0.13886671154E+03  0.90256708244E+02 0.  0.
         23    2    4    4    0    0 -0.19210900645E+03  0.33026894994E+03  0.12799452030E+04  0.13389351708E+04  0.92218323373E+02 0.  0.
          1    1    3    3  502    0  0.49669330600E+02 -0.17935820662E+02 -0.61100767911E+02  0.80759147496E+02  0.00000000000E+00 0. -1.
         -1    1    3    3    0  502  0.20646617161E+03 -0.23149410727E+03 -0.14847396252E+03  0.34389288924E+03  0.00000000000E+00 0.  1.
         15    1    5    5    0    0 -0.14859304838E+02 -0.16428222950E+02 -0.33633443065E+02  0.40311929636E+02  0.17770000000E+01 0. -1.
        -15    1    5    5    0    0 -0.49167190920E+02 -0.64410799054E+02  0.56068918389E+02  0.98554781903E+02  0.17770000000E+01 0.  1.
          3    1    6    6  503    0 -0.16342687045E+03  0.32213810995E+03  0.11404176820E+04  0.11962582469E+04  0.00000000000E+00 0. -1.
         -3    1    6    6    0  503 -0.28682136002E+02  0.81308399847E+01  0.13952752104E+03  0.14267692389E+03  0.00000000000E+00 0.  1.
<mgrwt>
<rscale>  0 0.42865333E+03</rscale>
<asrwt>0</asrwt>
<pdfrwt beam="1">  1        1 0.62280614E-01 0.42865333E+03</pdfrwt>
<pdfrwt beam="2">  1       -1 0.23040460E+00 0.42865333E+03</pdfrwt>
<totfact> 0.60892265E+00</totfact>
</mgrwt>
</event>
<event>
12    1  0.8033771E-008  0.4587459E+03  0.7818608E-02  0.1025146E+00
         -2   -1    0    0    0  501 -0.00000000000E+00  0.00000000000E+00  0.19403990514E+03  0.19403990514E+03  0.00000000000E+00 0.  1.
          2   -1    0    0  501    0  0.00000000000E+00 -0.00000000000E+00 -0.20716065410E+04  0.20716065410E+04  0.00000000000E+00 0. -1.
         23    2    1    2    0    0  0.23511709862E+03 -0.37815519475E+03 -0.38192809804E+03  0.59373588087E+03  0.91497665388E+02 0.  0.
    5000000    2    1    2    0    0 -0.23511709862E+03  0.37815519475E+03 -0.14956385378E+04  0.16719105652E+04  0.60005741481E+03 0.  0.
         23    2    4    4    0    0 -0.19933152815E+03  0.21036373530E+03 -0.14396631539E+04  0.14713482908E+04  0.90828613655E+02 0.  0.
         23    2    4    4    0    0 -0.35785570468E+02  0.16779145946E+03 -0.55975383928E+02  0.20056227443E+03  0.87506579171E+02 0.  0.
          2    1    3    3  502    0  0.12434352808E+03 -0.27718994414E+03 -0.27312880312E+03  0.40852774838E+03  0.00000000000E+00 0. -1.
         -2    1    3    3    0  502  0.11077357054E+03 -0.10096525061E+03 -0.10879929493E+03  0.18520813248E+03  0.00000000000E+00 0.  1.
         15    1    5    5    0    0 -0.68304112646E+00  0.40018312694E+01 -0.15816827459E+03  0.15823034479E+03  0.17770000000E+01 0. -1.
        -15    1    5    5    0    0 -0.19864848702E+03  0.20636190403E+03 -0.12814948793E+04  0.13131179460E+04  0.17770000000E+01 0.  1.
          3    1    6    6  503    0 -0.26544037584E+02  0.72715873931E+02  0.18319979342E+02  0.79547507163E+02  0.00000000000E+00 0. -1.
         -3    1    6    6    0  503 -0.92415328840E+01  0.95075585525E+02 -0.74295363270E+02  0.12101476727E+03  0.00000000000E+00 0.  1.
<mgrwt>
<rscale>  0 0.45874594E+03</rscale>
<asrwt>0</asrwt>
<pdfrwt beam="1">  1        2 0.31870871E+00 0.45874594E+03</pdfrwt>
<pdfrwt beam="2">  1       -2 0.29852292E-01 0.45874594E+03</pdfrwt>
<totfact> 0.67796602E+01</totfact>
</mgrwt>
</event>
<event>
12    1  0.8033771E-008  0.4978600E+03  0.7818608E-02  0.1014339E+00
          2   -1    0    0  501    0  0.00000000000E+00  0.00000000000E+00  0.10640917072E+04  0.10640917072E+04  0.00000000000E+00 0. -1.
         -2   -1    0    0    0  501 -0.00000000000E+00 -0.00000000000E+00 -0.55057822108E+03  0.55057822108E+03  0.00000000000E+00 0.  1.
         23    2    1    2    0    0  0.30426575137E+03  0.33873125159E+03  0.69873216576E+03  0.83896694029E+03  0.91227074736E+02 0.  0.
    5000000    2    1    2    0    0 -0.30426575137E+03 -0.33873125159E+03 -0.18521867969E+03  0.77570298795E+03  0.60007720999E+03 0.  0.
         23    2    4    4    0    0 -0.20414308185E+03 -0.33607467200E+02  0.17331443918E+03  0.28497170568E+03  0.91471954672E+02 0.  0.
         23    2    4    4    0    0 -0.10012266952E+03 -0.30512378439E+03 -0.35853311887E+03  0.49073128227E+03  0.95635356000E+02 0.  0.
          4    1    3    3  502    0  0.12521014990E+03  0.17742037798E+03  0.39996693107E+03  0.45511440113E+03  0.00000000000E+00 0.  1.
         -4    1    3    3    0  502  0.17905560146E+03  0.16131087362E+03  0.29876523469E+03  0.38385253916E+03  0.00000000000E+00 0. -1.
         15    1    5    5    0    0 -0.86742908223E+02  0.15628236662E+02  0.29651669509E+02  0.93010500170E+02  0.17770000000E+01 0. -1.
        -15    1    5    5    0    0 -0.11740017362E+03 -0.49235703862E+02  0.14366276967E+03  0.19196120551E+03  0.17770000000E+01 0.  1.
          2    1    6    6  503    0 -0.10331500163E+02 -0.63190561704E+02 -0.13462082430E+03  0.14907230903E+03  0.00000000000E+00 0. -1.
         -2    1    6    6    0  503 -0.89791169359E+02 -0.24193322269E+03 -0.22391229457E+03  0.34165897324E+03  0.00000000000E+00 0.  1.
<mgrwt>
<rscale>  0 0.49785999E+03</rscale>
<asrwt>0</asrwt>
<pdfrwt beam="1">  1        2 0.16370642E+00 0.49785999E+03</pdfrwt>
<pdfrwt beam="2">  1       -2 0.84704342E-01 0.49785999E+03</pdfrwt>
<totfact> 0.29215987E+01</totfact>
</mgrwt>
</event>
<event>
12    1  0.8033771E-008  0.1038405E+04  0.7818608E-02  0.9267398E-01
         -1   -1    0    0    0  501 -0.00000000000E+00  0.00000000000E+00  0.65060008706E+03  0.65060008706E+03  0.00000000000E+00 0.  1.
          1   -1    0    0  501    0  0.00000000000E+00 -0.00000000000E+00 -0.17650956025E+04  0.17650956025E+04  0.00000000000E+00 0. -1.
         23    2    1    2    0    0  0.58185170867E+03  0.79528248027E+03 -0.54095661177E+03  0.11278186847E+04  0.91188241847E+02 0.  0.
    5000000    2    1    2    0    0 -0.58185170867E+03 -0.79528248027E+03 -0.57353890371E+03  0.12878770049E+04  0.59887784342E+03 0.  0.
         23    2    4    4    0    0 -0.10485185561E+03 -0.51051014988E+03 -0.73231502051E+02  0.53410475526E+03  0.91052248432E+02 0.  0.
         23    2    4    4    0    0 -0.47699985306E+03 -0.28477233040E+03 -0.50030740166E+03  0.75377224963E+03  0.96129954626E+02 0.  0.
          4    1    3    3  502    0  0.23767891561E+03  0.39334962975E+03 -0.22776145402E+03  0.51292346221E+03  0.00000000000E+00 0.  1.
         -4    1    3    3    0  502  0.34417279306E+03  0.40193285052E+03 -0.31319515775E+03  0.61489522250E+03  0.00000000000E+00 0. -1.
         15    1    5    5    0    0 -0.48948624757E+02 -0.41867404154E+03 -0.59118063777E+02  0.42565481804E+03  0.17770000000E+01 0. -1.
        -15    1    5    5    0    0 -0.55903230852E+02 -0.91836108337E+02 -0.14113438274E+02  0.10844993722E+03  0.17770000000E+01 0.  1.
          1    1    6    6  503    0 -0.18627545680E+03 -0.14703623268E+03 -0.16461205066E+03  0.28881711644E+03  0.00000000000E+00 0. -1.
         -1    1    6    6    0  503 -0.29072439626E+03 -0.13773609772E+03 -0.33569535100E+03  0.46495513319E+03  0.00000000000E+00 0.  1.
<mgrwt>
<rscale>  0 0.10384049E+04</rscale>
<asrwt>0</asrwt>
<pdfrwt beam="1">  1        1 0.27155317E+00 0.10384049E+04</pdfrwt>
<pdfrwt beam="2">  1       -1 0.10009232E+00 0.10384049E+04</pdfrwt>
<totfact> 0.41064116E+00</totfact>
</mgrwt>
</event>
<event>
12    1  0.8033771E-008  0.1344347E+04  0.7818608E-02  0.8995119E-01
         -1   -1    0    0    0  501 -0.00000000000E+00  0.00000000000E+00  0.59679251953E+03  0.59679251953E+03  0.00000000000E+00 0.  1.
          1   -1    0    0  501    0  0.00000000000E+00 -0.00000000000E+00 -0.33919813595E+04  0.33919813595E+04  0.00000000000E+00 0. -1.
         23    2    1    2    0    0  0.34760464768E+03 -0.12388278190E+04 -0.19448848890E+04  0.23339003941E+04  0.94818045267E+02 0.  0.
    5000000    2    1    2    0    0 -0.34760464768E+03  0.12388278190E+04 -0.85030395100E+03  0.16548734850E+04  0.60005506903E+03 0.  0.
         23    2    4    4    0    0  0.10415167565E+02  0.91569022584E+03 -0.46630320758E+03  0.10314808585E+04  0.88977607937E+02 0.  0.
         23    2    4    4    0    0 -0.35801981525E+03  0.32313759321E+03 -0.38400074343E+03  0.62339262645E+03  0.92551085912E+02 0.  0.
          1    1    3    3  502    0  0.18783675912E+03 -0.49968336601E+03 -0.78891219348E+03  0.95254845723E+03  0.00000000000E+00 0. -1.
         -1    1    3    3    0  502  0.15976788857E+03 -0.73914445304E+03 -0.11559726955E+04  0.13813519369E+04  0.00000000000E+00 0.  1.
         15    1    5    5    0    0  0.51955246341E+00  0.39339764780E+03 -0.15147287666E+03  0.42155565388E+03  0.17770000000E+01 0. -1.
        -15    1    5    5    0    0  0.98956151015E+01  0.52229257804E+03 -0.31483033092E+03  0.60992520465E+03  0.17770000000E+01 0.  1.
          4    1    6    6  503    0 -0.18524837665E+03  0.15122043813E+03 -0.24701021944E+03  0.34380027701E+03  0.00000000000E+00 0. -1.
         -4    1    6    6    0  503 -0.17277143860E+03  0.17191715508E+03 -0.13699052398E+03  0.27959234944E+03  0.00000000000E+00 0.  1.
<mgrwt>
<rscale>  0 0.13443467E+04</rscale>
<asrwt>0</asrwt>
<pdfrwt beam="1">  1        1 0.52184329E+00 0.13443467E+04</pdfrwt>
<pdfrwt beam="2">  1       -1 0.91814233E-01 0.13443467E+04</pdfrwt>
<totfact> 0.34466543E-01</totfact>
</mgrwt>
</event>
<event>
12    1  0.8033771E-008  0.7665395E+03  0.7818608E-02  0.9609754E-01
         -2   -1    0    0    0  501 -0.00000000000E+00  0.00000000000E+00  0.94551403135E+03  0.94551403135E+03  0.00000000000E+00 0. -1.
          2   -1    0    0  501    0  0.00000000000E+00 -0.00000000000E+00 -0.72043902691E+03  0.72043902691E+03  0.00000000000E+00 0.  1.
         23    2    1    2    0    0  0.48097581050E+03  0.45699303339E+03 -0.16547802925E+03  0.68986663584E+03  0.91392747124E+02 0.  0.
    5000000    2    1    2    0    0 -0.48097581050E+03 -0.45699303339E+03  0.39055303369E+03  0.97608642242E+03  0.60002722360E+03 0.  0.
         23    2    4    4    0    0 -0.59044129600E+03 -0.35510875529E+03  0.21443309369E+03  0.72726965099E+03  0.90644588758E+02 0.  0.
         23    2    4    4    0    0  0.10946548550E+03 -0.10188427810E+03  0.17611994000E+03  0.24881677144E+03  0.92349628269E+02 0.  0.
          1    1    3    3  502    0  0.12663887101E+03  0.17334425868E+03 -0.72239237894E+02  0.22650417912E+03  0.00000000000E+00 0. -1.
         -1    1    3    3    0  502  0.35433693949E+03  0.28364877471E+03 -0.93238791357E+02  0.46336245672E+03  0.00000000000E+00 0.  1.
         15    1    5    5    0    0 -0.27879919232E+03 -0.15617002678E+03  0.14566967110E+03  0.35119919947E+03  0.17770000000E+01 0.  1.
        -15    1    5    5    0    0 -0.31164210369E+03 -0.19893872851E+03  0.68763422595E+02  0.37607045152E+03  0.17770000000E+01 0. -1.
          4    1    6    6  503    0  0.41753915187E+02  0.11367803219E+02  0.52147506804E+02  0.67764141323E+02  0.00000000000E+00 0. -1.
         -4    1    6    6    0  503  0.67711570316E+02 -0.11325208132E+03  0.12397243320E+03  0.18105263011E+03  0.00000000000E+00 0.  1.
<mgrwt>
<rscale>  0 0.76653946E+03</rscale>
<asrwt>0</asrwt>
<pdfrwt beam="1">  1        2 0.11083677E+00 0.76653946E+03</pdfrwt>
<pdfrwt beam="2">  1       -2 0.14546370E+00 0.76653946E+03</pdfrwt>
<totfact> 0.13006047E+01</totfact>
</mgrwt>
</event>
<event>
12    1  0.8335954E-008  0.1406039E+04  0.7818608E-02  0.8949459E-01
          1   -1    0    0  501    0  0.00000000000E+00  0.00000000000E+00  0.21466027774E+04  0.21466027774E+04  0.00000000000E+00 0. -1.
         -1   -1    0    0    0  501 -0.00000000000E+00 -0.00000000000E+00 -0.96234281292E+03  0.96234281292E+03  0.00000000000E+00 0.  1.
         23    2    1    2    0    0 -0.96541297276E+03 -0.94561357182E+03  0.83226505340E+03  0.15891390644E+04  0.80564333250E+02 0.  0.
    5000000    2    1    2    0    0  0.96541297276E+03  0.94561357182E+03  0.35199491110E+03  0.15198065259E+04  0.59975346897E+03 0.  0.
         23    2    4    4    0    0  0.69420562369E+03  0.94320510877E+03  0.18709639839E+03  0.11896182068E+04  0.92892897828E+02 0.  0.
         23    2    4    4    0    0  0.27120734907E+03  0.24084630540E+01  0.16489851271E+03  0.33018831911E+03  0.90959219969E+02 0.  0.
          3    1    3    3  502    0 -0.40069127385E+03 -0.34064653361E+03  0.30807413318E+03  0.60951064744E+03  0.00000000000E+00 0. -1.
         -3    1    3    3    0  502 -0.56472169891E+03 -0.60496703821E+03  0.52419092021E+03  0.97962841699E+03  0.00000000000E+00 0.  1.
         15    1    5    5    0    0  0.38365367166E+03  0.46503732904E+03  0.63467466053E+02  0.60620222216E+03  0.17770000000E+01 0. -1.
        -15    1    5    5    0    0  0.31055195203E+03  0.47816777973E+03  0.12362893233E+03  0.58341598463E+03  0.17770000000E+01 0.  1.
          1    1    6    6  503    0  0.16764398497E+03 -0.42042255106E+02  0.89935976567E+02  0.19483463961E+03  0.00000000000E+00 0. -1.
         -1    1    6    6    0  503  0.10356336411E+03  0.44450718160E+02  0.74962536144E+02  0.13535367950E+03  0.00000000000E+00 0.  1.
<mgrwt>
<rscale>  0 0.14060392E+04</rscale>
<asrwt>0</asrwt>
<pdfrwt beam="1">  1        1 0.33024658E+00 0.14060392E+04</pdfrwt>
<pdfrwt beam="2">  1       -1 0.14805274E+00 0.14060392E+04</pdfrwt>
<totfact> 0.82156528E-01</totfact>
</mgrwt>
</event>
<event>
12    1  0.8033771E-008  0.1456786E+04  0.7818608E-02  0.8913709E-01
          1   -1    0    0  501    0  0.00000000000E+00  0.00000000000E+00  0.35486168780E+04  0.35486168780E+04  0.00000000000E+00 0. -1.
         -1   -1    0    0    0  501 -0.00000000000E+00 -0.00000000000E+00 -0.66050695372E+03  0.66050695372E+03  0.00000000000E+00 0.  1.
         23    2    1    2    0    0 -0.95708829928E+03 -0.10835599939E+04  0.10217380526E+04  0.17732595214E+04  0.10188429396E+03 0.  0.
    5000000    2    1    2    0    0  0.95708829928E+03  0.10835599939E+04  0.18663718717E+04  0.24358643103E+04  0.59997558427E+03 0.  0.
         23    2    4    4    0    0  0.56465124859E+03  0.49111866232E+03  0.13716895496E+04  0.15652767098E+04  0.92360082504E+02 0.  0.
         23    2    4    4    0    0  0.39243705070E+03  0.59244133154E+03  0.49468232218E+03  0.87058760052E+03  0.90656495774E+02 0.  0.
          2    1    3    3  502    0 -0.67863190543E+03 -0.73678229167E+03  0.75836172454E+03  0.12563844609E+04  0.00000000000E+00 0. -1.
         -2    1    3    3    0  502 -0.27845639385E+03 -0.34677770219E+03  0.26337632803E+03  0.51687506051E+03  0.00000000000E+00 0.  1.
         15    1    5    5    0    0  0.21442344558E+03  0.13789859400E+03  0.41657922573E+03  0.48840029205E+03  0.17770000000E+01 0.  1.
        -15    1    5    5    0    0  0.35022780301E+03  0.35322006832E+03  0.95511032383E+03  0.10768764177E+04  0.17770000000E+01 0. -1.
          2    1    6    6  503    0  0.15056029188E+03  0.16295227406E+03  0.12694085093E+03  0.25560873370E+03  0.00000000000E+00 0. -1.
         -2    1    6    6    0  503  0.24187675882E+03  0.42948905748E+03  0.36774147125E+03  0.61497886682E+03  0.00000000000E+00 0.  1.
<mgrwt>
<rscale>  0 0.14567860E+04</rscale>
<asrwt>0</asrwt>
<pdfrwt beam="1">  1        1 0.54594105E+00 0.14567860E+04</pdfrwt>
<pdfrwt beam="2">  1       -1 0.10161646E+00 0.14567860E+04</pdfrwt>
<totfact> 0.20349689E-01</totfact>
</mgrwt>
</event>
<event>
12    1  0.8033771E-008  0.6571197E+03  0.7818608E-02  0.9793511E-01
         -2   -1    0    0    0  501 -0.00000000000E+00  0.00000000000E+00  0.99154802876E+03  0.99154802876E+03  0.00000000000E+00 0.  1.
          2   -1    0    0  501    0  0.00000000000E+00 -0.00000000000E+00 -0.84737348389E+03  0.84737348389E+03  0.00000000000E+00 0. -1.
         23    2    1    2    0    0 -0.36915853318E+03 -0.37668984767E+03  0.68929534316E+03  0.87313257326E+03  0.95179600827E+02 0.  0.
    5000000    2    1    2    0    0  0.36915853318E+03  0.37668984767E+03 -0.54512079829E+03  0.96578893939E+03  0.59784473466E+03 0.  0.
         23    2    4    4    0    0 -0.12033753499E+03  0.21882809490E+03 -0.24706526744E+03  0.36295438978E+03  0.91256699667E+02 0.  0.
         23    2    4    4    0    0  0.48949606818E+03  0.15786175277E+03 -0.29805553085E+03  0.60283454962E+03  0.10022804494E+03 0.  0.
          1    1    3    3  502    0 -0.23913531003E+03 -0.30261863224E+03  0.47773616971E+03  0.61399965874E+03  0.00000000000E+00 0.  1.
         -1    1    3    3    0  502 -0.13002322315E+03 -0.74071215436E+02  0.21155917346E+03  0.25913291452E+03  0.00000000000E+00 0. -1.
         15    1    5    5    0    0 -0.77512255313E+02  0.58983767300E+02 -0.66091157603E+02  0.11772184747E+03  0.17770000000E+01 0.  1.
        -15    1    5    5    0    0 -0.42825279681E+02  0.15984432760E+03 -0.18097410984E+03  0.24523254231E+03  0.17770000000E+01 0. -1.
          4    1    6    6  503    0  0.13716789369E+03  0.24915226949E+02 -0.35798593834E+02  0.14393518997E+03  0.00000000000E+00 0.  1.
         -4    1    6    6    0  503  0.35232817449E+03  0.13294652582E+03 -0.26225693702E+03  0.45889935964E+03  0.00000000000E+00 0. -1.
<mgrwt>
<rscale>  0 0.65711970E+03</rscale>
<asrwt>0</asrwt>
<pdfrwt beam="1">  1        2 0.13036515E+00 0.65711970E+03</pdfrwt>
<pdfrwt beam="2">  1       -2 0.15254585E+00 0.65711970E+03</pdfrwt>
<totfact> 0.93936256E+00</totfact>
</mgrwt>
</event>
<event>
12    1  0.8033771E-008  0.5138123E+03  0.7818608E-02  0.1010235E+00
          1   -1    0    0  501    0  0.00000000000E+00  0.00000000000E+00  0.11240445930E+04  0.11240445930E+04  0.00000000000E+00 0. -1.
         -1   -1    0    0    0  501 -0.00000000000E+00 -0.00000000000E+00 -0.67455476009E+03  0.67455476009E+03  0.00000000000E+00 0.  1.
         23    2    1    2    0    0 -0.44924176406E+03  0.18137857997E+03  0.80929276864E+03  0.94765982850E+03  0.91586097886E+02 0.  0.
    5000000    2    1    2    0    0  0.44924176406E+03 -0.18137857997E+03 -0.35980293573E+03  0.85093952459E+03  0.59993630503E+03 0.  0.
         23    2    4    4    0    0  0.43201122264E+03 -0.18416375768E+03 -0.49393687680E+03  0.68777031530E+03  0.92219207432E+02 0.  0.
         23    2    4    4    0    0  0.17230541423E+02  0.27851777030E+01  0.13413394107E+03  0.16316920929E+03  0.91255837848E+02 0.  0.
          3    1    3    3  502    0 -0.19339988040E+02  0.30589772492E+02  0.79337379848E+02  0.87202002039E+02  0.00000000000E+00 0. -1.
         -3    1    3    3    0  502 -0.42990177602E+03  0.15078880748E+03  0.72995538879E+03  0.86045782646E+03  0.00000000000E+00 0.  1.
         15    1    5    5    0    0  0.30103725222E+03 -0.14704892402E+03 -0.29316295785E+03  0.44519039844E+03  0.17770000000E+01 0. -1.
        -15    1    5    5    0    0  0.13097397042E+03 -0.37114833658E+02 -0.20077391895E+03  0.24257991686E+03  0.17770000000E+01 0.  1.
          4    1    6    6  503    0  0.40864624677E+02 -0.99425268065E-01  0.13321512889E+03  0.13934201807E+03  0.00000000000E+00 0. -1.
         -4    1    6    6    0  503 -0.23634083254E+02  0.28846029710E+01  0.91881217861E+00  0.23827191219E+02  0.00000000000E+00 0.  1.
<mgrwt>
<rscale>  0 0.51381230E+03</rscale>
<asrwt>0</asrwt>
<pdfrwt beam="1">  1        1 0.17292994E+00 0.51381230E+03</pdfrwt>
<pdfrwt beam="2">  1       -1 0.10377766E+00 0.51381230E+03</pdfrwt>
<totfact> 0.11441005E+01</totfact>
</mgrwt>
</event>
<event>
12    1  0.8464020E-008  0.1686027E+04  0.7818608E-02  0.8769374E-01
         -2   -1    0    0    0  501 -0.00000000000E+00  0.00000000000E+00  0.15503224660E+04  0.15503224660E+04  0.00000000000E+00 0.  1.
          2   -1    0    0  501    0  0.00000000000E+00 -0.00000000000E+00 -0.19839964720E+04  0.19839964720E+04  0.00000000000E+00 0. -1.
         23    2    1    2    0    0 -0.15309001167E+04 -0.60956379077E+03  0.21583685705E+03  0.16643242601E+04  0.90368752067E+02 0.  0.
    5000000    2    1    2    0    0  0.15309001167E+04  0.60956379077E+03 -0.64951086303E+03  0.18699946779E+04  0.59982710159E+03 0.  0.
         23    2    4    4    0    0  0.77689151350E+03  0.56603270107E+03 -0.52539023092E+03  0.10992654198E+04  0.91630377044E+02 0.  0.
         23    2    4    4    0    0  0.75400860323E+03  0.43531089696E+02 -0.12412063211E+03  0.77072925811E+03  0.90519216062E+02 0.  0.
          3    1    3    3  502    0 -0.89208864510E+03 -0.40238271489E+03  0.13510557668E+03  0.98792080493E+03  0.00000000000E+00 0. -1.
         -3    1    3    3    0  502 -0.63881147163E+03 -0.20718107588E+03  0.80731280370E+02  0.67640345514E+03  0.00000000000E+00 0.  1.
         15    1    5    5    0    0  0.27072081483E+03  0.19983724569E+03 -0.13494394478E+03  0.36254339093E+03  0.17770000000E+01 0. -1.
        -15    1    5    5    0    0  0.50617069867E+03  0.36619545538E+03 -0.39044628613E+03  0.73672202887E+03  0.17770000000E+01 0.  1.
          2    1    6    6  503    0  0.43056778266E+03  0.69421087574E+02 -0.76173177469E+02  0.44273045505E+03  0.00000000000E+00 0. -1.
         -2    1    6    6    0  503  0.32344082057E+03 -0.25889997878E+02 -0.47947454646E+02  0.32799880306E+03  0.00000000000E+00 0.  1.
<mgrwt>
<rscale>  0 0.16860266E+04</rscale>
<asrwt>0</asrwt>
<pdfrwt beam="1">  1        2 0.30523023E+00 0.16860266E+04</pdfrwt>
<pdfrwt beam="2">  1       -2 0.23851115E+00 0.16860266E+04</pdfrwt>
<totfact> 0.47497724E-01</totfact>
</mgrwt>
</event>
<event>
12    1  0.8033771E-008  0.1129988E+04  0.7818608E-02  0.9176446E-01
          2   -1    0    0  501    0  0.00000000000E+00  0.00000000000E+00  0.13162865672E+04  0.13162865672E+04  0.00000000000E+00 0. -1.
         -2   -1    0    0    0  501 -0.00000000000E+00 -0.00000000000E+00 -0.11868233858E+04  0.11868233858E+04  0.00000000000E+00 0.  1.
         23    2    1    2    0    0  0.79579875974E+03  0.72190225824E+03  0.54080298740E+03  0.12055768434E+04  0.80679103305E+02 0.  0.
    5000000    2    1    2    0    0 -0.79579875974E+03 -0.72190225824E+03 -0.41133980602E+03  0.12975331096E+04  0.59996099699E+03 0.  0.
         23    2    4    4    0    0 -0.72807526752E+03 -0.36366072438E+03 -0.42138184900E+03  0.92180582895E+03  0.99098970666E+02 0.  0.
         23    2    4    4    0    0 -0.67723492226E+02 -0.35824153386E+03  0.10042042977E+02  0.37572728061E+03  0.90258954030E+02 0.  0.
          3    1    3    3  502    0  0.47870797589E+03  0.39121877835E+03  0.33737001176E+03  0.70429538090E+03  0.00000000000E+00 0. -1.
         -3    1    3    3    0  502  0.31709078385E+03  0.33068347990E+03  0.20343297563E+03  0.50128146251E+03  0.00000000000E+00 0.  1.
         15    1    5    5    0    0 -0.57403328816E+03 -0.32678176850E+03 -0.35682077222E+03  0.75074946643E+03  0.17770000000E+01 0.  1.
        -15    1    5    5    0    0 -0.15404197936E+03 -0.36878955882E+02 -0.64561076780E+02  0.17105636251E+03  0.17770000000E+01 0. -1.
          4    1    6    6  503    0 -0.20333317803E+02 -0.90606755007E+02  0.42264056580E+02  0.10202587096E+03  0.00000000000E+00 0. -1.
         -4    1    6    6    0  503 -0.47390174423E+02 -0.26763477886E+03 -0.32222013602E+02  0.27370140965E+03  0.00000000000E+00 0.  1.
<mgrwt>
<rscale>  0 0.11299884E+04</rscale>
<asrwt>0</asrwt>
<pdfrwt beam="1">  1        2 0.20250563E+00 0.11299884E+04</pdfrwt>
<pdfrwt beam="2">  1       -2 0.18258821E+00 0.11299884E+04</pdfrwt>
<totfact> 0.27519620E+00</totfact>
</mgrwt>
</event>
<event>
12    1  0.8033771E-008  0.7779468E+03  0.7818608E-02  0.9592498E-01
          2   -1    0    0  501    0  0.00000000000E+00  0.00000000000E+00  0.67967993811E+03  0.67967993811E+03  0.00000000000E+00 0.  1.
         -2   -1    0    0    0  501 -0.00000000000E+00 -0.00000000000E+00 -0.97683731514E+03  0.97683731514E+03  0.00000000000E+00 0. -1.
         23    2    1    2    0    0 -0.34735002943E+03  0.57252880138E+03 -0.33919544634E+03  0.75622888740E+03  0.91582247095E+02 0.  0.
    5000000    2    1    2    0    0  0.34735002943E+03 -0.57252880138E+03  0.42038069307E+02  0.90028836585E+03  0.60025883673E+03 0.  0.
         23    2    4    4    0    0  0.13017542261E+03  0.89815957845E+02  0.72424842188E+02  0.19665683769E+03  0.91738798270E+02 0.  0.
         23    2    4    4    0    0  0.21717460681E+03 -0.66234475922E+03 -0.30386772881E+02  0.70363152816E+03  0.91151420994E+02 0.  0.
          1    1    3    3  502    0 -0.24766086310E+03  0.45611942267E+03 -0.22806388302E+03  0.56691618921E+03  0.00000000000E+00 0. -1.
         -1    1    3    3    0  502 -0.99689166329E+02  0.11640937871E+03 -0.11113156331E+03  0.18931269820E+03  0.00000000000E+00 0.  1.
         15    1    5    5    0    0 -0.10790392916E+02  0.21644872255E+02  0.20267279830E+02  0.31604642616E+02  0.17770000000E+01 0.  1.
        -15    1    5    5    0    0  0.14096581553E+03  0.68171085591E+02  0.52157562357E+02  0.16505219507E+03  0.17770000000E+01 0. -1.
          3    1    6    6  503    0  0.83191677436E+02 -0.39574224422E+03 -0.90430069894E+01  0.40449296042E+03  0.00000000000E+00 0. -1.
         -3    1    6    6    0  503  0.13398292938E+03 -0.26660251500E+03 -0.21343765891E+02  0.29913856774E+03  0.00000000000E+00 0.  1.
<mgrwt>
<rscale>  0 0.77794679E+03</rscale>
<asrwt>0</asrwt>
<pdfrwt beam="1">  1        2 0.10456614E+00 0.77794679E+03</pdfrwt>
<pdfrwt beam="2">  1       -2 0.15028266E+00 0.77794679E+03</pdfrwt>
<totfact> 0.12833009E+01</totfact>
</mgrwt>
</event>
<event>
12    1  0.8033771E-008  0.7689372E+03  0.7818608E-02  0.9606100E-01
          1   -1    0    0  501    0  0.00000000000E+00  0.00000000000E+00  0.81058740339E+03  0.81058740339E+03  0.00000000000E+00 0. -1.
         -1   -1    0    0    0  501 -0.00000000000E+00 -0.00000000000E+00 -0.25982945624E+04  0.25982945624E+04  0.00000000000E+00 0.  1.
         23    2    1    2    0    0  0.12788342807E+03  0.69604252962E+03 -0.22584284861E+04  0.23684602879E+04  0.90969962694E+02 0.  0.
    5000000    2    1    2    0    0 -0.12788342807E+03 -0.69604252962E+03  0.47072132709E+03  0.10404216779E+04  0.60005776884E+03 0.  0.
         23    2    4    4    0    0 -0.40392487633E+02  0.23303073456E+02 -0.77164388742E+02  0.12756268576E+03  0.90240288229E+02 0.  0.
         23    2    4    4    0    0 -0.87490940434E+02 -0.71934560307E+03  0.54788571583E+03  0.91285899218E+03  0.89554568111E+02 0.  0.
          3    1    3    3  502    0  0.61574773626E+02  0.19087094050E+03 -0.53773418269E+03  0.57391743300E+03  0.00000000000E+00 0. -1.
         -3    1    3    3    0  502  0.66308654440E+02  0.50517158911E+03 -0.17206943035E+04  0.17945428549E+04  0.00000000000E+00 0.  1.
         15    1    5    5    0    0  0.23642978282E+02  0.26983126102E+02 -0.38471192218E+02  0.52633353266E+02  0.17770000000E+01 0. -1.
        -15    1    5    5    0    0 -0.64035465915E+02 -0.36800526462E+01 -0.38693196524E+02  0.74929332498E+02  0.17770000000E+01 0.  1.
          4    1    6    6  503    0  0.11090946550E+02 -0.95204537019E+02  0.98780732201E+02  0.13763918780E+03  0.00000000000E+00 0. -1.
         -4    1    6    6    0  503 -0.98581886984E+02 -0.62414106605E+03  0.44910498363E+03  0.77521980438E+03  0.00000000000E+00 0.  1.
<mgrwt>
<rscale>  0 0.76893724E+03</rscale>
<asrwt>0</asrwt>
<pdfrwt beam="1">  1        1 0.12470575E+00 0.76893724E+03</pdfrwt>
<pdfrwt beam="2">  1       -1 0.39973763E+00 0.76893724E+03</pdfrwt>
<totfact> 0.16702574E-01</totfact>
</mgrwt>
</event>
<event>
12    1  0.8033771E-008  0.5292579E+03  0.7818608E-02  0.1006412E+00
          1   -1    0    0  501    0  0.00000000000E+00  0.00000000000E+00  0.26268433708E+03  0.26268433708E+03  0.00000000000E+00 0. -1.
         -1   -1    0    0    0  501 -0.00000000000E+00 -0.00000000000E+00 -0.33140744908E+04  0.33140744908E+04  0.00000000000E+00 0.  1.
         23    2    1    2    0    0 -0.14455359066E+03  0.36832556995E+03 -0.27780125385E+04  0.28075399989E+04  0.91475214337E+02 0.  0.
    5000000    2    1    2    0    0  0.14455359066E+03 -0.36832556995E+03 -0.27337761517E+03  0.76921882901E+03  0.60033558980E+03 0.  0.
         23    2    4    4    0    0 -0.19165983243E+03 -0.51489080954E+02  0.13495553360E+02  0.21788318888E+03  0.88917586626E+02 0.  0.
         23    2    4    4    0    0  0.33621342309E+03 -0.31683648899E+03 -0.28687316853E+03  0.55133564013E+03  0.90829216838E+02 0.  0.
          2    1    3    3  502    0 -0.40026490039E+02  0.11640720590E+03 -0.11817847492E+04  0.11881784171E+04  0.00000000000E+00 0. -1.
         -2    1    3    3    0  502 -0.10452710062E+03  0.25191836405E+03 -0.15962277893E+04  0.16193615817E+04  0.00000000000E+00 0.  1.
         15    1    5    5    0    0 -0.15762675294E+03 -0.37560131261E+02  0.46340518351E+02  0.16854541842E+03  0.17770000000E+01 0. -1.
        -15    1    5    5    0    0 -0.34033079496E+02 -0.13928949693E+02 -0.32844964991E+02  0.49337770458E+02  0.17770000000E+01 0.  1.
          3    1    6    6  503    0  0.15339466020E+03 -0.11667670959E+03 -0.73178529712E+02  0.20615157906E+03  0.00000000000E+00 0. -1.
         -3    1    6    6    0  503  0.18281876288E+03 -0.20015977940E+03 -0.21369463882E+03  0.34518406107E+03  0.00000000000E+00 0.  1.
<mgrwt>
<rscale>  0 0.52925788E+03</rscale>
<asrwt>0</asrwt>
<pdfrwt beam="1">  1        1 0.40412975E-01 0.52925788E+03</pdfrwt>
<pdfrwt beam="2">  1       -1 0.50985762E+00 0.52925788E+03</pdfrwt>
<totfact> 0.14975482E-01</totfact>
</mgrwt>
</event>
<event>
12    1  0.8033771E-008  0.9862141E+03  0.7818608E-02  0.9323796E-01
          1   -1    0    0  501    0  0.00000000000E+00  0.00000000000E+00  0.14498059529E+04  0.14498059529E+04  0.00000000000E+00 0. -1.
         -1   -1    0    0    0  501 -0.00000000000E+00 -0.00000000000E+00 -0.79189160522E+03  0.79189160522E+03  0.00000000000E+00 0.  1.
         23    2    1    2    0    0  0.80174128405E+03  0.43548194884E+03  0.69264186574E+03  0.11492722132E+04  0.92952953539E+02 0.  0.
    5000000    2    1    2    0    0 -0.80174128405E+03 -0.43548194884E+03 -0.34727518039E+02  0.10924253449E+04  0.59979456433E+03 0.  0.
         23    2    4    4    0    0  0.56400590840E+02 -0.12161809117E+02 -0.84235388339E+02  0.12992932165E+03  0.80356031056E+02 0.  0.
         23    2    4    4    0    0 -0.85814187489E+03 -0.42332013972E+03  0.49507870300E+02  0.96249602327E+03  0.91324407832E+02 0.  0.
          3    1    3    3  502    0  0.57009815009E+03  0.27259257968E+03  0.44261694080E+03  0.77151044809E+03  0.00000000000E+00 0. -1.
         -3    1    3    3    0  502  0.23164313396E+03  0.16288936916E+03  0.25002492493E+03  0.37776176512E+03  0.00000000000E+00 0.  1.
         15    1    5    5    0    0  0.68697664996E+02 -0.30255418021E+02 -0.53650611621E+02  0.92283830392E+02  0.17770000000E+01 0. -1.
        -15    1    5    5    0    0 -0.12297074156E+02  0.18093608904E+02 -0.30584776718E+02  0.37645491255E+02  0.17770000000E+01 0.  1.
          1    1    6    6  503    0 -0.66455990639E+03 -0.36458749838E+03  0.56286613856E+02  0.76008690033E+03  0.00000000000E+00 0. -1.
         -1    1    6    6    0  503 -0.19358196850E+03 -0.58732641346E+02 -0.67787435564E+01  0.20240912294E+03  0.00000000000E+00 0.  1.
<mgrwt>
<rscale>  0 0.98621407E+03</rscale>
<asrwt>0</asrwt>
<pdfrwt beam="1">  1        1 0.22304707E+00 0.98621407E+03</pdfrwt>
<pdfrwt beam="2">  1       -1 0.12182948E+00 0.98621407E+03</pdfrwt>
<totfact> 0.42572033E+00</totfact>
</mgrwt>
</event>
<event>
12    1  0.8033771E-008  0.5465915E+03  0.7818608E-02  0.1002286E+00
         -2   -1    0    0    0  501 -0.00000000000E+00  0.00000000000E+00  0.64553388298E+03  0.64553388298E+03  0.00000000000E+00 0.  1.
          2   -1    0    0  501    0  0.00000000000E+00 -0.00000000000E+00 -0.15007099002E+04  0.15007099002E+04  0.00000000000E+00 0. -1.
         23    2    1    2    0    0  0.42257891988E+03 -0.11825853849E+03  0.45584974713E+03  0.63909702109E+03  0.89933224947E+02 0.  0.
    5000000    2    1    2    0    0 -0.42257891988E+03  0.11825853849E+03 -0.13110257643E+04  0.15071467621E+04  0.60012063970E+03 0.  0.
         23    2    4    4    0    0  0.56891136919E+02 -0.90351526423E+02 -0.69398112467E+02  0.15681885256E+03  0.91520788438E+02 0.  0.
         23    2    4    4    0    0 -0.47947005680E+03  0.20861006492E+03 -0.12416276519E+04  0.13503279095E+04  0.91304669931E+02 0.  0.
          4    1    3    3  502    0  0.32481558287E+03 -0.51626201998E+02  0.31879102342E+03  0.45803727383E+03  0.00000000000E+00 0. -1.
         -4    1    3    3    0  502  0.97763337014E+02 -0.66632336495E+02  0.13705872372E+03  0.18105974726E+03  0.00000000000E+00 0.  1.
         15    1    5    5    0    0  0.48407890619E+02 -0.33843946010E+02 -0.79200566054E+02  0.98816111783E+02  0.17770000000E+01 0. -1.
        -15    1    5    5    0    0  0.84832463000E+01 -0.56507580413E+02  0.98024535869E+01  0.58002740774E+02  0.17770000000E+01 0.  1.
          3    1    6    6  503    0 -0.25295622304E+03  0.15594492369E+03 -0.73893911439E+03  0.79645256279E+03  0.00000000000E+00 0. -1.
         -3    1    6    6    0  503 -0.22651383377E+03  0.52665141222E+02 -0.50268853748E+03  0.55387534672E+03  0.00000000000E+00 0.  1.
<mgrwt>
<rscale>  0 0.54659148E+03</rscale>
<asrwt>0</asrwt>
<pdfrwt beam="1">  1        2 0.23087844E+00 0.54659148E+03</pdfrwt>
<pdfrwt beam="2">  1       -2 0.99312906E-01 0.54659148E+03</pdfrwt>
<totfact> 0.11264878E+01</totfact>
</mgrwt>
</event>
<event>
12    1  0.8033771E-008  0.6598701E+03  0.7818608E-02  0.9788433E-01
         -4   -1    0    0    0  501 -0.00000000000E+00  0.00000000000E+00  0.78186359606E+03  0.78186359606E+03  0.00000000000E+00 0.  1.
          4   -1    0    0  501    0  0.00000000000E+00 -0.00000000000E+00 -0.70821260820E+03  0.70821260820E+03  0.00000000000E+00 0. -1.
         23    2    1    2    0    0  0.12936346704E+03 -0.54910293153E+03 -0.22410196688E+03  0.61433039301E+03  0.94505048552E+02 0.  0.
    5000000    2    1    2    0    0 -0.12936346704E+03  0.54910293153E+03  0.29775295474E+03  0.87574581125E+03  0.60002080619E+03 0.  0.
         23    2    4    4    0    0 -0.21181955996E+03  0.31934967621E+02 -0.51864487960E+02  0.23953864932E+03  0.93816156771E+02 0.  0.
         23    2    4    4    0    0  0.82456092917E+02  0.51716796391E+03  0.34961744270E+03  0.63620716193E+03  0.90914721041E+02 0.  0.
          3    1    3    3  502    0  0.52302396053E+02 -0.83144099311E+02 -0.22248052223E+02  0.10071473433E+03  0.00000000000E+00 0. -1.
         -3    1    3    3    0  502  0.77061070985E+02 -0.46595883222E+03 -0.20185391465E+03  0.51361565868E+03  0.00000000000E+00 0.  1.
         15    1    5    5    0    0 -0.73832780521E+02  0.29980083973E+02  0.22425896696E+02  0.82801953396E+02  0.17770000000E+01 0. -1.
        -15    1    5    5    0    0 -0.13798677943E+03  0.19548836482E+01 -0.74290384656E+02  0.15673669593E+03  0.17770000000E+01 0.  1.
          1    1    6    6  503    0 -0.20062334084E+02  0.89847643094E+02  0.62980919708E+02  0.11154233486E+03  0.00000000000E+00 0. -1.
         -1    1    6    6    0  503  0.10251842700E+03  0.42732032081E+03  0.28663652299E+03  0.52466482707E+03  0.00000000000E+00 0.  1.
<mgrwt>
<rscale>  0 0.65987012E+03</rscale>
<asrwt>0</asrwt>
<pdfrwt beam="1">  1        4 0.10895579E+00 0.65987012E+03</pdfrwt>
<pdfrwt beam="2">  1       -4 0.12028671E+00 0.65987012E+03</pdfrwt>
<totfact> 0.69041057E-01</totfact>
</mgrwt>
</event>
<event>
12    1  0.8033771E-008  0.6742958E+03  0.7818608E-02  0.9762228E-01
          2   -1    0    0  501    0  0.00000000000E+00  0.00000000000E+00  0.69065239716E+03  0.69065239716E+03  0.00000000000E+00 0. -1.
         -2   -1    0    0    0  501 -0.00000000000E+00 -0.00000000000E+00 -0.98334766420E+03  0.98334766420E+03  0.00000000000E+00 0.  1.
         23    2    1    2    0    0 -0.56821530268E+03 -0.75049001783E+02  0.30048737127E+03  0.65398930860E+03  0.94384175567E+02 0.  0.
    5000000    2    1    2    0    0  0.56821530268E+03  0.75049001783E+02 -0.59318263832E+03  0.10200107528E+04  0.60004609029E+03 0.  0.
         23    2    4    4    0    0  0.16722992181E+03 -0.21217125044E+03 -0.38006389710E+03  0.47506820190E+03  0.90877633729E+02 0.  0.
         23    2    4    4    0    0  0.40098538087E+03  0.28722025222E+03 -0.21311874121E+03  0.54494255086E+03  0.90873741682E+02 0.  0.
          1    1    3    3  502    0 -0.34822190552E+03 -0.23151443970E+02  0.13649718434E+03  0.37473452760E+03  0.00000000000E+00 0. -1.
         -1    1    3    3    0  502 -0.21999339716E+03 -0.51897557813E+02  0.16399018693E+03  0.27925478100E+03  0.00000000000E+00 0.  1.
         15    1    5    5    0    0  0.21604493080E+02 -0.82071088885E+02 -0.77420735047E+02  0.11488927581E+03  0.17770000000E+01 0.  1.
        -15    1    5    5    0    0  0.14562542873E+03 -0.13010016155E+03 -0.30264316206E+03  0.36017892609E+03  0.17770000000E+01 0. -1.
          4    1    6    6  503    0  0.20082827590E+03  0.15157355031E+03 -0.59725537411E+02  0.25859945354E+03  0.00000000000E+00 0.  1.
         -4    1    6    6    0  503  0.20015710497E+03  0.13564670191E+03 -0.15339320380E+03  0.28634309732E+03  0.00000000000E+00 0. -1.
<mgrwt>
<rscale>  0 0.67429578E+03</rscale>
<asrwt>0</asrwt>
<pdfrwt beam="1">  1        2 0.10625422E+00 0.67429578E+03</pdfrwt>
<pdfrwt beam="2">  1       -2 0.15128426E+00 0.67429578E+03</pdfrwt>
<totfact> 0.12497602E+01</totfact>
</mgrwt>
</event>
<event>
12    1  0.8033771E-008  0.1039489E+04  0.7818608E-02  0.9266263E-01
         -1   -1    0    0    0  501 -0.00000000000E+00  0.00000000000E+00  0.13881996692E+04  0.13881996692E+04  0.00000000000E+00 0.  1.
          1   -1    0    0  501    0  0.00000000000E+00 -0.00000000000E+00 -0.11406311515E+04  0.11406311515E+04  0.00000000000E+00 0. -1.
         23    2    1    2    0    0  0.37638429139E+03 -0.88685786105E+03 -0.57688301952E+03  0.11260097295E+04  0.83197910494E+02 0.  0.
    5000000    2    1    2    0    0 -0.37638429139E+03  0.88685786105E+03  0.82445153723E+03  0.14028210911E+04  0.60000389665E+03 0.  0.
         23    2    4    4    0    0 -0.50273362517E+03  0.53978999024E+03  0.44547696694E+03  0.86643978902E+03  0.90298662716E+02 0.  0.
         23    2    4    4    0    0  0.12634933378E+03  0.34706787081E+03  0.37897457029E+03  0.53638130212E+03  0.87538078797E+02 0.  0.
          4    1    3    3  502    0  0.45658117043E+02 -0.15293956754E+03 -0.12595789042E+03  0.20332379381E+03  0.00000000000E+00 0. -1.
         -4    1    3    3    0  502  0.33072617434E+03 -0.73391829351E+03 -0.45092512910E+03  0.92268593574E+03  0.00000000000E+00 0.  1.
         15    1    5    5    0    0 -0.32490167181E+03  0.37773774662E+03  0.25586126222E+03  0.56010270916E+03  0.17770000000E+01 0. -1.
        -15    1    5    5    0    0 -0.17783195336E+03  0.16205224362E+03  0.18961570472E+03  0.30633707986E+03  0.17770000000E+01 0.  1.
          3    1    6    6  503    0  0.71640808153E+02  0.10339409916E+03  0.91320128456E+02  0.15544166428E+03  0.00000000000E+00 0. -1.
         -3    1    6    6    0  503  0.54708525629E+02  0.24367377165E+03  0.28765444184E+03  0.38093963784E+03  0.00000000000E+00 0.  1.
<mgrwt>
<rscale>  0 0.10394894E+04</rscale>
<asrwt>0</asrwt>
<pdfrwt beam="1">  1        1 0.17548171E+00 0.10394894E+04</pdfrwt>
<pdfrwt beam="2">  1       -1 0.21356918E+00 0.10394894E+04</pdfrwt>
<totfact> 0.14374992E+00</totfact>
</mgrwt>
</event>
<event>
12    1  0.9129867E-008  0.2078944E+04  0.7818608E-02  0.8570576E-01
          1   -1    0    0  501    0  0.00000000000E+00  0.00000000000E+00  0.19108674430E+04  0.19108674430E+04  0.00000000000E+00 0. -1.
         -1   -1    0    0    0  501 -0.00000000000E+00 -0.00000000000E+00 -0.23996463434E+04  0.23996463434E+04  0.00000000000E+00 0.  1.
         23    2    1    2    0    0 -0.70204178679E+03  0.19507925256E+04  0.84996533336E+02  0.20772088758E+04  0.95489028374E+02 0.  0.
    5000000    2    1    2    0    0  0.70204178679E+03 -0.19507925256E+04 -0.57377543374E+03  0.22333049105E+04  0.59998202184E+03 0.  0.
         23    2    4    4    0    0  0.40248259915E+03 -0.13075085138E+04 -0.64286524745E+03  0.15144868174E+04  0.93935282670E+02 0.  0.
         23    2    4    4    0    0  0.29955918764E+03 -0.64328401185E+03  0.69089813706E+02  0.71881809317E+03  0.91520609190E+02 0.  0.
          2    1    3    3  502    0 -0.44883012839E+03  0.11342981940E+04  0.77339014021E+02  0.12223183710E+04  0.00000000000E+00 0. -1.
         -2    1    3    3    0  502 -0.25321165840E+03  0.81649433167E+03  0.76575193145E+01  0.85489050480E+03  0.00000000000E+00 0.  1.
         15    1    5    5    0    0  0.13754733518E+03 -0.58916319056E+03 -0.30640612690E+03  0.67817431893E+03  0.17770000000E+01 0.  1.
        -15    1    5    5    0    0  0.26493526397E+03 -0.71834532323E+03 -0.33645912055E+03  0.83631249843E+03  0.17770000000E+01 0. -1.
          4    1    6    6  503    0  0.17532606068E+03 -0.44767507656E+03  0.15792026716E+02  0.48104219133E+03  0.00000000000E+00 0. -1.
         -4    1    6    6    0  503  0.12423312695E+03 -0.19560893528E+03  0.53297786990E+02  0.23777590184E+03  0.00000000000E+00 0.  1.
<mgrwt>
<rscale>  0 0.20789444E+04</rscale>
<asrwt>0</asrwt>
<pdfrwt beam="1">  1        1 0.29397961E+00 0.20789444E+04</pdfrwt>
<pdfrwt beam="2">  1       -1 0.36917636E+00 0.20789444E+04</pdfrwt>
<totfact> 0.34996603E-02</totfact>
</mgrwt>
</event>
<event>
12    1  0.8033771E-008  0.8960334E+03  0.7818608E-02  0.9430553E-01
          2   -1    0    0  501    0  0.00000000000E+00  0.00000000000E+00  0.69047660481E+03  0.69047660481E+03  0.00000000000E+00 0. -1.
         -2   -1    0    0    0  501 -0.00000000000E+00 -0.00000000000E+00 -0.11865416213E+04  0.11865416213E+04  0.00000000000E+00 0.  1.
         23    2    1    2    0    0 -0.58454840721E+03  0.53806718235E+03 -0.10022186362E+03  0.80589975249E+03  0.90646875377E+02 0.  0.
    5000000    2    1    2    0    0  0.58454840721E+03 -0.53806718235E+03 -0.39584315290E+03  0.10711184736E+04  0.59949132587E+03 0.  0.
         23    2    4    4    0    0  0.30991526757E+03  0.61516889035E+02 -0.14708596064E+03  0.36016676685E+03  0.90851634094E+02 0.  0.
         23    2    4    4    0    0  0.27463313965E+03 -0.59958407139E+03 -0.24875719226E+03  0.71095170680E+03  0.92993379567E+02 0.  0.
          1    1    3    3  502    0 -0.38269727386E+03  0.29561024907E+03 -0.45527761393E+02  0.48571123091E+03  0.00000000000E+00 0. -1.
         -1    1    3    3    0  502 -0.20185113336E+03  0.24245693329E+03 -0.54694102231E+02  0.32018852159E+03  0.00000000000E+00 0.  1.
         15    1    5    5    0    0  0.94437342471E+02 -0.20392098143E+02 -0.59975145744E+02  0.11372961424E+03  0.17770000000E+01 0.  1.
        -15    1    5    5    0    0  0.21547792510E+03  0.81908987178E+02 -0.87110814896E+02  0.24643715261E+03  0.17770000000E+01 0. -1.
          3    1    6    6  503    0  0.51077655262E+02 -0.21528028265E+03 -0.89985138818E+02  0.23885529546E+03  0.00000000000E+00 0. -1.
         -3    1    6    6    0  503  0.22355548438E+03 -0.38430378874E+03 -0.15877205344E+03  0.47209641133E+03  0.00000000000E+00 0.  1.
<mgrwt>
<rscale>  0 0.89603342E+03</rscale>
<asrwt>0</asrwt>
<pdfrwt beam="1">  1        2 0.10622717E+00 0.89603342E+03</pdfrwt>
<pdfrwt beam="2">  1       -2 0.18254486E+00 0.89603342E+03</pdfrwt>
<totfact> 0.72784048E+00</totfact>
</mgrwt>
</event>
<event>
12    1  0.8033771E-008  0.6701859E+03  0.7818608E-02  0.9769622E-01
          1   -1    0    0  501    0  0.00000000000E+00  0.00000000000E+00  0.22844637079E+04  0.22844637079E+04  0.00000000000E+00 0. -1.
         -1   -1    0    0    0  501 -0.00000000000E+00 -0.00000000000E+00 -0.31380438446E+03  0.31380438446E+03  0.00000000000E+00 0.  1.
         23    2    1    2    0    0  0.57366851678E+03 -0.12514888155E+03  0.18002316423E+03  0.62045890109E+03  0.88335149202E+02 0.  0.
    5000000    2    1    2    0    0 -0.57366851678E+03  0.12514888155E+03  0.17906361592E+04  0.19778091913E+04  0.60049440689E+03 0.  0.
         23    2    4    4    0    0 -0.34757072657E+02  0.19987089015E+03  0.22041044251E+03  0.31349065587E+03  0.92407799034E+02 0.  0.
         23    2    4    4    0    0 -0.53891144412E+03 -0.74722008600E+02  0.15702257167E+04  0.16643185354E+04  0.91315183365E+02 0.  0.
          4    1    3    3  502    0  0.20093558372E+03 -0.60859733715E+02  0.10543776067E+03  0.23493858212E+03  0.00000000000E+00 0. -1.
         -4    1    3    3    0  502  0.37273293305E+03 -0.64289147838E+02  0.74585403565E+02  0.38552031897E+03  0.00000000000E+00 0.  1.
         15    1    5    5    0    0 -0.32340577972E+02  0.11763870217E+03  0.66492793574E+02  0.13895764304E+03  0.17770000000E+01 0. -1.
        -15    1    5    5    0    0 -0.24164946851E+01  0.82232187981E+02  0.15391764894E+03  0.17453301284E+03  0.17770000000E+01 0.  1.
          2    1    6    6  503    0 -0.45736758568E+03 -0.39543678528E+02  0.12361972650E+04  0.13186858947E+04  0.00000000000E+00 0. -1.
         -2    1    6    6    0  503 -0.81543858433E+02 -0.35178330072E+02  0.33402845172E+03  0.34563264069E+03  0.00000000000E+00 0.  1.
<mgrwt>
<rscale>  0 0.67018591E+03</rscale>
<asrwt>0</asrwt>
<pdfrwt beam="1">  1        1 0.35145594E+00 0.67018591E+03</pdfrwt>
<pdfrwt beam="2">  1       -1 0.48277599E-01 0.67018591E+03</pdfrwt>
<totfact> 0.87244680E+00</totfact>
</mgrwt>
</event>
<event>
12    1  0.8033771E-008  0.2652845E+04  0.7818608E-02  0.8350469E-01
          2   -1    0    0  501    0  0.00000000000E+00  0.00000000000E+00  0.26974449049E+04  0.26974449049E+04  0.00000000000E+00 0.  1.
         -2   -1    0    0    0  501 -0.00000000000E+00 -0.00000000000E+00 -0.26519711052E+04  0.26519711052E+04  0.00000000000E+00 0. -1.
         23    2    1    2    0    0  0.17337609078E+04 -0.19909863834E+04 -0.22430683361E+01  0.26415966769E+04  0.89857152250E+02 0.  0.
    5000000    2    1    2    0    0 -0.17337609078E+04  0.19909863834E+04  0.47716868040E+02  0.27078193332E+04  0.60004581288E+03 0.  0.
         23    2    4    4    0    0 -0.27907694599E+02  0.46668979395E+02 -0.50016342786E+02  0.11776953182E+03  0.91712567420E+02 0.  0.
         23    2    4    4    0    0 -0.17058532132E+04  0.19443174040E+04  0.97733210827E+02  0.25900498014E+04  0.92200004045E+02 0.  0.
          1    1    3    3  502    0  0.15906693629E+04 -0.18616276321E+04  0.21399535836E+01  0.24486508616E+04  0.00000000000E+00 0. -1.
         -1    1    3    3    0  502  0.14309154489E+03 -0.12935875127E+03 -0.43830219197E+01  0.19294581527E+03  0.00000000000E+00 0.  1.
         15    1    5    5    0    0 -0.36315187370E+02  0.72374605138E+01  0.16013971000E+02  0.40382900646E+02  0.17770000000E+01 0.  1.
        -15    1    5    5    0    0  0.84074927711E+01  0.39431518881E+02 -0.66030313786E+02  0.77386631169E+02  0.17770000000E+01 0. -1.
          2    1    6    6  503    0 -0.74437532223E+03  0.82735314354E+03  0.85569590734E+02  0.11162123451E+04  0.00000000000E+00 0. -1.
         -2    1    6    6    0  503 -0.96147789098E+03  0.11169642604E+04  0.12163620093E+02  0.14738374563E+04  0.00000000000E+00 0.  1.
<mgrwt>
<rscale>  0 0.26528449E+04</rscale>
<asrwt>0</asrwt>
<pdfrwt beam="1">  1        2 0.41499152E+00 0.26528449E+04</pdfrwt>
<pdfrwt beam="2">  1       -2 0.40799556E+00 0.26528449E+04</pdfrwt>
<totfact> 0.14474403E-02</totfact>
</mgrwt>
</event>
<event>
12    1  0.8107272E-008  0.5824133E+03  0.7818608E-02  0.9942580E-01
          3   -1    0    0  501    0  0.00000000000E+00  0.00000000000E+00  0.54337799589E+03  0.54337799589E+03  0.00000000000E+00 0. -1.
         -3   -1    0    0    0  501 -0.00000000000E+00 -0.00000000000E+00 -0.10768928573E+04  0.10768928573E+04  0.00000000000E+00 0.  1.
         23    2    1    2    0    0  0.39345652450E+03 -0.18736958418E+03  0.27544416144E+03  0.52300411178E+03  0.88025093687E+02 0.  0.
    5000000    2    1    2    0    0 -0.39345652450E+03  0.18736958418E+03 -0.80895902281E+03  0.10972667414E+04  0.59972010420E+03 0.  0.
         23    2    4    4    0    0 -0.53550834301E+03  0.11725574511E+03 -0.65131799824E+03  0.85643040570E+03  0.93486949807E+02 0.  0.
         23    2    4    4    0    0  0.14205181851E+03  0.70113839067E+02 -0.15764102457E+03  0.24083633567E+03  0.89759558718E+02 0.  0.
          3    1    3    3  502    0  0.13195822069E+03 -0.97200700292E+02  0.13737427141E+03  0.21385190809E+03  0.00000000000E+00 0. -1.
         -3    1    3    3    0  502  0.26149830381E+03 -0.90168883889E+02  0.13806989002E+03  0.30915220369E+03  0.00000000000E+00 0.  1.
         15    1    5    5    0    0 -0.36473618043E+03  0.11709083146E+03 -0.48507152430E+03  0.61809407499E+03  0.17770000000E+01 0. -1.
        -15    1    5    5    0    0 -0.17077216258E+03  0.16491364968E+00 -0.16624647394E+03  0.23833633071E+03  0.17770000000E+01 0.  1.
          3    1    6    6  503    0  0.85335360615E+02  0.74911474416E+02 -0.14197908539E+03  0.18180185219E+03  0.00000000000E+00 0. -1.
         -3    1    6    6    0  503  0.56716457893E+02 -0.47976353492E+01 -0.15661939175E+02  0.59034483479E+02  0.00000000000E+00 0.  1.
<mgrwt>
<rscale>  0 0.58241331E+03</rscale>
<asrwt>0</asrwt>
<pdfrwt beam="1">  1        3 0.83596616E-01 0.58241331E+03</pdfrwt>
<pdfrwt beam="2">  1       -3 0.16567582E+00 0.58241331E+03</pdfrwt>
<totfact> 0.85740900E-01</totfact>
</mgrwt>
</event>
<event>
12    1  0.8033771E-008  0.1138173E+04  0.7818608E-02  0.9168764E-01
          2   -1    0    0  501    0  0.00000000000E+00  0.00000000000E+00  0.12748432131E+04  0.12748432131E+04  0.00000000000E+00 0. -1.
         -2   -1    0    0    0  501 -0.00000000000E+00 -0.00000000000E+00 -0.12670739466E+04  0.12670739466E+04  0.00000000000E+00 0.  1.
         23    2    1    2    0    0  0.37889153920E+03 -0.10381672398E+04 -0.45994944909E+03  0.12005913538E+04  0.92282646449E+02 0.  0.
    5000000    2    1    2    0    0 -0.37889153920E+03  0.10381672398E+04  0.46771871560E+03  0.13413258060E+04  0.59920289097E+03 0.  0.
         23    2    4    4    0    0  0.35148268570E+02  0.43248682043E+03  0.40258588039E+03  0.59943406019E+03  0.94686592521E+02 0.  0.
         23    2    4    4    0    0 -0.41403980777E+03  0.60568041939E+03  0.65132835204E+02  0.74189174578E+03  0.88788193954E+02 0.  0.
          2    1    3    3  502    0  0.18389562174E+03 -0.52990311212E+03 -0.28239278923E+03  0.62798136543E+03  0.00000000000E+00 0. -1.
         -2    1    3    3    0  502  0.19499591746E+03 -0.50826412770E+03 -0.17755665986E+03  0.57260998838E+03  0.00000000000E+00 0.  1.
         15    1    5    5    0    0  0.23400494339E+02  0.25789649921E+03  0.17586429459E+03  0.31303289808E+03  0.17770000000E+01 0. -1.
        -15    1    5    5    0    0  0.11747774231E+02  0.17459032121E+03  0.22672158580E+03  0.28640116211E+03  0.17770000000E+01 0.  1.
          3    1    6    6  503    0 -0.27001820663E+03  0.45176683933E+03  0.22218889210E+02  0.52677963901E+03  0.00000000000E+00 0. -1.
         -3    1    6    6    0  503 -0.14402160114E+03  0.15391358006E+03  0.42913945994E+02  0.21511210677E+03  0.00000000000E+00 0.  1.
<mgrwt>
<rscale>  0 0.11381731E+04</rscale>
<asrwt>0</asrwt>
<pdfrwt beam="1">  1        2 0.19612973E+00 0.11381731E+04</pdfrwt>
<pdfrwt beam="2">  1       -2 0.19493445E+00 0.11381731E+04</pdfrwt>
<totfact> 0.24001052E+00</totfact>
</mgrwt>
</event>
<event>
12    1  0.8033771E-008  0.1562391E+04  0.7818608E-02  0.8843992E-01
          1   -1    0    0  501    0  0.00000000000E+00  0.00000000000E+00  0.13589944914E+04  0.13589944914E+04  0.00000000000E+00 0. -1.
         -1   -1    0    0    0  501 -0.00000000000E+00 -0.00000000000E+00 -0.18593863733E+04  0.18593863733E+04  0.00000000000E+00 0.  1.
         23    2    1    2    0    0  0.99713679113E+03  0.11435796354E+04 -0.45269249055E+03  0.15860171389E+04  0.91998429714E+02 0.  0.
    5000000    2    1    2    0    0 -0.99713679113E+03 -0.11435796354E+04 -0.47699391435E+02  0.16323637258E+04  0.60023323687E+03 0.  0.
         23    2    4    4    0    0 -0.79054292348E+03 -0.53221049267E+03 -0.15964157245E+03  0.97094623212E+03  0.95105371289E+02 0.  0.
         23    2    4    4    0    0 -0.20659386765E+03 -0.61136914274E+03  0.11194218101E+03  0.66141749369E+03  0.92134652648E+02 0.  0.
          1    1    3    3  502    0  0.75292901664E+03  0.80254657621E+03 -0.31813900184E+03  0.11455110369E+04  0.00000000000E+00 0. -1.
         -1    1    3    3    0  502  0.24420777448E+03  0.34103305920E+03 -0.13455348871E+03  0.44050610201E+03  0.00000000000E+00 0.  1.
         15    1    5    5    0    0 -0.58401437159E+03 -0.39697608249E+03 -0.75768535250E+02  0.71021604105E+03  0.17770000000E+01 0. -1.
        -15    1    5    5    0    0 -0.20652855189E+03 -0.13523441018E+03 -0.83873037197E+02  0.26073019108E+03  0.17770000000E+01 0.  1.
          4    1    6    6  503    0  0.94567766656E+01 -0.36967222953E+02  0.51146945154E+01  0.38498912943E+02  0.00000000000E+00 0. -1.
         -4    1    6    6    0  503 -0.21605064432E+03 -0.57440191979E+03  0.10682748650E+03  0.62291858075E+03  0.00000000000E+00 0.  1.
<mgrwt>
<rscale>  0 0.15623910E+04</rscale>
<asrwt>0</asrwt>
<pdfrwt beam="1">  1        1 0.20907608E+00 0.15623910E+04</pdfrwt>
<pdfrwt beam="2">  1       -1 0.28605944E+00 0.15623910E+04</pdfrwt>
<totfact> 0.31401789E-01</totfact>
</mgrwt>
</event>
<event>
12    1  0.8033771E-008  0.7585953E+03  0.7818608E-02  0.9621961E-01
         -4   -1    0    0    0  501 -0.00000000000E+00  0.00000000000E+00  0.78621135856E+03  0.78621135856E+03  0.00000000000E+00 0.  1.
          4   -1    0    0  501    0  0.00000000000E+00 -0.00000000000E+00 -0.11007665748E+04  0.11007665748E+04  0.00000000000E+00 0. -1.
         23    2    1    2    0    0 -0.72196818733E+03 -0.12424099147E+02  0.27540905021E+03  0.77818028683E+03  0.91224953368E+02 0.  0.
    5000000    2    1    2    0    0  0.72196818733E+03  0.12424099147E+02 -0.58996426643E+03  0.11087976465E+04  0.59998496940E+03 0.  0.
         23    2    4    4    0    0  0.60495691561E+03 -0.92155014916E+02 -0.66769482044E+03  0.91018654874E+03  0.90320339615E+02 0.  0.
         23    2    4    4    0    0  0.11701127172E+03  0.10457911406E+03  0.77730554010E+02  0.19861109778E+03  0.93679775437E+02 0.  0.
          1    1    3    3  502    0 -0.24161668455E+03 -0.13873999579E+02  0.13783918965E+03  0.27851526407E+03  0.00000000000E+00 0. -1.
         -1    1    3    3    0  502 -0.48035150278E+03  0.14499004323E+01  0.13756986056E+03  0.49966502276E+03  0.00000000000E+00 0.  1.
         15    1    5    5    0    0  0.76607825021E+02 -0.47765673278E+01 -0.13207916822E+03  0.15277316144E+03  0.17770000000E+01 0.  1.
        -15    1    5    5    0    0  0.52834909059E+03 -0.87378447588E+02 -0.53561565221E+03  0.75741338730E+03  0.17770000000E+01 0. -1.
          4    1    6    6  503    0 -0.14890847584E+02  0.12180813129E+01  0.93202860159E+01  0.17609338297E+02  0.00000000000E+00 0. -1.
         -4    1    6    6    0  503  0.13190211930E+03  0.10336103275E+03  0.68410267994E+02  0.18100175948E+03  0.00000000000E+00 0.  1.
<mgrwt>
<rscale>  0 0.75859531E+03</rscale>
<asrwt>0</asrwt>
<pdfrwt beam="1">  1        4 0.16934870E+00 0.75859531E+03</pdfrwt>
<pdfrwt beam="2">  1       -4 0.12095559E+00 0.75859531E+03</pdfrwt>
<totfact> 0.21634879E-01</totfact>
</mgrwt>
</event>
<event>
12    1  0.8033771E-008  0.1191881E+04  0.7818608E-02  0.9119993E-01
          1   -1    0    0  501    0  0.00000000000E+00  0.00000000000E+00  0.89285457150E+03  0.89285457150E+03  0.00000000000E+00 0. -1.
         -1   -1    0    0    0  501 -0.00000000000E+00 -0.00000000000E+00 -0.17097726191E+04  0.17097726191E+04  0.00000000000E+00 0.  1.
         23    2    1    2    0    0 -0.54133914174E+02 -0.11240210320E+04 -0.68518269607E+03  0.13206633980E+04  0.91228958430E+02 0.  0.
    5000000    2    1    2    0    0  0.54133914174E+02  0.11240210320E+04 -0.13173535151E+03  0.12819637926E+04  0.59976929030E+03 0.  0.
         23    2    4    4    0    0  0.11069729813E+03  0.97465794356E+01 -0.73409904087E+02  0.16103383185E+03  0.90520679173E+02 0.  0.
         23    2    4    4    0    0 -0.56563383956E+02  0.11142744526E+04 -0.58325447424E+02  0.11209299607E+04  0.90967834947E+02 0.  0.
          2    1    3    3  502    0  0.84216951703E+01 -0.31715440368E+02 -0.74015359832E+01  0.33638918564E+02  0.00000000000E+00 0.  1.
         -2    1    3    3    0  502 -0.62555609344E+02 -0.10923055916E+04 -0.67778116009E+03  0.12870244795E+04  0.00000000000E+00 0. -1.
         15    1    5    5    0    0 -0.60043574874E+01  0.22693541751E+02 -0.24039156322E+02  0.33646514109E+02  0.17770000000E+01 0.  1.
        -15    1    5    5    0    0  0.11670165562E+03 -0.12946962315E+02 -0.49370747765E+02  0.12738731774E+03  0.17770000000E+01 0. -1.
          4    1    6    6  503    0 -0.96253296811E+01  0.37012013258E+03  0.22503536837E+02  0.37092852234E+03  0.00000000000E+00 0. -1.
         -4    1    6    6    0  503 -0.46938054275E+02  0.74415431997E+03 -0.80828984261E+02  0.75000143838E+03  0.00000000000E+00 0.  1.
<mgrwt>
<rscale>  0 0.11918805E+04</rscale>
<asrwt>0</asrwt>
<pdfrwt beam="1">  1        1 0.13736224E+00 0.11918805E+04</pdfrwt>
<pdfrwt beam="2">  1       -1 0.26304194E+00 0.11918805E+04</pdfrwt>
<totfact> 0.10412059E+00</totfact>
</mgrwt>
</event>
<event>
12    1  0.8033771E-008  0.1033960E+04  0.7818608E-02  0.9272063E-01
         -1   -1    0    0    0  501 -0.00000000000E+00  0.00000000000E+00  0.84956709236E+03  0.84956709236E+03  0.00000000000E+00 0.  1.
          1   -1    0    0  501    0  0.00000000000E+00 -0.00000000000E+00 -0.13150288974E+04  0.13150288974E+04  0.00000000000E+00 0. -1.
         23    2    1    2    0    0 -0.61828328283E+03 -0.74615323263E+03 -0.17950008227E+03  0.98958803556E+03  0.89695798029E+02 0.  0.
    5000000    2    1    2    0    0  0.61828328283E+03  0.74615323263E+03 -0.28596172279E+03  0.11750079542E+04  0.59987558811E+03 0.  0.
         23    2    4    4    0    0  0.47332439707E+02 -0.79335663789E+02 -0.53492742193E+02  0.14063984033E+03  0.91561912519E+02 0.  0.
         23    2    4    4    0    0  0.57095084313E+03  0.82548889642E+03 -0.23246898060E+03  0.10343681139E+04  0.91971651808E+02 0.  0.
          1    1    3    3  502    0 -0.37366153723E+03 -0.46558346645E+03 -0.15373522428E+03  0.61646202464E+03  0.00000000000E+00 0. -1.
         -1    1    3    3    0  502 -0.24462174560E+03 -0.28056976618E+03 -0.25764857996E+02  0.37312601092E+03  0.00000000000E+00 0.  1.
         15    1    5    5    0    0  0.40673691717E+02 -0.53767617101E+02 -0.79000065615E+02  0.10387239259E+03  0.17770000000E+01 0. -1.
        -15    1    5    5    0    0  0.66587479894E+01 -0.25568046688E+02  0.25507323422E+02  0.36767447741E+02  0.17770000000E+01 0.  1.
          2    1    6    6  503    0  0.17523288642E+03  0.21679858751E+03 -0.10131683624E+03  0.29660292199E+03  0.00000000000E+00 0. -1.
         -2    1    6    6    0  503  0.39571795671E+03  0.60869030891E+03 -0.13115214436E+03  0.73776519191E+03  0.00000000000E+00 0.  1.
<mgrwt>
<rscale>  0 0.10339596E+04</rscale>
<asrwt>0</asrwt>
<pdfrwt beam="1">  1        1 0.20231214E+00 0.10339596E+04</pdfrwt>
<pdfrwt beam="2">  1       -1 0.13070263E+00 0.10339596E+04</pdfrwt>
<totfact> 0.44142623E+00</totfact>
</mgrwt>
</event>
<event>
12    1  0.8033771E-008  0.4444296E+03  0.7818608E-02  0.1029396E+00
          2   -1    0    0  501    0  0.00000000000E+00  0.00000000000E+00  0.20945999074E+04  0.20945999074E+04  0.00000000000E+00 0. -1.
         -2   -1    0    0    0  501 -0.00000000000E+00 -0.00000000000E+00 -0.25078075556E+03  0.25078075556E+03  0.00000000000E+00 0.  1.
         23    2    1    2    0    0  0.31948613924E+03 -0.50287044637E+02 -0.43950206676E+02  0.33832028108E+03  0.89043876259E+02 0.  0.
    5000000    2    1    2    0    0 -0.31948613924E+03  0.50287044637E+02  0.18877693586E+04  0.20070603819E+04  0.60001503776E+03 0.  0.
         23    2    4    4    0    0 -0.25874547721E+03  0.23281662264E+03  0.16478510245E+04  0.16866265613E+04  0.90240548401E+02 0.  0.
         23    2    4    4    0    0 -0.60740662029E+02 -0.18252957800E+03  0.23991833401E+03  0.32043382058E+03  0.90058600393E+02 0.  0.
          4    1    3    3  502    0  0.99047047830E+02 -0.24572797053E+01  0.25492697167E+02  0.10230461141E+03  0.00000000000E+00 0.  1.
         -4    1    3    3    0  502  0.22043909141E+03 -0.47829764931E+02 -0.69442903844E+02  0.23601566967E+03  0.00000000000E+00 0. -1.
         15    1    5    5    0    0 -0.64822424420E+02  0.93085131047E+02  0.69815959905E+03  0.70731659941E+03  0.17770000000E+01 0. -1.
        -15    1    5    5    0    0 -0.19392305279E+03  0.13973149159E+03  0.94969142549E+03  0.97930996192E+03  0.17770000000E+01 0.  1.
          2    1    6    6  503    0  0.17046856268E+02 -0.86470331594E+02  0.87474043343E+02  0.12417496452E+03  0.00000000000E+00 0. -1.
         -2    1    6    6    0  503 -0.77787518297E+02 -0.96059246409E+02  0.15244429067E+03  0.19625885606E+03  0.00000000000E+00 0.  1.
<mgrwt>
<rscale>  0 0.44442961E+03</rscale>
<asrwt>0</asrwt>
<pdfrwt beam="1">  1        2 0.32224613E+00 0.44442961E+03</pdfrwt>
<pdfrwt beam="2">  1       -2 0.38581656E-01 0.44442961E+03</pdfrwt>
<totfact> 0.40810161E+01</totfact>
</mgrwt>
</event>
<event>
12    1  0.8033771E-008  0.1909318E+04  0.7818608E-02  0.8650232E-01
          2   -1    0    0  501    0  0.00000000000E+00  0.00000000000E+00  0.38708865238E+04  0.38708865238E+04  0.00000000000E+00 0. -1.
         -2   -1    0    0    0  501 -0.00000000000E+00 -0.00000000000E+00 -0.24691450298E+04  0.24691450298E+04  0.00000000000E+00 0.  1.
         23    2    1    2    0    0 -0.19051897892E+04  0.86844905278E+02 -0.17615887908E+04  0.25978315237E+04  0.90793099847E+02 0.  0.
    5000000    2    1    2    0    0  0.19051897892E+04 -0.86844905278E+02  0.31633302848E+04  0.37422000299E+04  0.60009366155E+03 0.  0.
         23    2    4    4    0    0  0.78410312780E+03 -0.20286767356E+02  0.79942528022E+03  0.11234977977E+04  0.89091272155E+02 0.  0.
         23    2    4    4    0    0  0.11210866614E+04 -0.66558137922E+02  0.23639050046E+04  0.26187022323E+04  0.91045166375E+02 0.  0.
          4    1    3    3  502    0 -0.15251350460E+04  0.69245220000E+02 -0.13595754157E+04  0.20443280363E+04  0.00000000000E+00 0.  1.
         -4    1    3    3    0  502 -0.38005474319E+03  0.17599685277E+02 -0.40201337514E+03  0.55350348737E+03  0.00000000000E+00 0. -1.
         15    1    5    5    0    0  0.19159009888E+03  0.29200478454E+02  0.17245869814E+03  0.25943128999E+03  0.17770000000E+01 0. -1.
        -15    1    5    5    0    0  0.59251302891E+03 -0.49487245810E+02  0.62696658209E+03  0.86406650769E+03  0.17770000000E+01 0.  1.
          1    1    6    6  503    0  0.30727373647E+02 -0.80438066082E+00  0.10732868946E+03  0.11164347765E+03  0.00000000000E+00 0. -1.
         -1    1    6    6    0  503  0.10903592878E+04 -0.65753757261E+02  0.22565763151E+04  0.25070587546E+04  0.00000000000E+00 0.  1.
<mgrwt>
<rscale>  0 0.19093178E+04</rscale>
<asrwt>0</asrwt>
<pdfrwt beam="1">  1        2 0.59552101E+00 0.19093178E+04</pdfrwt>
<pdfrwt beam="2">  1       -2 0.37986846E+00 0.19093178E+04</pdfrwt>
<totfact> 0.38825283E-03</totfact>
</mgrwt>
</event>
<event>
12    1  0.8033771E-008  0.6659100E+03  0.7818608E-02  0.9777375E-01
         -2   -1    0    0    0  501 -0.00000000000E+00  0.00000000000E+00  0.12703727632E+03  0.12703727632E+03  0.00000000000E+00 0.  1.
          2   -1    0    0  501    0  0.00000000000E+00 -0.00000000000E+00 -0.41093056292E+04  0.41093056292E+04  0.00000000000E+00 0. -1.
         23    2    1    2    0    0  0.37572791687E+03  0.44724628069E+03 -0.19739440997E+04  0.20605363745E+04  0.90300268984E+02 0.  0.
    5000000    2    1    2    0    0 -0.37572791687E+03 -0.44724628069E+03 -0.20083242532E+04  0.21758065311E+04  0.59963910113E+03 0.  0.
         23    2    4    4    0    0 -0.14224658737E+03 -0.48242115588E+03 -0.17082745745E+04  0.17830449290E+04  0.89905137438E+02 0.  0.
         23    2    4    4    0    0 -0.23348132950E+03  0.35174875184E+02 -0.30004967868E+03  0.39276160205E+03  0.92092688647E+02 0.  0.
          1    1    3    3  502    0  0.27476505272E+03  0.26387736203E+03 -0.12225430210E+04  0.12805227583E+04  0.00000000000E+00 0. -1.
         -1    1    3    3    0  502  0.10096286415E+03  0.18336891866E+03 -0.75140107878E+03  0.78001361620E+03  0.00000000000E+00 0.  1.
         15    1    5    5    0    0 -0.13203693669E+03 -0.37643569181E+03 -0.12306376922E+04  0.12936807450E+04  0.17770000000E+01 0.  1.
        -15    1    5    5    0    0 -0.10209650684E+02 -0.10598546406E+03 -0.47763688226E+03  0.48936418400E+03  0.17770000000E+01 0. -1.
          2    1    6    6  503    0 -0.77595844849E+02  0.10867682709E+02 -0.38473219401E+02  0.87289233451E+02  0.00000000000E+00 0. -1.
         -2    1    6    6    0  503 -0.15588548465E+03  0.24307192474E+02 -0.26157645928E+03  0.30547236860E+03  0.00000000000E+00 0.  1.
<mgrwt>
<rscale>  0 0.66590999E+03</rscale>
<asrwt>0</asrwt>
<pdfrwt beam="1">  1        2 0.63220080E+00 0.66590999E+03</pdfrwt>
<pdfrwt beam="2">  1       -2 0.19544198E-01 0.66590999E+03</pdfrwt>
<totfact> 0.69775822E+00</totfact>
</mgrwt>
</event>
<event>
12    1  0.8033771E-008  0.9507496E+03  0.7818608E-02  0.9364275E-01
         -2   -1    0    0    0  501 -0.00000000000E+00  0.00000000000E+00  0.10134875612E+04  0.10134875612E+04  0.00000000000E+00 0. -1.
          2   -1    0    0  501    0  0.00000000000E+00 -0.00000000000E+00 -0.15617552787E+04  0.15617552787E+04  0.00000000000E+00 0.  1.
         23    2    1    2    0    0  0.83324122529E+03 -0.38313962412E+03 -0.10264133273E+04  0.13794844522E+04  0.91466520966E+02 0.  0.
    5000000    2    1    2    0    0 -0.83324122529E+03  0.38313962412E+03  0.47814560984E+03  0.11957583877E+04  0.60010664579E+03 0.  0.
         23    2    4    4    0    0 -0.45046858518E+03  0.38470538469E+03  0.52698159082E+03  0.79826387843E+03  0.92711613558E+02 0.  0.
         23    2    4    4    0    0 -0.38277264011E+03 -0.15657605666E+01 -0.48835980984E+02  0.39749450923E+03  0.95391751220E+02 0.  0.
          3    1    3    3  502    0  0.44280170072E+03 -0.19747373354E+03 -0.61012833691E+03  0.77931111188E+03  0.00000000000E+00 0. -1.
         -3    1    3    3    0  502  0.39043952457E+03 -0.18566589058E+03 -0.41628499038E+03  0.60017334036E+03  0.00000000000E+00 0.  1.
         15    1    5    5    0    0 -0.18235434177E+03  0.10361474298E+03  0.15917382209E+03  0.26330321740E+03  0.17770000000E+01 0. -1.
        -15    1    5    5    0    0 -0.26811424341E+03  0.28109064170E+03  0.36780776874E+03  0.53496066103E+03  0.17770000000E+01 0.  1.
          3    1    6    6  503    0 -0.34732284558E+03  0.13540562373E+02 -0.17845404072E+02  0.34804448614E+03  0.00000000000E+00 0. -1.
         -3    1    6    6    0  503 -0.35449794537E+02 -0.15106322940E+02 -0.30990576912E+02  0.49450023082E+02  0.00000000000E+00 0.  1.
<mgrwt>
<rscale>  0 0.95074956E+03</rscale>
<asrwt>0</asrwt>
<pdfrwt beam="1">  1        2 0.24027004E+00 0.95074956E+03</pdfrwt>
<pdfrwt beam="2">  1       -2 0.15592116E+00 0.95074956E+03</pdfrwt>
<totfact> 0.31627121E+00</totfact>
</mgrwt>
</event>
<event>
12    1  0.8033771E-008  0.9549419E+03  0.7818608E-02  0.9359393E-01
          2   -1    0    0  501    0  0.00000000000E+00  0.00000000000E+00  0.11392422670E+04  0.11392422670E+04  0.00000000000E+00 0. -1.
         -2   -1    0    0    0  501 -0.00000000000E+00 -0.00000000000E+00 -0.13457551719E+04  0.13457551719E+04  0.00000000000E+00 0.  1.
         23    2    1    2    0    0  0.58577019806E+03  0.64475956054E+03 -0.87304427304E+03  0.12346819518E+04  0.58237475358E+02 0.  0.
    5000000    2    1    2    0    0 -0.58577019806E+03 -0.64475956054E+03  0.66653136817E+03  0.12503154871E+04  0.60015259454E+03 0.  0.
         23    2    4    4    0    0  0.10146870298E+03 -0.13463188339E+03  0.17192345749E+03  0.25772453047E+03  0.91883712712E+02 0.  0.
         23    2    4    4    0    0 -0.68723890104E+03 -0.51012767715E+03  0.49460791068E+03  0.99259095665E+03  0.89845800245E+02 0.  0.
          1    1    3    3  502    0  0.10814064564E+03  0.14642955799E+03 -0.20362684282E+03  0.27312983325E+03  0.00000000000E+00 0. -1.
         -1    1    3    3    0  502  0.47762955242E+03  0.49833000255E+03 -0.66941743022E+03  0.96155211854E+03  0.00000000000E+00 0.  1.
         15    1    5    5    0    0  0.10096171375E+03 -0.93204158770E+02  0.16652952747E+03  0.21590628547E+03  0.17770000000E+01 0. -1.
        -15    1    5    5    0    0  0.50698923057E+00 -0.41427724621E+02  0.53939300212E+01  0.41818245007E+02  0.17770000000E+01 0.  1.
          4    1    6    6  503    0 -0.57545188917E+03 -0.39334525049E+03  0.42648252493E+03  0.81716137139E+03  0.00000000000E+00 0. -1.
         -4    1    6    6    0  503 -0.11178701188E+03 -0.11678242666E+03  0.68125385755E+02  0.17542958526E+03  0.00000000000E+00 0.  1.
<mgrwt>
<rscale>  0 0.95494191E+03</rscale>
<asrwt>0</asrwt>
<pdfrwt beam="1">  1        2 0.17526804E+00 0.95494191E+03</pdfrwt>
<pdfrwt beam="2">  1       -2 0.20703926E+00 0.95494191E+03</pdfrwt>
<totfact> 0.24615487E+00</totfact>
</mgrwt>
</event>
<event>
12    1  0.8033771E-008  0.7443190E+03  0.7818608E-02  0.9644305E-01
         -1   -1    0    0    0  501 -0.00000000000E+00  0.00000000000E+00  0.55129043171E+03  0.55129043171E+03  0.00000000000E+00 0.  1.
          1   -1    0    0  501    0  0.00000000000E+00 -0.00000000000E+00 -0.14012494268E+04  0.14012494268E+04  0.00000000000E+00 0. -1.
         23    2    1    2    0    0  0.38098085361E+03  0.52330492152E+03  0.93823587403E+02  0.66038909188E+03  0.91194492279E+02 0.  0.
    5000000    2    1    2    0    0 -0.38098085361E+03 -0.52330492152E+03 -0.94378258249E+03  0.12921507666E+04  0.59994465492E+03 0.  0.
         23    2    4    4    0    0 -0.33219763819E+03 -0.32392916964E+02 -0.21287153926E+03  0.40639849005E+03  0.91874199840E+02 0.  0.
         23    2    4    4    0    0 -0.48783215422E+02 -0.49091200455E+03 -0.73091104323E+03  0.88575227657E+03  0.83377119297E+02 0.  0.
          4    1    3    3  502    0  0.11554073429E+03  0.11938041002E+03 -0.84500460459E+01  0.16635127548E+03  0.00000000000E+00 0. -1.
         -4    1    3    3    0  502  0.26544011932E+03  0.40392451150E+03  0.10227363345E+03  0.49403781640E+03  0.00000000000E+00 0.  1.
         15    1    5    5    0    0 -0.33239538617E+03 -0.42086434909E+02 -0.20007232196E+03  0.39024358098E+03  0.17770000000E+01 0. -1.
        -15    1    5    5    0    0  0.19774798242E+00  0.96935179452E+01 -0.12799217304E+02  0.16154909068E+02  0.17770000000E+01 0.  1.
          3    1    6    6  503    0 -0.38562079995E+02 -0.46167229665E+03 -0.64276754103E+03  0.79232471583E+03  0.00000000000E+00 0. -1.
         -3    1    6    6    0  503 -0.10221135427E+02 -0.29239707903E+02 -0.88143502192E+02  0.93427560742E+02  0.00000000000E+00 0.  1.
<mgrwt>
<rscale>  0 0.74431896E+03</rscale>
<asrwt>0</asrwt>
<pdfrwt beam="1">  1        1 0.21557683E+00 0.74431896E+03</pdfrwt>
<pdfrwt beam="2">  1       -1 0.84813913E-01 0.74431896E+03</pdfrwt>
<totfact> 0.10943021E+01</totfact>
</mgrwt>
</event>
<event>
12    1  0.8033771E-008  0.9726074E+03  0.7818608E-02  0.9339109E-01
          1   -1    0    0  501    0  0.00000000000E+00  0.00000000000E+00  0.82216562654E+03  0.82216562654E+03  0.00000000000E+00 0. -1.
         -1   -1    0    0    0  501 -0.00000000000E+00 -0.00000000000E+00 -0.12188635105E+04  0.12188635105E+04  0.00000000000E+00 0.  1.
         23    2    1    2    0    0  0.74006012812E+03 -0.49838581039E+03 -0.60483643486E+01  0.89703841580E+03  0.92541490607E+02 0.  0.
    5000000    2    1    2    0    0 -0.74006012812E+03  0.49838581039E+03 -0.39064951959E+03  0.11439907212E+04  0.60002526103E+03 0.  0.
         23    2    4    4    0    0 -0.39524052749E+02  0.31061234758E+03 -0.22492848995E+02  0.32563860162E+03  0.86558589398E+02 0.  0.
         23    2    4    4    0    0 -0.70053607537E+03  0.18777346281E+03 -0.36815667059E+03  0.81835211960E+03  0.90283948336E+02 0.  0.
          4    1    3    3  502    0  0.44587033381E+03 -0.25135167867E+03  0.17785572089E+02  0.51214680270E+03  0.00000000000E+00 0.  1.
         -4    1    3    3    0  502  0.29418979431E+03 -0.24703413171E+03 -0.23833936438E+02  0.38489161310E+03  0.00000000000E+00 0. -1.
         15    1    5    5    0    0  0.72981181693E+01  0.17328191587E+03 -0.44027737863E+02  0.17894547864E+03  0.17770000000E+01 0.  1.
        -15    1    5    5    0    0 -0.46822170918E+02  0.13733043171E+03  0.21534888868E+02  0.14669312298E+03  0.17770000000E+01 0. -1.
          1    1    6    6  503    0 -0.33230897486E+03  0.43290222411E+02 -0.15961929168E+03  0.37118946160E+03  0.00000000000E+00 0. -1.
         -1    1    6    6    0  503 -0.36822710051E+03  0.14448324040E+03 -0.20853737891E+03  0.44716265800E+03  0.00000000000E+00 0.  1.
<mgrwt>
<rscale>  0 0.97260738E+03</rscale>
<asrwt>0</asrwt>
<pdfrwt beam="1">  1        1 0.12648702E+00 0.97260738E+03</pdfrwt>
<pdfrwt beam="2">  1       -1 0.18751746E+00 0.97260738E+03</pdfrwt>
<totfact> 0.39171252E+00</totfact>
</mgrwt>
</event>
<event>
12    1  0.8033771E-008  0.8283238E+03  0.7818608E-02  0.9519901E-01
         -2   -1    0    0    0  501 -0.00000000000E+00  0.00000000000E+00  0.11291760268E+04  0.11291760268E+04  0.00000000000E+00 0.  1.
          2   -1    0    0  501    0  0.00000000000E+00 -0.00000000000E+00 -0.69376377895E+03  0.69376377895E+03  0.00000000000E+00 0. -1.
         23    2    1    2    0    0 -0.38301301993E+03 -0.64600820607E+03  0.41117574144E+03  0.86109312626E+03  0.91598613508E+02 0.  0.
    5000000    2    1    2    0    0  0.38301301993E+03  0.64600820607E+03  0.24236506435E+02  0.96184667951E+03  0.60044654292E+03 0.  0.
         23    2    4    4    0    0 -0.89145093292E+02  0.27064612158E+03  0.15672836588E+03  0.33869051715E+03  0.94611389130E+02 0.  0.
         23    2    4    4    0    0  0.47215811322E+03  0.37536208449E+03 -0.13249185944E+03  0.62315616236E+03  0.83303850570E+02 0.  0.
          2    1    3    3  502    0 -0.17431277042E+03 -0.34187611739E+03  0.25370494243E+03  0.46003306336E+03  0.00000000000E+00 0. -1.
         -2    1    3    3    0  502 -0.20870024951E+03 -0.30413208867E+03  0.15747079901E+03  0.40106006289E+03  0.00000000000E+00 0.  1.
         15    1    5    5    0    0 -0.71895474949E+02  0.27199875058E+03  0.13883547362E+03  0.31373671462E+03  0.17770000000E+01 0. -1.
        -15    1    5    5    0    0 -0.17249618344E+02 -0.13526290057E+01  0.17892892260E+02  0.24953802529E+02  0.17770000000E+01 0.  1.
          3    1    6    6  503    0  0.26022588820E+03  0.17454907771E+03 -0.34734804224E+02  0.31526401641E+03  0.00000000000E+00 0. -1.
         -3    1    6    6    0  503  0.21193222502E+03  0.20081300678E+03 -0.97757055218E+02  0.30789214595E+03  0.00000000000E+00 0.  1.
<mgrwt>
<rscale>  0 0.82832376E+03</rscale>
<asrwt>0</asrwt>
<pdfrwt beam="1">  1        2 0.10673289E+00 0.82832376E+03</pdfrwt>
<pdfrwt beam="2">  1       -2 0.17371939E+00 0.82832376E+03</pdfrwt>
<totfact> 0.83854296E+00</totfact>
</mgrwt>
</event>
<event>
12    1  0.8033771E-008  0.8261963E+03  0.7818608E-02  0.9522854E-01
          2   -1    0    0  501    0  0.00000000000E+00  0.00000000000E+00  0.21655980329E+04  0.21655980329E+04  0.00000000000E+00 0.  1.
         -2   -1    0    0    0  501 -0.00000000000E+00 -0.00000000000E+00 -0.53267991516E+03  0.53267991516E+03  0.00000000000E+00 0. -1.
         23    2    1    2    0    0  0.39477694430E+03 -0.70656844013E+03  0.14651579158E+04  0.16763964527E+04  0.92355573705E+02 0.  0.
    5000000    2    1    2    0    0 -0.39477694430E+03  0.70656844013E+03  0.16776020193E+03  0.10218814954E+04  0.60084150064E+03 0.  0.
         23    2    4    4    0    0 -0.21003031898E+03  0.23198011556E+03  0.34549665879E+03  0.47490152199E+03  0.90752440461E+02 0.  0.
         23    2    4    4    0    0 -0.18474662531E+03  0.47458832457E+03 -0.17773645686E+03  0.54697997338E+03  0.90727337650E+02 0.  0.
          1    1    3    3  502    0  0.14443721610E+03 -0.29599086864E+03  0.68250169221E+03  0.75781347545E+03  0.00000000000E+00 0. -1.
         -1    1    3    3    0  502  0.25033972820E+03 -0.41057757149E+03  0.78265622360E+03  0.91858297723E+03  0.00000000000E+00 0.  1.
         15    1    5    5    0    0 -0.26258461027E+02  0.88323217987E+02  0.87408803036E+02  0.12701950318E+03  0.17770000000E+01 0.  1.
        -15    1    5    5    0    0 -0.18377185796E+03  0.14365689757E+03  0.25808785575E+03  0.34788201881E+03  0.17770000000E+01 0. -1.
          3    1    6    6  503    0 -0.10359796046E+03  0.15095641182E+03 -0.75216130339E+02  0.19793393328E+03  0.00000000000E+00 0. -1.
         -3    1    6    6    0  503 -0.81148664854E+02  0.32363191275E+03 -0.10252032652E+03  0.34904604010E+03  0.00000000000E+00 0.  1.
<mgrwt>
<rscale>  0 0.82619628E+03</rscale>
<asrwt>0</asrwt>
<pdfrwt beam="1">  1        2 0.33316892E+00 0.82619628E+03</pdfrwt>
<pdfrwt beam="2">  1       -2 0.81950757E-01 0.82619628E+03</pdfrwt>
<totfact> 0.72643340E+00</totfact>
</mgrwt>
</event>
<event>
12    1  0.8033771E-008  0.5451226E+03  0.7818608E-02  0.1002629E+00
         -2   -1    0    0    0  501 -0.00000000000E+00  0.00000000000E+00  0.47272191593E+03  0.47272191593E+03  0.00000000000E+00 0.  1.
          2   -1    0    0  501    0  0.00000000000E+00 -0.00000000000E+00 -0.14187165666E+04  0.14187165666E+04  0.00000000000E+00 0. -1.
         23    2    1    2    0    0  0.36920530552E+03 -0.26383450061E+03 -0.10351984676E+04  0.11339423188E+04  0.90929168334E+02 0.  0.
    5000000    2    1    2    0    0 -0.36920530552E+03  0.26383450061E+03  0.89203816981E+02  0.75749616370E+03  0.59993492624E+03 0.  0.
         23    2    4    4    0    0 -0.44140418118E+03  0.12144939261E+03  0.23493229317E+03  0.52274180047E+03  0.92077149498E+02 0.  0.
         23    2    4    4    0    0  0.72198875657E+02  0.14238510800E+03 -0.14572847619E+03  0.23475436323E+03  0.91578521815E+02 0.  0.
          1    1    3    3  502    0  0.73504758750E+02 -0.99999818391E+02 -0.25215794868E+03  0.28104544886E+03  0.00000000000E+00 0. -1.
         -1    1    3    3    0  502  0.29570054677E+03 -0.16383468222E+03 -0.78304051896E+03  0.85289686996E+03  0.00000000000E+00 0.  1.
         15    1    5    5    0    0 -0.27472178574E+03  0.11553997443E+03  0.12631905262E+03  0.32369925245E+03  0.17770000000E+01 0.  1.
        -15    1    5    5    0    0 -0.16668239544E+03  0.59094181815E+01  0.10861324055E+03  0.19904254802E+03  0.17770000000E+01 0. -1.
          3    1    6    6  503    0  0.12718292524E+02  0.52259969325E+01 -0.61789289943E+02  0.63300729540E+02  0.00000000000E+00 0. -1.
         -3    1    6    6    0  503  0.59480583134E+02  0.13715911106E+03 -0.83939186243E+02  0.17145363369E+03  0.00000000000E+00 0.  1.
<mgrwt>
<rscale>  0 0.54512256E+03</rscale>
<asrwt>0</asrwt>
<pdfrwt beam="1">  1        2 0.21826408E+00 0.54512256E+03</pdfrwt>
<pdfrwt beam="2">  1       -2 0.72726450E-01 0.54512256E+03</pdfrwt>
<totfact> 0.25364665E+01</totfact>
</mgrwt>
</event>
<event>
12    1  0.8033771E-008  0.1047541E+04  0.7818608E-02  0.9257887E-01
          1   -1    0    0  501    0  0.00000000000E+00  0.00000000000E+00  0.18227706734E+04  0.18227706734E+04  0.00000000000E+00 0. -1.
         -1   -1    0    0    0  501 -0.00000000000E+00 -0.00000000000E+00 -0.65557869507E+03  0.65557869507E+03  0.00000000000E+00 0.  1.
         23    2    1    2    0    0 -0.97244073325E+03  0.40290259111E+02  0.84019550850E+03  0.12891040417E+04  0.92717059253E+02 0.  0.
    5000000    2    1    2    0    0  0.97244073325E+03 -0.40290259111E+02  0.32699646979E+03  0.11892453268E+04  0.60009455199E+03 0.  0.
         23    2    4    4    0    0  0.99816989571E+03  0.59800438458E+02  0.30593820415E+03  0.10495565490E+04  0.89730327205E+02 0.  0.
         23    2    4    4    0    0 -0.25729162462E+02 -0.10009069757E+03  0.21058265643E+02  0.13968877778E+03  0.91593485279E+02 0.  0.
          3    1    3    3  502    0 -0.44855004604E+03 -0.34037561738E+01  0.44067292953E+03  0.62880947845E+03  0.00000000000E+00 0. -1.
         -3    1    3    3    0  502 -0.52389068720E+03  0.43694015285E+02  0.39952257896E+03  0.66029456322E+03  0.00000000000E+00 0.  1.
         15    1    5    5    0    0  0.13409059179E+03 -0.19369905883E+02  0.55671756416E+02  0.14648543358E+03  0.17770000000E+01 0.  1.
        -15    1    5    5    0    0  0.86407930392E+03  0.79170344341E+02  0.25026644773E+03  0.90307111540E+03  0.17770000000E+01 0. -1.
          1    1    6    6  503    0  0.16386502509E+02 -0.13151077356E+02 -0.25008781120E+02  0.32663548999E+02  0.00000000000E+00 0. -1.
         -1    1    6    6    0  503 -0.42115664971E+02 -0.86939620213E+02  0.46067046763E+02  0.10702522878E+03  0.00000000000E+00 0.  1.
<mgrwt>
<rscale>  0 0.10475409E+04</rscale>
<asrwt>0</asrwt>
<pdfrwt beam="1">  1        1 0.28042626E+00 0.10475409E+04</pdfrwt>
<pdfrwt beam="2">  1       -1 0.10085826E+00 0.10475409E+04</pdfrwt>
<totfact> 0.36842856E+00</totfact>
</mgrwt>
</event>
<event>
12    1  0.8033771E-008  0.1470840E+04  0.7818608E-02  0.8904079E-01
          1   -1    0    0  501    0  0.00000000000E+00  0.00000000000E+00  0.23859992404E+04  0.23859992404E+04  0.00000000000E+00 0. -1.
         -1   -1    0    0    0  501 -0.00000000000E+00 -0.00000000000E+00 -0.99500530370E+03  0.99500530370E+03  0.00000000000E+00 0.  1.
         23    2    1    2    0    0  0.17719619012E+03 -0.14439964880E+04  0.97328826041E+03  0.17527896632E+04  0.91963137581E+02 0.  0.
    5000000    2    1    2    0    0 -0.17719619012E+03  0.14439964880E+04  0.41770567627E+03  0.16282148808E+04  0.60006776218E+03 0.  0.
         23    2    4    4    0    0  0.70093319256E+02  0.47882789115E+03 -0.99251959659E+02  0.50184811388E+03  0.88381871190E+02 0.  0.
         23    2    4    4    0    0 -0.24728950938E+03  0.96516859680E+03  0.51695763593E+03  0.11263667670E+04  0.93564815451E+02 0.  0.
          1    1    3    3  502    0  0.11252876236E+03 -0.62988775058E+03  0.39240199834E+03  0.75060017919E+03  0.00000000000E+00 0. -1.
         -1    1    3    3    0  502  0.64667427764E+02 -0.81410873738E+03  0.58088626207E+03  0.10021894841E+04  0.00000000000E+00 0.  1.
         15    1    5    5    0    0  0.30921597693E+01  0.99259649326E+02 -0.55909514649E+02  0.11397837950E+03  0.17770000000E+01 0.  1.
        -15    1    5    5    0    0  0.67001159487E+02  0.37956824183E+03 -0.43342445010E+02  0.38786973438E+03  0.17770000000E+01 0. -1.
          3    1    6    6  503    0 -0.12389339242E+01  0.12298849174E+03  0.73427774335E+02  0.14324574025E+03  0.00000000000E+00 0. -1.
         -3    1    6    6    0  503 -0.24605057545E+03  0.84218010507E+03  0.44352986159E+03  0.98312102672E+03  0.00000000000E+00 0.  1.
<mgrwt>
<rscale>  0 0.14708398E+04</rscale>
<asrwt>0</asrwt>
<pdfrwt beam="1">  1        1 0.36707681E+00 0.14708398E+04</pdfrwt>
<pdfrwt beam="2">  1       -1 0.15307774E+00 0.14708398E+04</pdfrwt>
<totfact> 0.51090865E-01</totfact>
</mgrwt>
</event>
<event>
12    1  0.8033771E-008  0.4297887E+03  0.7818608E-02  0.1033927E+00
         -2   -1    0    0    0  501 -0.00000000000E+00  0.00000000000E+00  0.40729589743E+03  0.40729589743E+03  0.00000000000E+00 0.  1.
          2   -1    0    0  501    0  0.00000000000E+00 -0.00000000000E+00 -0.84668826744E+03  0.84668826744E+03  0.00000000000E+00 0. -1.
         23    2    1    2    0    0 -0.17904808882E+03 -0.15757836798E+03  0.21533208680E+03  0.33439510738E+03  0.92536587720E+02 0.  0.
    5000000    2    1    2    0    0  0.17904808882E+03  0.15757836798E+03 -0.65472445682E+03  0.91958905749E+03  0.60007562868E+03 0.  0.
         23    2    4    4    0    0  0.37978693734E+03  0.10153821309E+03 -0.50999272443E+03  0.65020639133E+03  0.90153457312E+02 0.  0.
         23    2    4    4    0    0 -0.20073884851E+03  0.56040154888E+02 -0.14473173239E+03  0.26938266616E+03  0.90460832435E+02 0.  0.
          4    1    3    3  502    0 -0.14367156739E+03 -0.84856824770E+02  0.18203384983E+03  0.24693829689E+03  0.00000000000E+00 0.  1.
         -4    1    3    3    0  502 -0.35376521430E+02 -0.72721543209E+02  0.33298236967E+02  0.87456810486E+02  0.00000000000E+00 0. -1.
         15    1    5    5    0    0  0.28256770100E+03  0.75213871576E+02 -0.30924938208E+03  0.42560541605E+03  0.17770000000E+01 0. -1.
        -15    1    5    5    0    0  0.97219236341E+02  0.26324341515E+02 -0.20074334235E+03  0.22460097528E+03  0.17770000000E+01 0.  1.
          4    1    6    6  503    0 -0.46145981949E+02  0.43800330201E+02 -0.77736270370E+02  0.10045321452E+03  0.00000000000E+00 0.  1.
         -4    1    6    6    0  503 -0.15459286657E+03  0.12239824687E+02 -0.66995462015E+02  0.16892945164E+03  0.00000000000E+00 0. -1.
<mgrwt>
<rscale>  0 0.42978869E+03</rscale>
<asrwt>0</asrwt>
<pdfrwt beam="1">  1        2 0.13025973E+00 0.42978869E+03</pdfrwt>
<pdfrwt beam="2">  1       -2 0.62660908E-01 0.42978869E+03</pdfrwt>
<totfact> 0.78698795E+01</totfact>
</mgrwt>
</event>
<event>
12    1  0.8033771E-008  0.1294376E+04  0.7818608E-02  0.9034037E-01
         -1   -1    0    0    0  501 -0.00000000000E+00  0.00000000000E+00  0.16944415558E+04  0.16944415558E+04  0.00000000000E+00 0.  1.
          1   -1    0    0  501    0  0.00000000000E+00 -0.00000000000E+00 -0.12705735430E+04  0.12705735430E+04  0.00000000000E+00 0. -1.
         23    2    1    2    0    0  0.97708150998E+03 -0.74315702995E+03  0.89241141138E+03  0.15204769008E+04  0.92093596014E+02 0.  0.
    5000000    2    1    2    0    0 -0.97708150998E+03  0.74315702995E+03 -0.46854339865E+03  0.14445381980E+04  0.60015584703E+03 0.  0.
         23    2    4    4    0    0 -0.12834452320E+03  0.42390510893E+03 -0.20832154101E+03  0.49720314429E+03  0.87437087283E+02 0.  0.
         23    2    4    4    0    0 -0.84873698678E+03  0.31925192102E+03 -0.26022185764E+03  0.94733505370E+03  0.86325123593E+02 0.  0.
          3    1    3    3  502    0  0.14770650979E+03 -0.10088741851E+03  0.17024963792E+03  0.24694214597E+03  0.00000000000E+00 0. -1.
         -3    1    3    3    0  502  0.82937500019E+03 -0.64226961144E+03  0.72216177346E+03  0.12735347548E+04  0.00000000000E+00 0.  1.
         15    1    5    5    0    0 -0.13874648625E+03  0.34558579406E+03 -0.17393210922E+03  0.41101784006E+03  0.17770000000E+01 0. -1.
        -15    1    5    5    0    0  0.10401963054E+02  0.78319314874E+02 -0.34389431786E+02  0.86185304230E+02  0.17770000000E+01 0.  1.
          4    1    6    6  503    0 -0.47587741259E+03  0.21577358924E+03 -0.12319723485E+03  0.53683806898E+03  0.00000000000E+00 0. -1.
         -4    1    6    6    0  503 -0.37285957419E+03  0.10347833178E+03 -0.13702462279E+03  0.41049698472E+03  0.00000000000E+00 0.  1.
<mgrwt>
<rscale>  0 0.12943758E+04</rscale>
<asrwt>0</asrwt>
<pdfrwt beam="1">  1        1 0.19547285E+00 0.12943758E+04</pdfrwt>
<pdfrwt beam="2">  1       -1 0.26068332E+00 0.12943758E+04</pdfrwt>
<totfact> 0.54706190E-01</totfact>
</mgrwt>
</event>
<event>
12    1  0.8033771E-008  0.4161732E+03  0.7818608E-02  0.1038319E+00
          2   -1    0    0  501    0  0.00000000000E+00  0.00000000000E+00  0.11644247413E+04  0.11644247413E+04  0.00000000000E+00 0.  1.
         -2   -1    0    0    0  501 -0.00000000000E+00 -0.00000000000E+00 -0.20710981654E+03  0.20710981654E+03  0.00000000000E+00 0. -1.
         23    2    1    2    0    0 -0.41084924000E+02  0.19453097752E+03 -0.63021487960E+01  0.21908392949E+03  0.91802935053E+02 0.  0.
    5000000    2    1    2    0    0  0.41084924000E+02 -0.19453097752E+03  0.96361707353E+03  0.11524506283E+04  0.60004526008E+03 0.  0.
         23    2    4    4    0    0  0.18390992801E+03 -0.34113013488E+03  0.52115858279E+03  0.65568303326E+03  0.90118483918E+02 0.  0.
         23    2    4    4    0    0 -0.14282500401E+03  0.14659915736E+03  0.44245849074E+03  0.49676759507E+03  0.95489438045E+02 0.  0.
          1    1    3    3  502    0  0.16236343756E+02  0.75615575374E+02 -0.33531126971E+02  0.84295139680E+02  0.00000000000E+00 0. -1.
         -1    1    3    3    0  502 -0.57321267757E+02  0.11891540215E+03  0.27228978175E+02  0.13478878981E+03  0.00000000000E+00 0.  1.
         15    1    5    5    0    0  0.17099896130E+03 -0.23396348215E+03  0.37209089384E+03  0.47162945917E+03  0.17770000000E+01 0.  1.
        -15    1    5    5    0    0  0.12910966712E+02 -0.10716665273E+03  0.14906768895E+03  0.18405357410E+03  0.17770000000E+01 0. -1.
          3    1    6    6  503    0 -0.13218994537E+03  0.73251514532E+02  0.31357321888E+03  0.34809212809E+03  0.00000000000E+00 0. -1.
         -3    1    6    6    0  503 -0.10635058636E+02  0.73347642827E+02  0.12888527186E+03  0.14867546699E+03  0.00000000000E+00 0.  1.
<mgrwt>
<rscale>  0 0.41617324E+03</rscale>
<asrwt>0</asrwt>
<pdfrwt beam="1">  1        2 0.17914226E+00 0.41617324E+03</pdfrwt>
<pdfrwt beam="2">  1       -2 0.31863049E-01 0.41617324E+03</pdfrwt>
<totfact> 0.18970795E+02</totfact>
</mgrwt>
</event>
<event>
12    1  0.8033771E-008  0.6359017E+03  0.7818608E-02  0.9833599E-01
         -1   -1    0    0    0  501 -0.00000000000E+00  0.00000000000E+00  0.13621088596E+03  0.13621088596E+03  0.00000000000E+00 0.  1.
          1   -1    0    0  501    0  0.00000000000E+00 -0.00000000000E+00 -0.31773434743E+04  0.31773434743E+04  0.00000000000E+00 0. -1.
         23    2    1    2    0    0 -0.37681910923E+03  0.34502753598E+03 -0.10341845800E+04  0.11574280114E+04  0.95211420103E+02 0.  0.
    5000000    2    1    2    0    0  0.37681910923E+03 -0.34502753598E+03 -0.20069480084E+04  0.21561263488E+04  0.60000323517E+03 0.  0.
         23    2    4    4    0    0  0.44473466022E+03 -0.44479492069E+03 -0.16921426774E+04  0.18070610376E+04  0.80568687099E+02 0.  0.
         23    2    4    4    0    0 -0.67915550992E+02  0.99767384714E+02 -0.31480533097E+03  0.34906531128E+03  0.90433080289E+02 0.  0.
          4    1    3    3  502    0 -0.13782519739E+03  0.13190468774E+03 -0.49271176449E+03  0.52835548123E+03  0.00000000000E+00 0. -1.
         -4    1    3    3    0  502 -0.23899391184E+03  0.21312284823E+03 -0.54147281550E+03  0.62907253021E+03  0.00000000000E+00 0.  1.
         15    1    5    5    0    0  0.99228413161E+02 -0.62397251198E+02 -0.36500444465E+03  0.38336809633E+03  0.17770000000E+01 0.  1.
        -15    1    5    5    0    0  0.34550624706E+03 -0.38239766949E+03 -0.13271382327E+04  0.14236929412E+04  0.17770000000E+01 0. -1.
          3    1    6    6  503    0 -0.29515119448E+02  0.11005477556E+02 -0.16676633512E+02  0.35642291138E+02  0.00000000000E+00 0. -1.
         -3    1    6    6    0  503 -0.38400431544E+02  0.88761907158E+02 -0.29812869746E+03  0.31342302014E+03  0.00000000000E+00 0.  1.
<mgrwt>
<rscale>  0 0.63590173E+03</rscale>
<asrwt>0</asrwt>
<pdfrwt beam="1">  1        1 0.48882206E+00 0.63590173E+03</pdfrwt>
<pdfrwt beam="2">  1       -1 0.20955522E-01 0.63590173E+03</pdfrwt>
<totfact> 0.91073432E+00</totfact>
</mgrwt>
</event>
<event>
12    1  0.8033771E-008  0.8659574E+03  0.7818608E-02  0.9469166E-01
          2   -1    0    0  501    0  0.00000000000E+00  0.00000000000E+00  0.25898592483E+04  0.25898592483E+04  0.00000000000E+00 0. -1.
         -2   -1    0    0    0  501 -0.00000000000E+00 -0.00000000000E+00 -0.32977366690E+03  0.32977366690E+03  0.00000000000E+00 0.  1.
         23    2    1    2    0    0  0.62570619249E+03  0.50184516703E+03  0.13118933176E+04  0.15403386802E+04  0.90677241620E+02 0.  0.
    5000000    2    1    2    0    0 -0.62570619249E+03 -0.50184516703E+03  0.94819226380E+03  0.13792942349E+04  0.60002267159E+03 0.  0.
         23    2    4    4    0    0 -0.13987386425E+03 -0.39015207467E+03  0.18466546503E+03  0.46347312154E+03  0.94459838784E+02 0.  0.
         23    2    4    4    0    0 -0.48583232824E+03 -0.11169309236E+03  0.76352679878E+03  0.91582111340E+03  0.85127793755E+02 0.  0.
          2    1    3    3  502    0  0.60722857781E+03  0.48054124401E+03  0.12273720171E+04  0.14512368866E+04  0.00000000000E+00 0. -1.
         -2    1    3    3    0  502  0.18477614680E+02  0.21303923015E+02  0.84521300512E+02  0.89101793587E+02  0.00000000000E+00 0.  1.
         15    1    5    5    0    0 -0.85853033215E+02 -0.11550128839E+03  0.46046348840E+02  0.15111159751E+03  0.17770000000E+01 0.  1.
        -15    1    5    5    0    0 -0.54020831037E+02 -0.27465078628E+03  0.13861911619E+03  0.31236152402E+03  0.17770000000E+01 0. -1.
          4    1    6    6  503    0 -0.12745742004E+03  0.78920005285E+01  0.20479913512E+03  0.24135112045E+03  0.00000000000E+00 0.  1.
         -4    1    6    6    0  503 -0.35837490819E+03 -0.11958509288E+03  0.55872766365E+03  0.67446999295E+03  0.00000000000E+00 0. -1.
<mgrwt>
<rscale>  0 0.86595744E+03</rscale>
<asrwt>0</asrwt>
<pdfrwt beam="1">  1        2 0.39843987E+00 0.86595744E+03</pdfrwt>
<pdfrwt beam="2">  1       -2 0.50734412E-01 0.86595744E+03</pdfrwt>
<totfact> 0.11693813E+01</totfact>
</mgrwt>
</event>
<event>
12    1  0.8033771E-008  0.6735025E+03  0.7818608E-02  0.9763651E-01
         -2   -1    0    0    0  501 -0.00000000000E+00  0.00000000000E+00  0.11955615003E+04  0.11955615003E+04  0.00000000000E+00 0.  1.
          2   -1    0    0  501    0  0.00000000000E+00 -0.00000000000E+00 -0.51110744200E+03  0.51110744200E+03  0.00000000000E+00 0. -1.
         23    2    1    2    0    0 -0.53968767031E+03  0.37997276468E+03  0.35994779565E+03  0.75725167804E+03  0.90695120666E+02 0.  0.
    5000000    2    1    2    0    0  0.53968767031E+03 -0.37997276468E+03  0.32450626264E+03  0.94941726426E+03  0.60037217107E+03 0.  0.
         23    2    4    4    0    0  0.23345858865E+03 -0.73983945926E+02 -0.14961629962E+03  0.30103783435E+03  0.90896665121E+02 0.  0.
         23    2    4    4    0    0  0.30622908166E+03 -0.30598881875E+03  0.47412256226E+03  0.64837942991E+03  0.90544317493E+02 0.  0.
          3    1    3    3  502    0 -0.13956580078E+03  0.13047068103E+03  0.14048129990E+03  0.23714174448E+03  0.00000000000E+00 0. -1.
         -3    1    3    3    0  502 -0.40012186953E+03  0.24950208365E+03  0.21946649575E+03  0.52010993355E+03  0.00000000000E+00 0.  1.
         15    1    5    5    0    0  0.15266902590E+03 -0.74456570898E+02 -0.59477808554E+02  0.17997883170E+03  0.17770000000E+01 0.  1.
        -15    1    5    5    0    0  0.80789562750E+02  0.47262497156E+00 -0.90138491062E+02  0.12105900265E+03  0.17770000000E+01 0. -1.
          3    1    6    6  503    0  0.43947938520E+02 -0.31406576182E+02  0.22971928513E+02  0.58698414180E+02  0.00000000000E+00 0.  1.
         -3    1    6    6    0  503  0.26228114314E+03 -0.27458224257E+03  0.45115063374E+03  0.58968101573E+03  0.00000000000E+00 0. -1.
<mgrwt>
<rscale>  0 0.67350253E+03</rscale>
<asrwt>0</asrwt>
<pdfrwt beam="1">  1        2 0.78631915E-01 0.67350253E+03</pdfrwt>
<pdfrwt beam="2">  1       -2 0.18393254E+00 0.67350253E+03</pdfrwt>
<totfact> 0.10490132E+01</totfact>
</mgrwt>
</event>
<event>
12    1  0.8033771E-008  0.4981085E+03  0.7818608E-02  0.1014274E+00
          2   -1    0    0  501    0  0.00000000000E+00  0.00000000000E+00  0.23725669675E+03  0.23725669675E+03  0.00000000000E+00 0. -1.
         -2   -1    0    0    0  501 -0.00000000000E+00 -0.00000000000E+00 -0.13072449984E+04  0.13072449984E+04  0.00000000000E+00 0.  1.
         23    2    1    2    0    0  0.15558874480E+03  0.29032845826E+03 -0.66886948206E+03  0.75119272860E+03  0.91682388087E+02 0.  0.
    5000000    2    1    2    0    0 -0.15558874480E+03 -0.29032845826E+03 -0.40111881956E+03  0.79330896651E+03  0.59995361300E+03 0.  0.
         23    2    4    4    0    0 -0.23057824462E+03  0.99439934405E+02 -0.22419907444E+03  0.34894103830E+03  0.91869449668E+02 0.  0.
         23    2    4    4    0    0  0.74989499824E+02 -0.38976839267E+03 -0.17691974511E+03  0.44436792821E+03  0.92840909102E+02 0.  0.
          3    1    3    3  502    0  0.96813249351E+02  0.24399758289E+03 -0.46438207624E+03  0.53344009827E+03  0.00000000000E+00 0. -1.
         -3    1    3    3    0  502  0.58775495448E+02  0.46330875370E+02 -0.20448740582E+03  0.21775263033E+03  0.00000000000E+00 0.  1.
         15    1    5    5    0    0 -0.14704546601E+03  0.31352106404E+02 -0.84439347289E+02  0.17244849884E+03  0.17770000000E+01 0.  1.
        -15    1    5    5    0    0 -0.83532778609E+02  0.68087828001E+02 -0.13975972715E+03  0.17649253947E+03  0.17770000000E+01 0. -1.
          4    1    6    6  503    0  0.12599371578E+02 -0.21123359900E+03 -0.13389921610E+03  0.25041441169E+03  0.00000000000E+00 0. -1.
         -4    1    6    6    0  503  0.62390128246E+02 -0.17853479367E+03 -0.43020529011E+02  0.19395351651E+03  0.00000000000E+00 0.  1.
<mgrwt>
<rscale>  0 0.49810849E+03</rscale>
<asrwt>0</asrwt>
<pdfrwt beam="1">  1        2 0.36501030E-01 0.49810849E+03</pdfrwt>
<pdfrwt beam="2">  1       -2 0.20111461E+00 0.49810849E+03</pdfrwt>
<totfact> 0.19461116E+01</totfact>
</mgrwt>
</event>
<event>
12    1  0.8033771E-008  0.1158907E+04  0.7818608E-02  0.9149606E-01
          2   -1    0    0  501    0  0.00000000000E+00  0.00000000000E+00  0.26140394881E+04  0.26140394881E+04  0.00000000000E+00 0.  1.
         -2   -1    0    0    0  501 -0.00000000000E+00 -0.00000000000E+00 -0.52038238443E+03  0.52038238443E+03  0.00000000000E+00 0. -1.
         23    2    1    2    0    0 -0.34980417560E+03  0.10281193292E+04  0.91058960924E+03  0.14202215639E+04  0.91997487636E+02 0.  0.
    5000000    2    1    2    0    0  0.34980417560E+03 -0.10281193292E+04  0.11830674944E+04  0.17142003086E+04  0.59953455726E+03 0.  0.
         23    2    4    4    0    0 -0.11259753387E+03 -0.55018629031E+03  0.51737108884E+03  0.76889266861E+03  0.90221580530E+02 0.  0.
         23    2    4    4    0    0  0.46240170947E+03 -0.47793303890E+03  0.66569640555E+03  0.94530763999E+03  0.90661454119E+02 0.  0.
          1    1    3    3  502    0 -0.21361153666E+03  0.65948793529E+03  0.63635999258E+03  0.94101448743E+03  0.00000000000E+00 0. -1.
         -1    1    3    3    0  502 -0.13619263894E+03  0.36863139392E+03  0.27422961666E+03  0.47920707647E+03  0.00000000000E+00 0.  1.
         15    1    5    5    0    0 -0.54394120517E+02 -0.19254151797E+03  0.24062093623E+03  0.31294176642E+03  0.17770000000E+01 0. -1.
        -15    1    5    5    0    0 -0.58203413356E+02 -0.35764477234E+03  0.27675015261E+03  0.45595090219E+03  0.17770000000E+01 0.  1.
          3    1    6    6  503    0  0.41544483337E+03 -0.39172785464E+03  0.59246702419E+03  0.82283795271E+03  0.00000000000E+00 0. -1.
         -3    1    6    6    0  503  0.46956876101E+02 -0.86205184263E+02  0.73229381366E+02  0.12246968728E+03  0.00000000000E+00 0.  1.
<mgrwt>
<rscale>  0 0.11589066E+04</rscale>
<asrwt>0</asrwt>
<pdfrwt beam="1">  1        2 0.40215991E+00 0.11589066E+04</pdfrwt>
<pdfrwt beam="2">  1       -2 0.80058830E-01 0.11589066E+04</pdfrwt>
<totfact> 0.40892513E+00</totfact>
</mgrwt>
</event>
<event>
12    1  0.8033771E-008  0.7224743E+03  0.7818608E-02  0.9679552E-01
         -2   -1    0    0    0  501 -0.00000000000E+00  0.00000000000E+00  0.26105221724E+03  0.26105221724E+03  0.00000000000E+00 0.  1.
          2   -1    0    0  501    0  0.00000000000E+00 -0.00000000000E+00 -0.23969569547E+04  0.23969569547E+04  0.00000000000E+00 0. -1.
         23    2    1    2    0    0 -0.75146172401E+02  0.66924146410E+03 -0.88652762626E+03  0.11170463594E+04  0.91270217074E+02 0.  0.
    5000000    2    1    2    0    0  0.75146172401E+02 -0.66924146410E+03 -0.12493771112E+04  0.15409628125E+04  0.60007677759E+03 0.  0.
         23    2    4    4    0    0 -0.13582981516E+03 -0.38853546742E+03 -0.10375402402E+04  0.11206647144E+04  0.99950507649E+02 0.  0.
         23    2    4    4    0    0  0.21097598756E+03 -0.28070599667E+03 -0.21183687101E+03  0.42029809808E+03  0.92026666975E+02 0.  0.
          1    1    3    3  502    0 -0.15812773628E+02  0.48778379134E+03 -0.61487984520E+03  0.78502248053E+03  0.00000000000E+00 0. -1.
         -1    1    3    3    0  502 -0.59333398773E+02  0.18145767275E+03 -0.27164778105E+03  0.33202387890E+03  0.00000000000E+00 0.  1.
         15    1    5    5    0    0 -0.25526638566E+02 -0.93774554176E+02 -0.37152541015E+03  0.38403068160E+03  0.17770000000E+01 0.  1.
        -15    1    5    5    0    0 -0.11030317660E+03 -0.29476091325E+03 -0.66601483004E+03  0.73663403282E+03  0.17770000000E+01 0. -1.
          3    1    6    6  503    0  0.13563862056E+03 -0.14298529067E+03 -0.16340931533E+03  0.25601803271E+03  0.00000000000E+00 0. -1.
         -3    1    6    6    0  503  0.75337367004E+02 -0.13772070600E+03 -0.48427555673E+02  0.16428006537E+03  0.00000000000E+00 0.  1.
<mgrwt>
<rscale>  0 0.72247431E+03</rscale>
<asrwt>0</asrwt>
<pdfrwt beam="1">  1        2 0.36876262E+00 0.72247431E+03</pdfrwt>
<pdfrwt beam="2">  1       -2 0.40161879E-01 0.72247431E+03</pdfrwt>
<totfact> 0.24507820E+01</totfact>
</mgrwt>
</event>
<event>
12    1  0.8033771E-008  0.4384019E+03  0.7818608E-02  0.1031238E+00
         -2   -1    0    0    0  501 -0.00000000000E+00  0.00000000000E+00  0.13616512724E+03  0.13616512724E+03  0.00000000000E+00 0.  1.
          2   -1    0    0  501    0  0.00000000000E+00 -0.00000000000E+00 -0.16275381028E+04  0.16275381028E+04  0.00000000000E+00 0. -1.
         23    2    1    2    0    0 -0.16288048512E+03 -0.16809100183E+03 -0.20474596869E+03  0.32484376974E+03  0.93903810955E+02 0.  0.
    5000000    2    1    2    0    0  0.16288048512E+03  0.16809100183E+03 -0.12866270069E+04  0.14388594603E+04  0.60010236990E+03 0.  0.
         23    2    4    4    0    0  0.37669710625E+03  0.12593368786E+03 -0.87059290978E+03  0.96144137710E+03  0.93153118292E+02 0.  0.
         23    2    4    4    0    0 -0.21381662113E+03  0.42157313969E+02 -0.41603409707E+03  0.47741808318E+03  0.85725548307E+02 0.  0.
          1    1    3    3  502    0 -0.63652692632E+02 -0.13178333223E+03 -0.11277060673E+03  0.18475854967E+03  0.00000000000E+00 0. -1.
         -1    1    3    3    0  502 -0.99227792493E+02 -0.36307669603E+02 -0.91975361958E+02  0.14008522007E+03  0.00000000000E+00 0.  1.
         15    1    5    5    0    0  0.30894537591E+03  0.13545761601E+03 -0.68330462258E+03  0.76203961577E+03  0.17770000000E+01 0.  1.
        -15    1    5    5    0    0  0.67751730336E+02 -0.95239281487E+01 -0.18728828720E+03  0.19940176133E+03  0.17770000000E+01 0. -1.
          1    1    6    6  503    0 -0.40775560923E+02 -0.53611790622E+00 -0.16228530888E+03  0.16733037761E+03  0.00000000000E+00 0. -1.
         -1    1    6    6    0  503 -0.17304106020E+03  0.42693431876E+02 -0.25374878819E+03  0.31008770558E+03  0.00000000000E+00 0.  1.
<mgrwt>
<rscale>  0 0.43840186E+03</rscale>
<asrwt>0</asrwt>
<pdfrwt beam="1">  1        2 0.25039050E+00 0.43840186E+03</pdfrwt>
<pdfrwt beam="2">  1       -2 0.20948479E-01 0.43840186E+03</pdfrwt>
<totfact> 0.22191812E+02</totfact>
</mgrwt>
</event>
<event>
12    1  0.8033771E-008  0.8437980E+03  0.7818608E-02  0.9498699E-01
          1   -1    0    0  501    0  0.00000000000E+00  0.00000000000E+00  0.28571222980E+04  0.28571222980E+04  0.00000000000E+00 0. -1.
         -1   -1    0    0    0  501 -0.00000000000E+00 -0.00000000000E+00 -0.32744577091E+03  0.32744577091E+03  0.00000000000E+00 0.  1.
         23    2    1    2    0    0 -0.45155181964E+03 -0.62292259844E+03  0.18208457736E+04  0.19787096167E+04  0.88773906236E+02 0.  0.
    5000000    2    1    2    0    0  0.45155181964E+03  0.62292259844E+03  0.70883075353E+03  0.12058584523E+04  0.59976825549E+03 0.  0.
         23    2    4    4    0    0  0.34934119250E+01 -0.57567844213E+02 -0.18090743631E+02  0.11018242715E+03  0.92122915895E+02 0.  0.
         23    2    4    4    0    0  0.44805840771E+03  0.68049044265E+03  0.72692149716E+03  0.10956760251E+04  0.90925847395E+02 0.  0.
          1    1    3    3  502    0 -0.20260088519E+03 -0.20768939400E+03  0.66118164768E+03  0.72204097826E+03  0.00000000000E+00 0. -1.
         -1    1    3    3    0  502 -0.24895093445E+03 -0.41523320445E+03  0.11596641259E+04  0.12566686384E+04  0.00000000000E+00 0.  1.
         15    1    5    5    0    0 -0.36245182845E+02 -0.27287845241E+02  0.17665660110E+02  0.48719329362E+02  0.17770000000E+01 0. -1.
        -15    1    5    5    0    0  0.39738594770E+02 -0.30279998972E+02 -0.35756403740E+02  0.61463097786E+02  0.17770000000E+01 0.  1.
          4    1    6    6  503    0  0.10981715765E+03  0.11518682311E+03  0.11294135954E+03  0.19515010383E+03  0.00000000000E+00 0.  1.
         -4    1    6    6    0  503  0.33824125007E+03  0.56530361955E+03  0.61398013763E+03  0.90052592129E+03  0.00000000000E+00 0. -1.
<mgrwt>
<rscale>  0 0.84379796E+03</rscale>
<asrwt>0</asrwt>
<pdfrwt beam="1">  1        1 0.43955726E+00 0.84379796E+03</pdfrwt>
<pdfrwt beam="2">  1       -1 0.50376274E-01 0.84379796E+03</pdfrwt>
<totfact> 0.31523214E+00</totfact>
</mgrwt>
</event>
<event>
12    1  0.8033771E-008  0.1465024E+04  0.7818608E-02  0.8908051E-01
          2   -1    0    0  501    0  0.00000000000E+00  0.00000000000E+00  0.21301579112E+04  0.21301579112E+04  0.00000000000E+00 0. -1.
         -2   -1    0    0    0  501 -0.00000000000E+00 -0.00000000000E+00 -0.17272212192E+04  0.17272212192E+04  0.00000000000E+00 0.  1.
         23    2    1    2    0    0  0.94198434923E+03  0.10489174337E+04 -0.10387927617E+04  0.17535502207E+04  0.91025698757E+02 0.  0.
    5000000    2    1    2    0    0 -0.94198434923E+03 -0.10489174337E+04  0.14417294536E+04  0.21038289097E+04  0.59995830438E+03 0.  0.
         23    2    4    4    0    0 -0.95078011328E+03 -0.75221434771E+03  0.10749123243E+04  0.16227359569E+04  0.89589241486E+02 0.  0.
         23    2    4    4    0    0  0.87957640480E+01 -0.29670308600E+03  0.36681712929E+03  0.48109295279E+03  0.93731191077E+02 0.  0.
          4    1    3    3  502    0  0.42667494981E+03  0.53929444733E+03 -0.48690940312E+03  0.84259763859E+03  0.00000000000E+00 0. -1.
         -4    1    3    3    0  502  0.51530939941E+03  0.50962298638E+03 -0.55188335855E+03  0.91095258209E+03  0.00000000000E+00 0.  1.
         15    1    5    5    0    0 -0.30902742070E+03 -0.29855434874E+03  0.38757098709E+03  0.57865972182E+03  0.17770000000E+01 0.  1.
        -15    1    5    5    0    0 -0.64175269257E+03 -0.45365999897E+03  0.68734133721E+03  0.10440762351E+04  0.17770000000E+01 0. -1.
          1    1    6    6  503    0  0.32377110733E+02 -0.19088021202E+03  0.17611042929E+03  0.26172202037E+03  0.00000000000E+00 0. -1.
         -1    1    6    6    0  503 -0.23581346685E+02 -0.10582287398E+03  0.19070670000E+03  0.21937093243E+03  0.00000000000E+00 0.  1.
<mgrwt>
<rscale>  0 0.14650236E+04</rscale>
<asrwt>0</asrwt>
<pdfrwt beam="1">  1        2 0.32771660E+00 0.14650236E+04</pdfrwt>
<pdfrwt beam="2">  1       -2 0.26572634E+00 0.14650236E+04</pdfrwt>
<totfact> 0.27380658E-01</totfact>
</mgrwt>
</event>
<event>
12    1  0.8033771E-008  0.6695623E+03  0.7818608E-02  0.9770749E-01
          1   -1    0    0  501    0  0.00000000000E+00  0.00000000000E+00  0.11944183563E+04  0.11944183563E+04  0.00000000000E+00 0. -1.
         -1   -1    0    0    0  501 -0.00000000000E+00 -0.00000000000E+00 -0.76113733444E+03  0.76113733444E+03  0.00000000000E+00 0.  1.
         23    2    1    2    0    0  0.51676875088E+03  0.30759578864E+03 -0.42961481125E+03  0.74462111042E+03  0.90700611676E+02 0.  0.
    5000000    2    1    2    0    0 -0.51676875088E+03 -0.30759578864E+03  0.86289583306E+03  0.12109345803E+04  0.60009018313E+03 0.  0.
         23    2    4    4    0    0 -0.34446244665E+02 -0.21726713710E+03  0.28916741734E+02  0.23899526614E+03  0.88831338213E+02 0.  0.
         23    2    4    4    0    0 -0.48232250622E+03 -0.90328651540E+02  0.83397909133E+03  0.97193931413E+03  0.91381837823E+02 0.  0.
          4    1    3    3  502    0  0.89591974055E+02  0.96568398496E+02 -0.92436386440E+02  0.16092440132E+03  0.00000000000E+00 0. -1.
         -4    1    3    3    0  502  0.42717677683E+03  0.21102739014E+03 -0.33717842481E+03  0.58369670909E+03  0.00000000000E+00 0.  1.
         15    1    5    5    0    0 -0.10720112202E+02 -0.21174869220E+03  0.31810305695E+02  0.21440028622E+03  0.17770000000E+01 0. -1.
        -15    1    5    5    0    0 -0.23726132463E+02 -0.55184449005E+01 -0.28935639616E+01  0.24594979918E+02  0.17770000000E+01 0.  1.
          2    1    6    6  503    0 -0.12627783545E+03  0.33591613381E+01  0.27477364775E+03  0.30242012695E+03  0.00000000000E+00 0. -1.
         -2    1    6    6    0  503 -0.35604467077E+03 -0.93687812879E+02  0.55920544358E+03  0.66951918718E+03  0.00000000000E+00 0.  1.
<mgrwt>
<rscale>  0 0.66956234E+03</rscale>
<asrwt>0</asrwt>
<pdfrwt beam="1">  1        1 0.18375667E+00 0.66956234E+03</pdfrwt>
<pdfrwt beam="2">  1       -1 0.11709805E+00 0.66956234E+03</pdfrwt>
<totfact> 0.74393730E+00</totfact>
</mgrwt>
</event>
<event>
12    1  0.8033771E-008  0.8641236E+03  0.7818608E-02  0.9471574E-01
         -2   -1    0    0    0  501 -0.00000000000E+00  0.00000000000E+00  0.30711697239E+03  0.30711697239E+03  0.00000000000E+00 0.  1.
          2   -1    0    0  501    0  0.00000000000E+00 -0.00000000000E+00 -0.32740657233E+04  0.32740657233E+04  0.00000000000E+00 0. -1.
         23    2    1    2    0    0 -0.82774202837E+03 -0.18261182057E+03 -0.19477514275E+04  0.21261185126E+04  0.90223965866E+02 0.  0.
    5000000    2    1    2    0    0  0.82774202837E+03  0.18261182057E+03 -0.10191973234E+04  0.14550641830E+04  0.59995387335E+03 0.  0.
         23    2    4    4    0    0  0.70996277614E+03  0.84365782811E+02 -0.42815083665E+03  0.83807860677E+03  0.88870036478E+02 0.  0.
         23    2    4    4    0    0  0.11777925222E+03  0.98246037761E+02 -0.59104648678E+03  0.61698557627E+03  0.88379950224E+02 0.  0.
          4    1    3    3  502    0 -0.48225449108E+03 -0.66283794298E+02 -0.11667798711E+04  0.12642540105E+04  0.00000000000E+00 0. -1.
         -4    1    3    3    0  502 -0.34548753729E+03 -0.11632802627E+03 -0.78097155638E+03  0.86186450210E+03  0.00000000000E+00 0.  1.
         15    1    5    5    0    0  0.59620952947E+03  0.83519731004E+02 -0.39319369324E+03  0.71905895908E+03  0.17770000000E+01 0. -1.
        -15    1    5    5    0    0  0.11375324667E+03  0.84605180636E+00 -0.34957143410E+02  0.11901964769E+03  0.17770000000E+01 0.  1.
          2    1    6    6  503    0  0.95886434452E+02  0.10073545187E+03 -0.37746661974E+03  0.40227215736E+03  0.00000000000E+00 0. -1.
         -2    1    6    6    0  503  0.21892817772E+02 -0.24894141065E+01 -0.21357986704E+03  0.21471341891E+03  0.00000000000E+00 0.  1.
<mgrwt>
<rscale>  0 0.86412361E+03</rscale>
<asrwt>0</asrwt>
<pdfrwt beam="1">  1        2 0.50370242E+00 0.86412361E+03</pdfrwt>
<pdfrwt beam="2">  1       -2 0.47248765E-01 0.86412361E+03</pdfrwt>
<totfact> 0.51805788E+00</totfact>
</mgrwt>
</event>
<event>
12    1  0.8372724E-008  0.1377593E+04  0.7818608E-02  0.8970200E-01
         -2   -1    0    0    0  501 -0.00000000000E+00  0.00000000000E+00  0.65414557895E+03  0.65414557895E+03  0.00000000000E+00 0.  1.
          2   -1    0    0  501    0  0.00000000000E+00 -0.00000000000E+00 -0.34991958538E+04  0.34991958538E+04  0.00000000000E+00 0. -1.
         23    2    1    2    0    0 -0.79148252627E+03  0.11188481152E+04 -0.20258462747E+04  0.24476578810E+04  0.93328877662E+02 0.  0.
    5000000    2    1    2    0    0  0.79148252627E+03 -0.11188481152E+04 -0.81920400010E+03  0.17056835517E+04  0.59999624216E+03 0.  0.
         23    2    4    4    0    0  0.31981865497E+03 -0.39849203313E+03 -0.63552480824E+03  0.82068140829E+03  0.92446305998E+02 0.  0.
         23    2    4    4    0    0  0.47166387130E+03 -0.72035608204E+03 -0.18367919186E+03  0.88500214343E+03  0.90061400849E+02 0.  0.
          1    1    3    3  502    0 -0.32867263158E+03  0.39854039501E+03 -0.71947650946E+03  0.88572376781E+03  0.00000000000E+00 0. -1.
         -1    1    3    3    0  502 -0.46280989469E+03  0.72030772016E+03 -0.13063697653E+04  0.15619341132E+04  0.00000000000E+00 0.  1.
         15    1    5    5    0    0  0.55686338429E+02 -0.13175828437E+03 -0.19634646517E+03  0.24293271888E+03  0.17770000000E+01 0. -1.
        -15    1    5    5    0    0  0.26413231654E+03 -0.26673374876E+03 -0.43917834307E+03  0.57774868942E+03  0.17770000000E+01 0.  1.
          1    1    6    6  503    0  0.28987401215E+03 -0.50378343325E+03 -0.14981989888E+03  0.60022553481E+03  0.00000000000E+00 0. -1.
         -1    1    6    6    0  503  0.18178985915E+03 -0.21657264879E+03 -0.33859292981E+02  0.28477660861E+03  0.00000000000E+00 0.  1.
<mgrwt>
<rscale>  0 0.13775926E+04</rscale>
<asrwt>0</asrwt>
<pdfrwt beam="1">  1        2 0.53833783E+00 0.13775926E+04</pdfrwt>
<pdfrwt beam="2">  1       -2 0.10063778E+00 0.13775926E+04</pdfrwt>
<totfact> 0.64664915E-01</totfact>
</mgrwt>
</event>
<event>
12    1  0.8033771E-008  0.4210504E+03  0.7818608E-02  0.1036725E+00
         -2   -1    0    0    0  501 -0.00000000000E+00  0.00000000000E+00  0.13141241762E+03  0.13141241762E+03  0.00000000000E+00 0.  1.
          2   -1    0    0  501    0  0.00000000000E+00 -0.00000000000E+00 -0.14957211060E+04  0.14957211060E+04  0.00000000000E+00 0. -1.
         23    2    1    2    0    0 -0.13650359657E+03  0.16485364499E+03 -0.23263234550E+03  0.32850236126E+03  0.89364629674E+02 0.  0.
    5000000    2    1    2    0    0  0.13650359657E+03 -0.16485364499E+03 -0.11316763428E+04  0.12986311623E+04  0.59995132692E+03 0.  0.
         23    2    4    4    0    0  0.23230367937E+03 -0.33253483066E+03 -0.64658898516E+03  0.76880270980E+03  0.91847034892E+02 0.  0.
         23    2    4    4    0    0 -0.95800082801E+02  0.16768118567E+03 -0.48508735767E+03  0.52982845251E+03  0.90076681943E+02 0.  0.
          3    1    3    3  502    0 -0.21183406764E+02 -0.29916096062E+01 -0.52238766088E+02  0.56449757595E+02  0.00000000000E+00 0. -1.
         -3    1    3    3    0  502 -0.11532018980E+03  0.16784525459E+03 -0.18039357941E+03  0.27205260366E+03  0.00000000000E+00 0.  1.
         15    1    5    5    0    0  0.24460209654E+02 -0.58378334234E+02 -0.16677874252E+03  0.17839461441E+03  0.17770000000E+01 0. -1.
        -15    1    5    5    0    0  0.20784346971E+03 -0.27415649643E+03 -0.47981024264E+03  0.59040809539E+03  0.17770000000E+01 0.  1.
          1    1    6    6  503    0 -0.31682652041E+02  0.13317053644E+03 -0.26942342162E+03  0.30220384235E+03  0.00000000000E+00 0.  1.
         -1    1    6    6    0  503 -0.64117430760E+02  0.34510649229E+02 -0.21566393605E+03  0.22762461016E+03  0.00000000000E+00 0. -1.
<mgrwt>
<rscale>  0 0.42105044E+03</rscale>
<asrwt>0</asrwt>
<pdfrwt beam="1">  1        2 0.23011093E+00 0.42105044E+03</pdfrwt>
<pdfrwt beam="2">  1       -2 0.20217296E-01 0.42105044E+03</pdfrwt>
<totfact> 0.27891148E+02</totfact>
</mgrwt>
</event>
<event>
12    1  0.8033771E-008  0.7474698E+03  0.7818608E-02  0.9639328E-01
          2   -1    0    0  501    0  0.00000000000E+00  0.00000000000E+00  0.14337795596E+04  0.14337795596E+04  0.00000000000E+00 0. -1.
         -2   -1    0    0    0  501 -0.00000000000E+00 -0.00000000000E+00 -0.52733907487E+03  0.52733907487E+03  0.00000000000E+00 0.  1.
         23    2    1    2    0    0 -0.56816087118E+03 -0.36517006902E+03  0.39681548101E+00  0.68162507040E+03  0.91959905937E+02 0.  0.
    5000000    2    1    2    0    0  0.56816087118E+03  0.36517006902E+03  0.90604366926E+03  0.12794935641E+04  0.60002724525E+03 0.  0.
         23    2    4    4    0    0  0.63825888214E+03  0.31779787016E+03  0.90145242760E+03  0.11528361210E+04  0.89692562205E+02 0.  0.
         23    2    4    4    0    0 -0.70098010968E+02  0.47372198855E+02  0.45912416609E+01  0.12665744308E+03  0.94144421087E+02 0.  0.
          1    1    3    3  502    0 -0.98432885962E+02 -0.46035907234E+02  0.30745062924E+02  0.11293182319E+03  0.00000000000E+00 0. -1.
         -1    1    3    3    0  502 -0.46972798521E+03 -0.31913416178E+03 -0.30348247443E+02  0.56869324722E+03  0.00000000000E+00 0.  1.
         15    1    5    5    0    0  0.49946963112E+03  0.20556284418E+03  0.67716419393E+03  0.86618733458E+03  0.17770000000E+01 0.  1.
        -15    1    5    5    0    0  0.13878925102E+03  0.11223502598E+03  0.22428823368E+03  0.28664878641E+03  0.17770000000E+01 0. -1.
          3    1    6    6  503    0 -0.19573893268E+02  0.45135676658E+02 -0.36692237034E+02  0.61373340007E+02  0.00000000000E+00 0. -1.
         -3    1    6    6    0  503 -0.50524117700E+02  0.22365221964E+01  0.41283478695E+02  0.65284103073E+02  0.00000000000E+00 0.  1.
<mgrwt>
<rscale>  0 0.74746983E+03</rscale>
<asrwt>0</asrwt>
<pdfrwt beam="1">  1        2 0.22058147E+00 0.74746983E+03</pdfrwt>
<pdfrwt beam="2">  1       -2 0.81129089E-01 0.74746983E+03</pdfrwt>
<totfact> 0.18967462E+01</totfact>
</mgrwt>
</event>
<event>
12    1  0.8033771E-008  0.7715184E+03  0.7818608E-02  0.9602183E-01
         -1   -1    0    0    0  501 -0.00000000000E+00  0.00000000000E+00  0.67087555184E+03  0.67087555184E+03  0.00000000000E+00 0.  1.
          1   -1    0    0  501    0  0.00000000000E+00 -0.00000000000E+00 -0.10477474850E+04  0.10477474850E+04  0.00000000000E+00 0. -1.
         23    2    1    2    0    0 -0.53750219899E+03  0.41743911944E+03 -0.42900253274E+03  0.80984093353E+03  0.92925411867E+02 0.  0.
    5000000    2    1    2    0    0  0.53750219899E+03 -0.41743911944E+03  0.52130599611E+02  0.90878210327E+03  0.60000273288E+03 0.  0.
         23    2    4    4    0    0  0.12434388878E+03  0.11975048817E+03 -0.81403503279E+02  0.21186317821E+03  0.91966808348E+02 0.  0.
         23    2    4    4    0    0  0.41315831020E+03 -0.53718960762E+03  0.13353410289E+03  0.69691892507E+03  0.92693946216E+02 0.  0.
          4    1    3    3  502    0 -0.37303629086E+03  0.28607682678E+03 -0.34543649283E+03  0.58337157601E+03  0.00000000000E+00 0. -1.
         -4    1    3    3    0  502 -0.16446590813E+03  0.13136229266E+03 -0.83566039905E+02  0.22646935752E+03  0.00000000000E+00 0.  1.
         15    1    5    5    0    0  0.11662895512E+03  0.12559140655E+03 -0.49396077348E+02  0.17837781465E+03  0.17770000000E+01 0.  1.
        -15    1    5    5    0    0  0.77149336630E+01 -0.58409183775E+01 -0.32007425931E+02  0.33485363559E+02  0.17770000000E+01 0. -1.
          1    1    6    6  503    0  0.27627747636E+03 -0.30379860894E+03  0.49553971587E+02  0.41361628938E+03  0.00000000000E+00 0. -1.
         -1    1    6    6    0  503  0.13688083384E+03 -0.23339099867E+03  0.83980131303E+02  0.28330263569E+03  0.00000000000E+00 0.  1.
<mgrwt>
<rscale>  0 0.77151837E+03</rscale>
<asrwt>0</asrwt>
<pdfrwt beam="1">  1        1 0.16119192E+00 0.77151837E+03</pdfrwt>
<pdfrwt beam="2">  1       -1 0.10321162E+00 0.77151837E+03</pdfrwt>
<totfact> 0.12667882E+01</totfact>
</mgrwt>
</event>
<event>
12    1  0.9186047E-008  0.1630832E+04  0.7818608E-02  0.8801827E-01
          2   -1    0    0  501    0  0.00000000000E+00  0.00000000000E+00  0.16905431528E+04  0.16905431528E+04  0.00000000000E+00 0.  1.
         -2   -1    0    0    0  501 -0.00000000000E+00 -0.00000000000E+00 -0.16337381970E+04  0.16337381970E+04  0.00000000000E+00 0. -1.
         23    2    1    2    0    0  0.91241919854E+03 -0.12922145190E+04 -0.25242362743E+03  0.16044062308E+04  0.89858270151E+02 0.  0.
    5000000    2    1    2    0    0 -0.91241919854E+03  0.12922145190E+04  0.30922858315E+03  0.17198751190E+04  0.60001745934E+03 0.  0.
         23    2    4    4    0    0  0.39280022433E+02  0.28849403904E+03  0.72344106059E+02  0.31361608521E+03  0.91376411082E+02 0.  0.
         23    2    4    4    0    0 -0.95169922097E+03  0.10037204800E+04  0.23688447709E+03  0.14062590338E+04  0.90906576532E+02 0.  0.
          3    1    3    3  502    0  0.44422201511E+03 -0.59037980052E+03 -0.15722280912E+03  0.75538104244E+03  0.00000000000E+00 0. -1.
         -3    1    3    3    0  502  0.46819718343E+03 -0.70183471847E+03 -0.95200818308E+02  0.84902518834E+03  0.00000000000E+00 0.  1.
         15    1    5    5    0    0 -0.63624810596E+01  0.14584250247E+03 -0.28403597986E+01  0.14601966328E+03  0.17770000000E+01 0. -1.
        -15    1    5    5    0    0  0.45642503492E+02  0.14265153657E+03  0.75184465857E+02  0.16759642193E+03  0.17770000000E+01 0.  1.
          3    1    6    6  503    0 -0.26675475439E+03  0.29674922790E+03  0.28138554339E+02  0.40001247667E+03  0.00000000000E+00 0. -1.
         -3    1    6    6    0  503 -0.68494446658E+03  0.70697125206E+03  0.20874592275E+03  0.10062465572E+04  0.00000000000E+00 0.  1.
<mgrwt>
<rscale>  0 0.16308324E+04</rscale>
<asrwt>0</asrwt>
<pdfrwt beam="1">  1        2 0.26008356E+00 0.16308324E+04</pdfrwt>
<pdfrwt beam="2">  1       -2 0.25134434E+00 0.16308324E+04</pdfrwt>
<totfact> 0.58020260E-01</totfact>
</mgrwt>
</event>
<event>
12    1  0.8033771E-008  0.5796373E+03  0.7818608E-02  0.9948576E-01
          2   -1    0    0  501    0  0.00000000000E+00  0.00000000000E+00  0.13005665570E+04  0.13005665570E+04  0.00000000000E+00 0. -1.
         -2   -1    0    0    0  501 -0.00000000000E+00 -0.00000000000E+00 -0.38946810965E+03  0.38946810965E+03  0.00000000000E+00 0.  1.
         23    2    1    2    0    0  0.52956418874E+03 -0.10359756734E+02  0.95150278838E+02  0.54707384018E+03  0.98441132129E+02 0.  0.
    5000000    2    1    2    0    0 -0.52956418874E+03  0.10359756734E+02  0.81594816855E+03  0.11429608265E+04  0.60003540112E+03 0.  0.
         23    2    4    4    0    0 -0.40787336600E+03 -0.11839022665E+03  0.83570719515E+03  0.94225415269E+03  0.95181110392E+02 0.  0.
         23    2    4    4    0    0 -0.12169082273E+03  0.12874998339E+03 -0.19759026594E+02  0.20070667381E+03  0.92236300992E+02 0.  0.
          4    1    3    3  502    0  0.33929992990E+03 -0.18489035306E+02  0.10704402788E+03  0.35626494462E+03  0.00000000000E+00 0.  1.
         -4    1    3    3    0  502  0.19026425883E+03  0.81292785716E+01 -0.11893749041E+02  0.19080889556E+03  0.00000000000E+00 0. -1.
         15    1    5    5    0    0 -0.30261403783E+03 -0.12940504171E+03  0.64625904073E+03  0.72524121929E+03  0.17770000000E+01 0.  1.
        -15    1    5    5    0    0 -0.10525932817E+03  0.11014815059E+02  0.18944815442E+03  0.21701293339E+03  0.17770000000E+01 0. -1.
          1    1    6    6  503    0 -0.29690478352E+02  0.89029204527E+02  0.14162757005E+02  0.94912103809E+02  0.00000000000E+00 0. -1.
         -1    1    6    6    0  503 -0.92000344381E+02  0.39720778862E+02 -0.33921783599E+02  0.10579457000E+03  0.00000000000E+00 0.  1.
<mgrwt>
<rscale>  0 0.57963733E+03</rscale>
<asrwt>0</asrwt>
<pdfrwt beam="1">  1        2 0.20008716E+00 0.57963733E+03</pdfrwt>
<pdfrwt beam="2">  1       -2 0.59918171E-01 0.57963733E+03</pdfrwt>
<totfact> 0.44594683E+01</totfact>
</mgrwt>
</event>
<event>
12    1  0.8033771E-008  0.1172405E+04  0.7818608E-02  0.9137359E-01
          2   -1    0    0  501    0  0.00000000000E+00  0.00000000000E+00  0.50018932420E+04  0.50018932420E+04  0.00000000000E+00 0.  1.
         -2   -1    0    0    0  501 -0.00000000000E+00 -0.00000000000E+00 -0.31255742194E+03  0.31255742194E+03  0.00000000000E+00 0. -1.
         23    2    1    2    0    0 -0.16256616694E+03  0.10901497691E+04  0.13395590871E+04  0.17372896541E+04  0.94353148028E+02 0.  0.
    5000000    2    1    2    0    0  0.16256616694E+03 -0.10901497691E+04  0.33497767330E+04  0.35771610099E+04  0.60018534856E+03 0.  0.
         23    2    4    4    0    0 -0.13007086437E+03 -0.84399424150E+03  0.22112018087E+04  0.23720554122E+04  0.89379698141E+02 0.  0.
         23    2    4    4    0    0  0.29263703131E+03 -0.24615552756E+03  0.11385749243E+04  0.12051055977E+04  0.98476736351E+02 0.  0.
          3    1    3    3  502    0 -0.10015853067E+02  0.35155215213E+03  0.44662138971E+03  0.56847154610E+03  0.00000000000E+00 0. -1.
         -3    1    3    3    0  502 -0.15255031387E+03  0.73859761693E+03  0.89293769743E+03  0.11688181080E+04  0.00000000000E+00 0.  1.
         15    1    5    5    0    0 -0.76193640027E+02 -0.43643378648E+03  0.10256579826E+04  0.11172543917E+04  0.17770000000E+01 0. -1.
        -15    1    5    5    0    0 -0.53877224342E+02 -0.40756045502E+03  0.11855438261E+04  0.12548010205E+04  0.17770000000E+01 0.  1.
          1    1    6    6  503    0  0.24880710502E+03 -0.22753020021E+03  0.10680873447E+04  0.11200381883E+04  0.00000000000E+00 0. -1.
         -1    1    6    6    0  503  0.43829926290E+02 -0.18625327347E+02  0.70487579636E+02  0.85067409389E+02  0.00000000000E+00 0.  1.
<mgrwt>
<rscale>  0 0.11724053E+04</rscale>
<asrwt>0</asrwt>
<pdfrwt beam="1">  1        2 0.76952198E+00 0.11724053E+04</pdfrwt>
<pdfrwt beam="2">  1       -2 0.48085761E-01 0.11724053E+04</pdfrwt>
<totfact> 0.14906497E-01</totfact>
</mgrwt>
</event>
<event>
12    1  0.8033771E-008  0.1092615E+04  0.7818608E-02  0.9212420E-01
          2   -1    0    0  501    0  0.00000000000E+00  0.00000000000E+00  0.26880410461E+04  0.26880410461E+04  0.00000000000E+00 0.  1.
         -2   -1    0    0    0  501 -0.00000000000E+00 -0.00000000000E+00 -0.46701879096E+03  0.46701879096E+03  0.00000000000E+00 0. -1.
         23    2    1    2    0    0  0.44123718478E+03 -0.93949937834E+03  0.10291851908E+04  0.14645489873E+04  0.91281127325E+02 0.  0.
    5000000    2    1    2    0    0 -0.44123718478E+03  0.93949937834E+03  0.11918370644E+04  0.16905108497E+04  0.60000167496E+03 0.  0.
         23    2    4    4    0    0  0.46229054616E+02  0.76970311950E+01  0.27102603437E+03  0.28983824057E+03  0.91404182671E+02 0.  0.
         23    2    4    4    0    0 -0.48746623940E+03  0.93180234714E+03  0.92081102999E+03  0.14006726092E+04  0.90065844894E+02 0.  0.
          1    1    3    3  502    0  0.23688151717E+03 -0.50072915708E+03  0.48501625912E+03  0.73626307359E+03  0.00000000000E+00 0.  1.
         -1    1    3    3    0  502  0.20435566761E+03 -0.43877022126E+03  0.54416893166E+03  0.72828591372E+03  0.00000000000E+00 0. -1.
         15    1    5    5    0    0 -0.19352149431E+02 -0.15850989604E+02  0.13150101092E+03  0.13387095712E+03  0.17770000000E+01 0. -1.
        -15    1    5    5    0    0  0.65581204047E+02  0.23548020799E+02  0.13952502346E+03  0.15596728345E+03  0.17770000000E+01 0.  1.
          1    1    6    6  503    0 -0.11126040370E+03  0.25356088432E+03  0.19721640295E+03  0.33995045092E+03  0.00000000000E+00 0. -1.
         -1    1    6    6    0  503 -0.37620583569E+03  0.67824146282E+03  0.72359462705E+03  0.10607221582E+04  0.00000000000E+00 0.  1.
<mgrwt>
<rscale>  0 0.10926147E+04</rscale>
<asrwt>0</asrwt>
<pdfrwt beam="1">  1        2 0.41354477E+00 0.10926147E+04</pdfrwt>
<pdfrwt beam="2">  1       -2 0.71849046E-01 0.10926147E+04</pdfrwt>
<totfact> 0.47513825E+00</totfact>
</mgrwt>
</event>
<event>
12    1  0.8033771E-008  0.8306600E+03  0.7818608E-02  0.9516668E-01
          1   -1    0    0  501    0  0.00000000000E+00  0.00000000000E+00  0.65862090623E+03  0.65862090623E+03  0.00000000000E+00 0. -1.
         -1   -1    0    0    0  501 -0.00000000000E+00 -0.00000000000E+00 -0.10780157083E+04  0.10780157083E+04  0.00000000000E+00 0.  1.
         23    2    1    2    0    0 -0.20313378788E+03 -0.70405380563E+03 -0.18062889533E+03  0.76011695468E+03  0.90531154674E+02 0.  0.
    5000000    2    1    2    0    0  0.20313378788E+03  0.70405380563E+03 -0.23876590676E+03  0.97651965987E+03  0.59968857825E+03 0.  0.
         23    2    4    4    0    0  0.14350224602E+02 -0.84625818677E+02 -0.30285619841E+02  0.13424836268E+03  0.98681031509E+02 0.  0.
         23    2    4    4    0    0  0.18878356328E+03  0.78867962431E+03 -0.20848028692E+03  0.84227129719E+03  0.91115994651E+02 0.  0.
          2    1    3    3  502    0 -0.14989443093E+03 -0.36094897442E+03 -0.10640739037E+03  0.40506176724E+03  0.00000000000E+00 0. -1.
         -2    1    3    3    0  502 -0.53239356954E+02 -0.34310483121E+03 -0.74221504964E+02  0.35505518744E+03  0.00000000000E+00 0.  1.
         15    1    5    5    0    0 -0.25111213808E+02 -0.85369687134E+01  0.21414181134E+02  0.34134700473E+02  0.17770000000E+01 0. -1.
        -15    1    5    5    0    0  0.39461438411E+02 -0.76088849964E+02 -0.51699800975E+02  0.10011366220E+03  0.17770000000E+01 0.  1.
          4    1    6    6  503    0  0.49483706868E+02  0.20453492400E+03 -0.13425651204E+02  0.21086351153E+03  0.00000000000E+00 0. -1.
         -4    1    6    6    0  503  0.13929985641E+03  0.58414470030E+03 -0.19505463572E+03  0.63140778567E+03  0.00000000000E+00 0.  1.
<mgrwt>
<rscale>  0 0.83066002E+03</rscale>
<asrwt>0</asrwt>
<pdfrwt beam="1">  1        1 0.10132629E+00 0.83066002E+03</pdfrwt>
<pdfrwt beam="2">  1       -1 0.16584857E+00 0.83066002E+03</pdfrwt>
<totfact> 0.80574648E+00</totfact>
</mgrwt>
</event>
<event>
12    1  0.8033771E-008  0.5794959E+03  0.7818608E-02  0.9948883E-01
         -2   -1    0    0    0  501 -0.00000000000E+00  0.00000000000E+00  0.17129684498E+03  0.17129684498E+03  0.00000000000E+00 0. -1.
          2   -1    0    0  501    0  0.00000000000E+00 -0.00000000000E+00 -0.43838835713E+04  0.43838835713E+04  0.00000000000E+00 0.  1.
         23    2    1    2    0    0  0.37282824252E+03 -0.30873289515E+03 -0.33984564301E+04  0.34340000891E+04  0.92377517216E+02 0.  0.
    5000000    2    1    2    0    0 -0.37282824252E+03  0.30873289515E+03 -0.81413029620E+03  0.11211803272E+04  0.59993356954E+03 0.  0.
         23    2    4    4    0    0 -0.33532018165E+03  0.41683127824E+03 -0.38126678681E+03  0.66441536303E+03  0.99475992919E+02 0.  0.
         23    2    4    4    0    0 -0.37508060868E+02 -0.10809838309E+03 -0.43286350939E+03  0.45676496413E+03  0.90395241253E+02 0.  0.
          3    1    3    3  502    0  0.27148743158E+03 -0.19491512387E+03 -0.25704508770E+04  0.25920870051E+04  0.00000000000E+00 0. -1.
         -3    1    3    3    0  502  0.10134081094E+03 -0.11381777128E+03 -0.82800555311E+03  0.84191308400E+03  0.00000000000E+00 0.  1.
         15    1    5    5    0    0 -0.10224354387E+03  0.14850157488E+03 -0.75162400103E+02  0.19534329813E+03  0.17770000000E+01 0. -1.
        -15    1    5    5    0    0 -0.23307663778E+03  0.26832970336E+03 -0.30610438670E+03  0.46907206490E+03  0.17770000000E+01 0.  1.
          1    1    6    6  503    0  0.14917806630E+02 -0.70695422545E+02 -0.14777078094E+03  0.16448886717E+03  0.00000000000E+00 0. -1.
         -1    1    6    6    0  503 -0.52425867498E+02 -0.37402960544E+02 -0.28509272845E+03  0.29227609696E+03  0.00000000000E+00 0.  1.
<mgrwt>
<rscale>  0 0.57949594E+03</rscale>
<asrwt>0</asrwt>
<pdfrwt beam="1">  1        2 0.67444355E+00 0.57949594E+03</pdfrwt>
<pdfrwt beam="2">  1       -2 0.26353364E-01 0.57949594E+03</pdfrwt>
<totfact> 0.24461911E+00</totfact>
</mgrwt>
</event>
<event>
12    1  0.8033771E-008  0.1831343E+04  0.7818608E-02  0.8689807E-01
          2   -1    0    0  501    0  0.00000000000E+00  0.00000000000E+00  0.30400855610E+04  0.30400855610E+04  0.00000000000E+00 0. -1.
         -2   -1    0    0    0  501 -0.00000000000E+00 -0.00000000000E+00 -0.11450212957E+04  0.11450212957E+04  0.00000000000E+00 0.  1.
         23    2    1    2    0    0 -0.11398764462E+04  0.14028939075E+04  0.11230563163E+04  0.21299909900E+04  0.90423997866E+02 0.  0.
    5000000    2    1    2    0    0  0.11398764462E+04 -0.14028939075E+04  0.77200794902E+03  0.20551158667E+04  0.60006276647E+03 0.  0.
         23    2    4    4    0    0  0.10074516564E+04 -0.95849447039E+03  0.74812779583E+03  0.15817007493E+04  0.91714620443E+02 0.  0.
         23    2    4    4    0    0  0.13242478980E+03 -0.44439943712E+03  0.23880153195E+02  0.47341511738E+03  0.92327823453E+02 0.  0.
          4    1    3    3  502    0 -0.60561479685E+03  0.70860158965E+03  0.62456824654E+03  0.11220387648E+04  0.00000000000E+00 0. -1.
         -4    1    3    3    0  502 -0.53426164938E+03  0.69429231785E+03  0.49848806974E+03  0.10079522252E+04  0.00000000000E+00 0.  1.
         15    1    5    5    0    0  0.44396646430E+02 -0.38937205668E+02  0.54170915289E+02  0.80154937413E+02  0.17770000000E+01 0. -1.
        -15    1    5    5    0    0  0.96305501001E+03 -0.91955726472E+03  0.69395688054E+03  0.15015458119E+04  0.17770000000E+01 0.  1.
          3    1    6    6  503    0  0.21862182016E+02 -0.59931534233E+02  0.35867075081E+02  0.73186001892E+02  0.00000000000E+00 0. -1.
         -3    1    6    6    0  503  0.11056260778E+03 -0.38446790289E+03 -0.11986921886E+02  0.40022911549E+03  0.00000000000E+00 0.  1.
<mgrwt>
<rscale>  0 0.18313428E+04</rscale>
<asrwt>0</asrwt>
<pdfrwt beam="1">  1        2 0.46770547E+00 0.18313428E+04</pdfrwt>
<pdfrwt beam="2">  1       -2 0.17615712E+00 0.18313428E+04</pdfrwt>
<totfact> 0.28883627E-01</totfact>
</mgrwt>
</event>
<event>
12    1  0.8033771E-008  0.7038845E+03  0.7818608E-02  0.9710612E-01
         -1   -1    0    0    0  501 -0.00000000000E+00  0.00000000000E+00  0.88543638576E+03  0.88543638576E+03  0.00000000000E+00 0.  1.
          1   -1    0    0  501    0  0.00000000000E+00 -0.00000000000E+00 -0.95037862928E+03  0.95037862928E+03  0.00000000000E+00 0. -1.
         23    2    1    2    0    0 -0.60269597026E+02  0.68824344091E+03  0.40635505202E+03  0.80649046888E+03  0.89392336348E+02 0.  0.
    5000000    2    1    2    0    0  0.60269597026E+02 -0.68824344091E+03 -0.47129729554E+03  0.10293245462E+04  0.60006368184E+03 0.  0.
         23    2    4    4    0    0 -0.25424186377E+02 -0.48339567174E+03  0.84898207839E+01  0.49273545211E+03  0.91642697449E+02 0.  0.
         23    2    4    4    0    0  0.85693783403E+02 -0.20484776917E+03 -0.47978711633E+03  0.53658909406E+03  0.91794040216E+02 0.  0.
          1    1    3    3  502    0 -0.27185149308E+02  0.51515042860E+03  0.26144758055E+03  0.57833712816E+03  0.00000000000E+00 0. -1.
         -1    1    3    3    0  502 -0.33084447718E+02  0.17309301231E+03  0.14490747147E+03  0.22815334072E+03  0.00000000000E+00 0.  1.
         15    1    5    5    0    0 -0.47929870232E+02 -0.14872591757E+03  0.17050540358E+02  0.15719589585E+03  0.17770000000E+01 0.  1.
        -15    1    5    5    0    0  0.22505683855E+02 -0.33466975418E+03 -0.85607195739E+01  0.33553955626E+03  0.17770000000E+01 0. -1.
          3    1    6    6  503    0  0.47388595675E+02 -0.76076174954E+02 -0.10284030385E+03  0.13641624351E+03  0.00000000000E+00 0. -1.
         -3    1    6    6    0  503  0.38305187728E+02 -0.12877159422E+03 -0.37694681247E+03  0.40017285055E+03  0.00000000000E+00 0.  1.
<mgrwt>
<rscale>  0 0.70388453E+03</rscale>
<asrwt>0</asrwt>
<pdfrwt beam="1">  1        1 0.14621210E+00 0.70388453E+03</pdfrwt>
<pdfrwt beam="2">  1       -1 0.13622098E+00 0.70388453E+03</pdfrwt>
<totfact> 0.77581666E+00</totfact>
</mgrwt>
</event>
<event>
12    1  0.8033771E-008  0.4781707E+03  0.7818608E-02  0.1019639E+00
          2   -1    0    0  501    0  0.00000000000E+00  0.00000000000E+00  0.27217459473E+04  0.27217459473E+04  0.00000000000E+00 0. -1.
         -2   -1    0    0    0  501 -0.00000000000E+00 -0.00000000000E+00 -0.11558329878E+03  0.11558329878E+03  0.00000000000E+00 0.  1.
         23    2    1    2    0    0 -0.11390184669E+03  0.37202757283E+03  0.10885557851E+04  0.11596965504E+04  0.92543211630E+02 0.  0.
    5000000    2    1    2    0    0  0.11390184669E+03 -0.37202757283E+03  0.15176068634E+04  0.16776326957E+04  0.59995226826E+03 0.  0.
         23    2    4    4    0    0 -0.34636582166E+02 -0.38302340609E+03  0.46518201206E+03  0.61075318784E+03  0.93373067224E+02 0.  0.
         23    2    4    4    0    0  0.14853842886E+03  0.10995833255E+02  0.10524248513E+04  0.10668795078E+04  0.91919765839E+02 0.  0.
          1    1    3    3  502    0 -0.52217351815E+02  0.54707436513E+02  0.24096036079E+03  0.25254989786E+03  0.00000000000E+00 0. -1.
         -1    1    3    3    0  502 -0.61684494877E+02  0.31732013632E+03  0.84759542431E+03  0.90714665250E+03  0.00000000000E+00 0.  1.
         15    1    5    5    0    0 -0.60007139066E+02 -0.24658134343E+03  0.33661258115E+03  0.42156186164E+03  0.17770000000E+01 0. -1.
        -15    1    5    5    0    0  0.25370556900E+02 -0.13644206265E+03  0.12856943090E+03  0.18919132620E+03  0.17770000000E+01 0.  1.
          1    1    6    6  503    0  0.11341091922E+03  0.39025366621E+02  0.90035120736E+03  0.90830463636E+03  0.00000000000E+00 0. -1.
         -1    1    6    6    0  503  0.35127509637E+02 -0.28029533366E+02  0.15207364396E+03  0.15857487147E+03  0.00000000000E+00 0.  1.
<mgrwt>
<rscale>  0 0.47817075E+03</rscale>
<asrwt>0</asrwt>
<pdfrwt beam="1">  1        2 0.41873010E+00 0.47817075E+03</pdfrwt>
<pdfrwt beam="2">  1       -2 0.17782048E-01 0.47817075E+03</pdfrwt>
<totfact> 0.73780847E+01</totfact>
</mgrwt>
</event>
<event>
12    1  0.8033771E-008  0.7295090E+03  0.7818608E-02  0.9668057E-01
         -1   -1    0    0    0  501 -0.00000000000E+00  0.00000000000E+00  0.27551768456E+03  0.27551768456E+03  0.00000000000E+00 0.  1.
          1   -1    0    0  501    0  0.00000000000E+00 -0.00000000000E+00 -0.21814177589E+04  0.21814177589E+04  0.00000000000E+00 0. -1.
         23    2    1    2    0    0 -0.35414409402E+02 -0.65439119556E+03 -0.81994208587E+03  0.10537702712E+04  0.92977110210E+02 0.  0.
    5000000    2    1    2    0    0  0.35414409402E+02  0.65439119556E+03 -0.10859579884E+04  0.14031651722E+04  0.60007143804E+03 0.  0.
         23    2    4    4    0    0  0.22691883362E+03  0.33172470941E+03 -0.86302839904E+03  0.95729245802E+03  0.10028655320E+03 0.  0.
         23    2    4    4    0    0 -0.19150442422E+03  0.32266648614E+03 -0.22292958938E+03  0.44587271421E+03  0.91199066244E+02 0.  0.
          3    1    3    3  502    0  0.20005082491E+02 -0.66950518284E+02 -0.11398312641E+03  0.13369640358E+03  0.00000000000E+00 0. -1.
         -3    1    3    3    0  502 -0.55419491892E+02 -0.58744067727E+03 -0.70595895946E+03  0.92007386760E+03  0.00000000000E+00 0.  1.
         15    1    5    5    0    0  0.13697900779E+03  0.27469871252E+03 -0.66536259710E+03  0.73275724123E+03  0.17770000000E+01 0.  1.
        -15    1    5    5    0    0  0.89939825832E+02  0.57025996895E+02 -0.19766580194E+03  0.22453521679E+03  0.17770000000E+01 0. -1.
          2    1    6    6  503    0  0.96243119168E+01  0.20375061002E+02 -0.18739272057E+02  0.29307521355E+02  0.00000000000E+00 0. -1.
         -2    1    6    6    0  503 -0.20112873614E+03  0.30229142514E+03 -0.20419031732E+03  0.41656519286E+03  0.00000000000E+00 0.  1.
<mgrwt>
<rscale>  0 0.72950900E+03</rscale>
<asrwt>0</asrwt>
<pdfrwt beam="1">  1        1 0.33560273E+00 0.72950900E+03</pdfrwt>
<pdfrwt beam="2">  1       -1 0.42387336E-01 0.72950900E+03</pdfrwt>
<totfact> 0.12893459E+01</totfact>
</mgrwt>
</event>
<event>
12    1  0.8033771E-008  0.9273510E+03  0.7818608E-02  0.9392023E-01
          2   -1    0    0  501    0  0.00000000000E+00  0.00000000000E+00  0.39990153792E+04  0.39990153792E+04  0.00000000000E+00 0. -1.
         -2   -1    0    0    0  501 -0.00000000000E+00 -0.00000000000E+00 -0.31262793214E+03  0.31262793214E+03  0.00000000000E+00 0.  1.
         23    2    1    2    0    0 -0.71527994299E+03 -0.46760460697E+03  0.58743034841E+03  0.10415058144E+04  0.96852888229E+02 0.  0.
    5000000    2    1    2    0    0  0.71527994299E+03  0.46760460697E+03  0.30989570987E+04  0.32701374969E+04  0.59998723658E+03 0.  0.
         23    2    4    4    0    0  0.28657164943E+03  0.47907610276E+03  0.12881242345E+04  0.14069173017E+04  0.92276907800E+02 0.  0.
         23    2    4    4    0    0  0.42870829356E+03 -0.11471495784E+02  0.18108328641E+04  0.18632201952E+04  0.92473984971E+02 0.  0.
          4    1    3    3  502    0 -0.46506890549E+03 -0.35683138524E+03  0.41116198940E+03  0.71601110736E+03  0.00000000000E+00 0. -1.
         -4    1    3    3    0  502 -0.25021103750E+03 -0.11077322174E+03  0.17626835901E+03  0.32549470707E+03  0.00000000000E+00 0.  1.
         15    1    5    5    0    0  0.20702847118E+03  0.37068105639E+03  0.10635494253E+04  0.11451662636E+04  0.17770000000E+01 0.  1.
        -15    1    5    5    0    0  0.79543178253E+02  0.10839504637E+03  0.22457480923E+03  0.26175103811E+03  0.17770000000E+01 0. -1.
          1    1    6    6  503    0  0.93189109919E+02  0.29683801966E+02  0.32368492701E+03  0.33813794563E+03  0.00000000000E+00 0. -1.
         -1    1    6    6    0  503  0.33551918364E+03 -0.41155297750E+02  0.14871479371E+04  0.15250822496E+04  0.00000000000E+00 0.  1.
<mgrwt>
<rscale>  0 0.92735104E+03</rscale>
<asrwt>0</asrwt>
<pdfrwt beam="1">  1        2 0.61523310E+00 0.92735104E+03</pdfrwt>
<pdfrwt beam="2">  1       -2 0.48096608E-01 0.92735104E+03</pdfrwt>
<totfact> 0.15007546E+00</totfact>
</mgrwt>
</event>
<event>
12    1  0.8033771E-008  0.1400390E+04  0.7818608E-02  0.8953536E-01
         -2   -1    0    0    0  501 -0.00000000000E+00  0.00000000000E+00  0.13738457298E+04  0.13738457298E+04  0.00000000000E+00 0.  1.
          2   -1    0    0  501    0  0.00000000000E+00 -0.00000000000E+00 -0.15829015620E+04  0.15829015620E+04  0.00000000000E+00 0. -1.
         23    2    1    2    0    0  0.14946233032E+03 -0.13312871535E+04  0.34944103000E+03  0.13866826697E+04  0.78200509275E+02 0.  0.
    5000000    2    1    2    0    0 -0.14946233032E+03  0.13312871535E+04 -0.55849686221E+03  0.15700646222E+04  0.59876514544E+03 0.  0.
         23    2    4    4    0    0 -0.30711823654E+03  0.11909595243E+04 -0.50461809807E+03  0.13324192667E+04  0.89417434434E+02 0.  0.
         23    2    4    4    0    0  0.15765590621E+03  0.14032762923E+03 -0.53878764146E+02  0.23764535551E+03  0.95000870945E+02 0.  0.
          3    1    3    3  502    0  0.55663249475E+02 -0.41749771202E+03  0.73638980198E+02  0.42758091198E+03  0.00000000000E+00 0. -1.
         -3    1    3    3    0  502  0.93799080850E+02 -0.91378944148E+03  0.27580204980E+03  0.95910175769E+03  0.00000000000E+00 0.  1.
         15    1    5    5    0    0 -0.28494791010E+03  0.11610279048E+04 -0.48343680111E+03  0.12895330184E+04  0.17770000000E+01 0.  1.
        -15    1    5    5    0    0 -0.22170326434E+02  0.29931619514E+02 -0.21181296961E+02  0.42886248273E+02  0.17770000000E+01 0. -1.
          2    1    6    6  503    0  0.70566505668E+02  0.97078666987E+01 -0.35485717065E+02  0.79580842629E+02  0.00000000000E+00 0. -1.
         -2    1    6    6    0  503  0.87089400543E+02  0.13061976253E+03 -0.18393047081E+02  0.15806451288E+03  0.00000000000E+00 0.  1.
<mgrwt>
<rscale>  0 0.14003902E+04</rscale>
<asrwt>0</asrwt>
<pdfrwt beam="1">  1        2 0.24352332E+00 0.14003902E+04</pdfrwt>
<pdfrwt beam="2">  1       -2 0.21136088E+00 0.14003902E+04</pdfrwt>
<totfact> 0.12151773E+00</totfact>
</mgrwt>
</event>
<event>
12    1  0.8033771E-008  0.6738987E+03  0.7818608E-02  0.9762940E-01
         -1   -1    0    0    0  501 -0.00000000000E+00  0.00000000000E+00  0.13005247931E+04  0.13005247931E+04  0.00000000000E+00 0.  1.
          1   -1    0    0  501    0  0.00000000000E+00 -0.00000000000E+00 -0.36939889671E+03  0.36939889671E+03  0.00000000000E+00 0. -1.
         23    2    1    2    0    0  0.48120211920E+03  0.25403905234E+03  0.53406117513E+03  0.76784843890E+03  0.90986629230E+02 0.  0.
    5000000    2    1    2    0    0 -0.48120211920E+03 -0.25403905234E+03  0.39706472129E+03  0.90207525094E+03  0.59999003811E+03 0.  0.
         23    2    4    4    0    0 -0.57675821238E+03 -0.31612895601E+03  0.32685017176E+03  0.74046599759E+03  0.94187613015E+02 0.  0.
         23    2    4    4    0    0  0.95556093178E+02  0.62089903672E+02  0.70214549534E+02  0.16160925334E+03  0.90561276041E+02 0.  0.
          1    1    3    3  502    0  0.26705907804E+03  0.14985503883E+03  0.36142662891E+03  0.47371541237E+03  0.00000000000E+00 0. -1.
         -1    1    3    3    0  502  0.21414304116E+03  0.10418401351E+03  0.17263454622E+03  0.29413302653E+03  0.00000000000E+00 0.  1.
         15    1    5    5    0    0 -0.24390045967E+03 -0.11552127085E+03  0.18292291766E+03  0.32603151654E+03  0.17770000000E+01 0. -1.
        -15    1    5    5    0    0 -0.33285775271E+03 -0.20060768516E+03  0.14392725409E+03  0.41443448105E+03  0.17770000000E+01 0.  1.
          1    1    6    6  503    0  0.33078795022E+02  0.74222404297E+02  0.31736918144E+02  0.87237629226E+02  0.00000000000E+00 0. -1.
         -1    1    6    6    0  503  0.62477298156E+02 -0.12132500625E+02  0.38477631390E+02  0.74371624117E+02  0.00000000000E+00 0.  1.
<mgrwt>
<rscale>  0 0.67389871E+03</rscale>
<asrwt>0</asrwt>
<pdfrwt beam="1">  1        1 0.56830600E-01 0.67389871E+03</pdfrwt>
<pdfrwt beam="2">  1       -1 0.20008074E+00 0.67389871E+03</pdfrwt>
<totfact> 0.10437694E+01</totfact>
</mgrwt>
</event>
<event>
12    1  0.8033771E-008  0.1445013E+04  0.7818608E-02  0.8921865E-01
          2   -1    0    0  501    0  0.00000000000E+00  0.00000000000E+00  0.12263531578E+04  0.12263531578E+04  0.00000000000E+00 0. -1.
         -2   -1    0    0    0  501 -0.00000000000E+00 -0.00000000000E+00 -0.18006606128E+04  0.18006606128E+04  0.00000000000E+00 0.  1.
         23    2    1    2    0    0  0.12985966392E+04  0.52380190512E+03 -0.12325813376E+02  0.14032544657E+04  0.90826773726E+02 0.  0.
    5000000    2    1    2    0    0 -0.12985966392E+04 -0.52380190512E+03 -0.56198164166E+03  0.16237593049E+04  0.60004103813E+03 0.  0.
         23    2    4    4    0    0 -0.79697901754E+03 -0.56989277667E+03 -0.21929084222E+03  0.10081780996E+04  0.91549307551E+02 0.  0.
         23    2    4    4    0    0 -0.50161762164E+03  0.46090871546E+02 -0.34269079944E+03  0.61558120526E+03  0.88083082795E+02 0.  0.
          1    1    3    3  502    0  0.75506001782E+03  0.33139050578E+03 -0.44383846260E+02  0.82577552860E+03  0.00000000000E+00 0. -1.
         -1    1    3    3    0  502  0.54353662136E+03  0.19241139934E+03  0.32058032885E+02  0.57747893713E+03  0.00000000000E+00 0.  1.
         15    1    5    5    0    0 -0.29057418575E+03 -0.15847926695E+03 -0.57370244366E+02  0.33592192269E+03  0.17770000000E+01 0.  1.
        -15    1    5    5    0    0 -0.50640483179E+03 -0.41141350972E+03 -0.16192059785E+03  0.67225617690E+03  0.17770000000E+01 0. -1.
          2    1    6    6  503    0 -0.14202586779E+03 -0.54893830916E+01 -0.14039448996E+03  0.19978011227E+03  0.00000000000E+00 0. -1.
         -2    1    6    6    0  503 -0.35959175385E+03  0.51580254637E+02 -0.20229630948E+03  0.41580109300E+03  0.00000000000E+00 0.  1.
<mgrwt>
<rscale>  0 0.14450129E+04</rscale>
<asrwt>0</asrwt>
<pdfrwt beam="1">  1        2 0.18866972E+00 0.14450129E+04</pdfrwt>
<pdfrwt beam="2">  1       -2 0.27702471E+00 0.14450129E+04</pdfrwt>
<totfact> 0.76109027E-01</totfact>
</mgrwt>
</event>
<event>
12    1  0.8033771E-008  0.7720889E+03  0.7818608E-02  0.9601320E-01
          2   -1    0    0  501    0  0.00000000000E+00  0.00000000000E+00  0.30888097471E+04  0.30888097471E+04  0.00000000000E+00 0. -1.
         -2   -1    0    0    0  501 -0.00000000000E+00 -0.00000000000E+00 -0.36010456867E+03  0.36010456867E+03  0.00000000000E+00 0.  1.
         23    2    1    2    0    0  0.13589335861E+03 -0.67318534434E+03  0.14496654171E+03  0.70896537264E+03  0.99855338573E+02 0.  0.
    5000000    2    1    2    0    0 -0.13589335861E+03  0.67318534434E+03  0.25837386367E+04  0.27399489431E+04  0.59997446222E+03 0.  0.
         23    2    4    4    0    0  0.37434651325E+02  0.67670586604E+03  0.22663575312E+04  0.23672566984E+04  0.90529746209E+02 0.  0.
         23    2    4    4    0    0 -0.17332800994E+03 -0.35205217016E+01  0.31738110551E+03  0.37269224465E+03  0.90076356423E+02 0.  0.
          4    1    3    3  502    0  0.12719365339E+03 -0.40371739926E+03  0.10794300909E+03  0.43682680451E+03  0.00000000000E+00 0. -1.
         -4    1    3    3    0  502  0.86997052198E+01 -0.26946794508E+03  0.37023532623E+02  0.27213856813E+03  0.00000000000E+00 0.  1.
         15    1    5    5    0    0  0.94046071697E+01  0.14880620447E+03  0.63985225213E+03  0.65699756119E+03  0.17770000000E+01 0.  1.
        -15    1    5    5    0    0  0.28030044156E+02  0.52789966157E+03  0.16265052791E+04  0.17102591373E+04  0.17770000000E+01 0. -1.
          3    1    6    6  503    0 -0.37086557857E+02  0.23572399225E+01  0.16086859795E+03  0.16510504281E+03  0.00000000000E+00 0. -1.
         -3    1    6    6    0  503 -0.13624145208E+03 -0.58777616241E+01  0.15651250756E+03  0.20758720184E+03  0.00000000000E+00 0.  1.
<mgrwt>
<rscale>  0 0.77208895E+03</rscale>
<asrwt>0</asrwt>
<pdfrwt beam="1">  1        2 0.47520148E+00 0.77208895E+03</pdfrwt>
<pdfrwt beam="2">  1       -2 0.55400705E-01 0.77208895E+03</pdfrwt>
<totfact> 0.49872401E+00</totfact>
</mgrwt>
</event>
<event>
12    1  0.8033771E-008  0.6268188E+03  0.7818608E-02  0.9851276E-01
         -1   -1    0    0    0  501 -0.00000000000E+00  0.00000000000E+00  0.79903329243E+03  0.79903329243E+03  0.00000000000E+00 0.  1.
          1   -1    0    0  501    0  0.00000000000E+00 -0.00000000000E+00 -0.57226796462E+03  0.57226796462E+03  0.00000000000E+00 0. -1.
         23    2    1    2    0    0 -0.33703369364E+03 -0.36744613711E+03 -0.11465686775E+03  0.51970797623E+03  0.91333503754E+02 0.  0.
    5000000    2    1    2    0    0  0.33703369364E+03  0.36744613711E+03  0.34142219556E+03  0.85159328082E+03  0.60002802099E+03 0.  0.
         23    2    4    4    0    0 -0.13073489319E+03  0.19288543273E+03  0.20774484526E+03  0.32632006293E+03  0.95028733978E+02 0.  0.
         23    2    4    4    0    0  0.46776858684E+03  0.17456070438E+03  0.13367735030E+03  0.52527321788E+03  0.93613188694E+02 0.  0.
          3    1    3    3  502    0 -0.18631461598E+03 -0.14827649532E+03 -0.81403470083E+02  0.25164574332E+03  0.00000000000E+00 0. -1.
         -3    1    3    3    0  502 -0.15071907767E+03 -0.21916964179E+03 -0.33253397667E+02  0.26806223291E+03  0.00000000000E+00 0.  1.
         15    1    5    5    0    0 -0.24707532986E+02 -0.14859475895E+01  0.34520473401E+01  0.25054831597E+02  0.17770000000E+01 0. -1.
        -15    1    5    5    0    0 -0.10602736021E+03  0.19437138032E+03  0.20429279792E+03  0.30126523134E+03  0.17770000000E+01 0.  1.
          2    1    6    6  503    0  0.21493403770E+03  0.11406923787E+03  0.29117252302E+02  0.24506375899E+03  0.00000000000E+00 0. -1.
         -2    1    6    6    0  503  0.25283454914E+03  0.60491466506E+02  0.10456009800E+03  0.28020945889E+03  0.00000000000E+00 0.  1.
<mgrwt>
<rscale>  0 0.62681880E+03</rscale>
<asrwt>0</asrwt>
<pdfrwt beam="1">  1        1 0.88041226E-01 0.62681880E+03</pdfrwt>
<pdfrwt beam="2">  1       -1 0.12292820E+00 0.62681880E+03</pdfrwt>
<totfact> 0.22256333E+01</totfact>
</mgrwt>
</event>
<event>
12    1  0.8033771E-008  0.1468471E+04  0.7818608E-02  0.8905694E-01
         -1   -1    0    0    0  501 -0.00000000000E+00  0.00000000000E+00  0.71314785219E+03  0.71314785219E+03  0.00000000000E+00 0.  1.
          1   -1    0    0  501    0  0.00000000000E+00 -0.00000000000E+00 -0.33463115555E+04  0.33463115555E+04  0.00000000000E+00 0. -1.
         23    2    1    2    0    0  0.12253612852E+04 -0.72921285378E+03 -0.18133415811E+04  0.23086514847E+04  0.91664182586E+02 0.  0.
    5000000    2    1    2    0    0 -0.12253612852E+04  0.72921285378E+03 -0.81982212222E+03  0.17508079231E+04  0.59996533722E+03 0.  0.
         23    2    4    4    0    0 -0.11248715001E+04  0.47994722682E+03 -0.80499103574E+03  0.14669691421E+04  0.91118954611E+02 0.  0.
         23    2    4    4    0    0 -0.10048978515E+03  0.24926562697E+03 -0.14831086478E+02  0.28383878099E+03  0.90071875544E+02 0.  0.
          3    1    3    3  502    0  0.50375300603E+03 -0.34817284930E+03 -0.80676719718E+03  0.10128498085E+04  0.00000000000E+00 0. -1.
         -3    1    3    3    0  502  0.72160827920E+03 -0.38104000448E+03 -0.10065743840E+04  0.12958016762E+04  0.00000000000E+00 0.  1.
         15    1    5    5    0    0 -0.71505386054E+03  0.34340855595E+03 -0.49046625312E+03  0.93262627186E+03  0.17770000000E+01 0. -1.
        -15    1    5    5    0    0 -0.40981763955E+03  0.13653867086E+03 -0.31452478262E+03  0.53434287020E+03  0.17770000000E+01 0.  1.
          2    1    6    6  503    0 -0.96067717133E+02  0.11875526310E+03 -0.12080930504E+02  0.15322456615E+03  0.00000000000E+00 0. -1.
         -2    1    6    6    0  503 -0.44220680137E+01  0.13051036387E+03 -0.27501559736E+01  0.13061421485E+03  0.00000000000E+00 0.  1.
<mgrwt>
<rscale>  0 0.14684713E+04</rscale>
<asrwt>0</asrwt>
<pdfrwt beam="1">  1        1 0.51481716E+00 0.14684713E+04</pdfrwt>
<pdfrwt beam="2">  1       -1 0.10971505E+00 0.14684713E+04</pdfrwt>
<totfact> 0.24361156E-01</totfact>
</mgrwt>
</event>
<event>
12    1  0.8033771E-008  0.5669788E+03  0.7818608E-02  0.9976386E-01
          2   -1    0    0  501    0  0.00000000000E+00  0.00000000000E+00  0.85555874307E+03  0.85555874307E+03  0.00000000000E+00 0. -1.
         -2   -1    0    0    0  501 -0.00000000000E+00 -0.00000000000E+00 -0.52577725698E+03  0.52577725698E+03  0.00000000000E+00 0.  1.
         23    2    1    2    0    0 -0.24176186459E+03 -0.41078464597E+03  0.37708348824E+03  0.61362614686E+03  0.84571073545E+02 0.  0.
    5000000    2    1    2    0    0  0.24176186459E+03  0.41078464597E+03 -0.47302002148E+02  0.76770985318E+03  0.59995676072E+03 0.  0.
         23    2    4    4    0    0  0.17443616540E+03 -0.47138323453E+02 -0.18678858552E+03  0.27532556266E+03  0.90907603855E+02 0.  0.
         23    2    4    4    0    0  0.67325699191E+02  0.45792296942E+03  0.13948658337E+03  0.49238429051E+03  0.93592664841E+02 0.  0.
          3    1    3    3  502    0 -0.25384035512E+02 -0.10448732561E+03  0.10513482267E+03  0.15038378041E+03  0.00000000000E+00 0. -1.
         -3    1    3    3    0  502 -0.21637782908E+03 -0.30629732036E+03  0.27194866556E+03  0.46324236645E+03  0.00000000000E+00 0.  1.
         15    1    5    5    0    0  0.42993267729E+02 -0.35516772846E+02 -0.10817728991E+03  0.12171830596E+03  0.17770000000E+01 0.  1.
        -15    1    5    5    0    0  0.13144289767E+03 -0.11621550607E+02 -0.78611295605E+02  0.15360725671E+03  0.17770000000E+01 0. -1.
          1    1    6    6  503    0  0.39263293021E+02  0.34784304367E+03  0.14442770943E+03  0.37867631621E+03  0.00000000000E+00 0. -1.
         -1    1    6    6    0  503  0.28062406170E+02  0.11007992575E+03 -0.49411260626E+01  0.11370797431E+03  0.00000000000E+00 0.  1.
<mgrwt>
<rscale>  0 0.56697884E+03</rscale>
<asrwt>0</asrwt>
<pdfrwt beam="1">  1        2 0.13162442E+00 0.56697884E+03</pdfrwt>
<pdfrwt beam="2">  1       -2 0.80888809E-01 0.56697884E+03</pdfrwt>
<totfact> 0.43785141E+01</totfact>
</mgrwt>
</event>
<event>
12    1  0.8033771E-008  0.2778637E+03  0.7818608E-02  0.1096861E+00
          2   -1    0    0  501    0  0.00000000000E+00  0.00000000000E+00  0.81305783793E+03  0.81305783793E+03  0.00000000000E+00 0.  1.
         -2   -1    0    0    0  501 -0.00000000000E+00 -0.00000000000E+00 -0.23131928365E+03  0.23131928365E+03  0.00000000000E+00 0. -1.
         23    2    1    2    0    0 -0.13688304651E+03 -0.15254543170E+03  0.88723252959E+02  0.24118855236E+03  0.91066047561E+02 0.  0.
    5000000    2    1    2    0    0  0.13688304651E+03  0.15254543170E+03  0.49301530133E+03  0.80318856922E+03  0.60003392673E+03 0.  0.
         23    2    4    4    0    0  0.18928163268E+03  0.13294590159E+03 -0.46813926211E+02  0.25302875903E+03  0.91268066639E+02 0.  0.
         23    2    4    4    0    0 -0.52398586170E+02  0.19599530112E+02  0.53982922754E+03  0.55015981019E+03  0.90169110177E+02 0.  0.
          3    1    3    3  502    0  0.27537863612E+01 -0.31524493173E+02 -0.79747920413E+01  0.32633944249E+02  0.00000000000E+00 0. -1.
         -3    1    3    3    0  502 -0.13963683288E+03 -0.12102093853E+03  0.96698045000E+02  0.20855460811E+03  0.00000000000E+00 0.  1.
         15    1    5    5    0    0  0.54812463276E+02  0.74911656775E+02  0.15011613712E+02  0.94046098943E+02  0.17770000000E+01 0. -1.
        -15    1    5    5    0    0  0.13446916941E+03  0.58034244814E+02 -0.61825539923E+02  0.15898266009E+03  0.17770000000E+01 0.  1.
          4    1    6    6  503    0  0.17004001615E+02  0.25159315056E+02  0.26137173663E+03  0.26312983851E+03  0.00000000000E+00 0. -1.
         -4    1    6    6    0  503 -0.69402587785E+02 -0.55597849446E+01  0.27845749091E+03  0.28702997169E+03  0.00000000000E+00 0.  1.
<mgrwt>
<rscale>  0 0.27786369E+03</rscale>
<asrwt>0</asrwt>
<pdfrwt beam="1">  1        2 0.12508582E+00 0.27786369E+03</pdfrwt>
<pdfrwt beam="2">  1       -2 0.35587583E-01 0.27786369E+03</pdfrwt>
<totfact> 0.26072530E+02</totfact>
</mgrwt>
</event>
<event>
12    1  0.8033771E-008  0.4435346E+03  0.7818608E-02  0.1029668E+00
         -2   -1    0    0    0  501 -0.00000000000E+00  0.00000000000E+00  0.23614709689E+03  0.23614709689E+03  0.00000000000E+00 0.  1.
          2   -1    0    0  501    0  0.00000000000E+00 -0.00000000000E+00 -0.92678319071E+03  0.92678319071E+03  0.00000000000E+00 0. -1.
         23    2    1    2    0    0  0.16269000192E+03  0.21090348441E+03 -0.22230352497E+03  0.35658730959E+03  0.82385288037E+02 0.  0.
    5000000    2    1    2    0    0 -0.16269000192E+03 -0.21090348441E+03 -0.46833256886E+03  0.80634297802E+03  0.59992106704E+03 0.  0.
         23    2    4    4    0    0 -0.43496970834E+02  0.17617681037E+03 -0.29063968361E+03  0.35476594060E+03  0.91962992228E+02 0.  0.
         23    2    4    4    0    0 -0.11919303109E+03 -0.38708029478E+03 -0.17769288525E+03  0.45157703742E+03  0.91153310363E+02 0.  0.
          3    1    3    3  502    0  0.13394974451E+03  0.12084585323E+03 -0.11673614286E+03  0.21488038846E+03  0.00000000000E+00 0. -1.
         -3    1    3    3    0  502  0.28740257418E+02  0.90057631184E+02 -0.10556738210E+03  0.14170692113E+03  0.00000000000E+00 0.  1.
         15    1    5    5    0    0 -0.32292010257E+01  0.14991394126E+03 -0.18109992842E+03  0.23512753843E+03  0.17770000000E+01 0. -1.
        -15    1    5    5    0    0 -0.40267769808E+02  0.26262869102E+02 -0.10953975518E+03  0.11963840217E+03  0.17770000000E+01 0.  1.
          4    1    6    6  503    0 -0.13240430996E+03 -0.36569664628E+03 -0.17435309222E+03  0.42622052879E+03  0.00000000000E+00 0.  1.
         -4    1    6    6    0  503  0.13211278866E+02 -0.21383648496E+02 -0.33397930279E+01  0.25356508627E+02  0.00000000000E+00 0. -1.
<mgrwt>
<rscale>  0 0.44353455E+03</rscale>
<asrwt>0</asrwt>
<pdfrwt beam="1">  1        2 0.14258203E+00 0.44353455E+03</pdfrwt>
<pdfrwt beam="2">  1       -2 0.36330322E-01 0.44353455E+03</pdfrwt>
<totfact> 0.20699076E+02</totfact>
</mgrwt>
</event>
<event>
12    1  0.8033771E-008  0.7696483E+03  0.7818608E-02  0.9605020E-01
         -2   -1    0    0    0  501 -0.00000000000E+00  0.00000000000E+00  0.11987744548E+04  0.11987744548E+04  0.00000000000E+00 0.  1.
          2   -1    0    0  501    0  0.00000000000E+00 -0.00000000000E+00 -0.65793025395E+03  0.65793025395E+03  0.00000000000E+00 0. -1.
         23    2    1    2    0    0 -0.53710466025E+03 -0.45711329589E+03  0.59762353530E+03  0.92898864541E+03  0.91826096601E+02 0.  0.
    5000000    2    1    2    0    0  0.53710466025E+03  0.45711329589E+03 -0.56779334436E+02  0.92771606336E+03  0.59999935005E+03 0.  0.
         23    2    4    4    0    0  0.56374204334E+03  0.28683614093E+03 -0.21752117881E+03  0.67513976815E+03  0.91750641110E+02 0.  0.
         23    2    4    4    0    0 -0.26637383091E+02  0.17027715496E+03  0.16074184437E+03  0.25257629521E+03  0.90845939321E+02 0.  0.
          2    1    3    3  502    0 -0.47177210784E+03 -0.43245987940E+03  0.52033185058E+03  0.82482465031E+03  0.00000000000E+00 0. -1.
         -2    1    3    3    0  502 -0.65332552405E+02 -0.24653416486E+02  0.77291684720E+02  0.10416399510E+03  0.00000000000E+00 0.  1.
         15    1    5    5    0    0  0.47806136077E+03  0.26629774576E+03 -0.16090755806E+03  0.57039596249E+03  0.17770000000E+01 0. -1.
        -15    1    5    5    0    0  0.85680682568E+02  0.20538395170E+02 -0.56613620748E+02  0.10474380566E+03  0.17770000000E+01 0.  1.
          4    1    6    6  503    0 -0.52014614904E+02  0.53504196741E+02  0.72377182486E+02  0.10395516234E+03  0.00000000000E+00 0. -1.
         -4    1    6    6    0  503  0.25377231813E+02  0.11677295822E+03  0.88364661884E+02  0.14862113287E+03  0.00000000000E+00 0.  1.
<mgrwt>
<rscale>  0 0.76964826E+03</rscale>
<asrwt>0</asrwt>
<pdfrwt beam="1">  1        2 0.10122004E+00 0.76964826E+03</pdfrwt>
<pdfrwt beam="2">  1       -2 0.18442684E+00 0.76964826E+03</pdfrwt>
<totfact> 0.76084016E+00</totfact>
</mgrwt>
</event>
<event>
12    1  0.8033771E-008  0.7206266E+03  0.7818608E-02  0.9682594E-01
          2   -1    0    0  501    0  0.00000000000E+00  0.00000000000E+00  0.17570179861E+04  0.17570179861E+04  0.00000000000E+00 0. -1.
         -2   -1    0    0    0  501 -0.00000000000E+00 -0.00000000000E+00 -0.85906295330E+03  0.85906295330E+03  0.00000000000E+00 0.  1.
         23    2    1    2    0    0 -0.18454589468E+03 -0.57399346162E+03 -0.62388421183E+03  0.87262700161E+03  0.93384650494E+02 0.  0.
    5000000    2    1    2    0    0  0.18454589468E+03  0.57399346162E+03  0.15218392446E+04  0.17434539378E+04  0.60009271403E+03 0.  0.
         23    2    4    4    0    0 -0.76795104286E+02  0.56146576845E+03  0.10292463084E+04  0.11779658952E+04  0.84346842389E+02 0.  0.
         23    2    4    4    0    0  0.26134099896E+03  0.12527693168E+02  0.49259293621E+03  0.56548804252E+03  0.93128215860E+02 0.  0.
          1    1    3    3  502    0 -0.50950549919E+02 -0.10023114241E+03 -0.16500453504E+03  0.19967157291E+03  0.00000000000E+00 0. -1.
         -1    1    3    3    0  502 -0.13359534476E+03 -0.47376231921E+03 -0.45887967679E+03  0.67295542870E+03  0.00000000000E+00 0.  1.
         15    1    5    5    0    0 -0.96621181520E+01  0.26631864569E+03  0.54942873405E+03  0.61065052943E+03  0.17770000000E+01 0.  1.
        -15    1    5    5    0    0 -0.67132986134E+02  0.29514712276E+03  0.47981757436E+03  0.56731536582E+03  0.17770000000E+01 0. -1.
          3    1    6    6  503    0  0.16884261963E+03  0.34460267359E+02  0.38566216905E+03  0.42241052172E+03  0.00000000000E+00 0. -1.
         -3    1    6    6    0  503  0.92498379332E+02 -0.21932574191E+02  0.10693076717E+03  0.14307752080E+03  0.00000000000E+00 0.  1.
<mgrwt>
<rscale>  0 0.72062655E+03</rscale>
<asrwt>0</asrwt>
<pdfrwt beam="1">  1        2 0.27031046E+00 0.72062655E+03</pdfrwt>
<pdfrwt beam="2">  1       -2 0.13216353E+00 0.72062655E+03</pdfrwt>
<totfact> 0.39335877E+00</totfact>
</mgrwt>
</event>
<event>
12    1  0.8033771E-008  0.1804015E+04  0.7818608E-02  0.8704167E-01
         -2   -1    0    0    0  501 -0.00000000000E+00  0.00000000000E+00  0.75882120613E+03  0.75882120613E+03  0.00000000000E+00 0.  1.
          2   -1    0    0  501    0  0.00000000000E+00 -0.00000000000E+00 -0.45713775052E+04  0.45713775052E+04  0.00000000000E+00 0. -1.
         23    2    1    2    0    0  0.11925956101E+04 -0.13300728819E+04 -0.14153056398E+04  0.22809897326E+04  0.91901825220E+02 0.  0.
    5000000    2    1    2    0    0 -0.11925956101E+04  0.13300728819E+04 -0.23972506593E+04  0.30492089788E+04  0.59957194129E+03 0.  0.
         23    2    4    4    0    0 -0.84249170613E+03  0.11379786708E+04 -0.15107627881E+04  0.20726192515E+04  0.92512862909E+02 0.  0.
         23    2    4    4    0    0 -0.35010390394E+03  0.19209421116E+03 -0.88648787120E+03  0.97658972734E+03  0.91617794336E+02 0.  0.
          2    1    3    3  502    0  0.46877080065E+03 -0.57603650205E+03 -0.62382688706E+03  0.96990932579E+03  0.00000000000E+00 0.  1.
         -2    1    3    3    0  502  0.72382480942E+03 -0.75403637986E+03 -0.79147875279E+03  0.13110804068E+04  0.00000000000E+00 0. -1.
         15    1    5    5    0    0 -0.27774594053E+03  0.43619601495E+03 -0.51372578163E+03  0.72892188016E+03  0.17770000000E+01 0.  1.
        -15    1    5    5    0    0 -0.56474576559E+03  0.70178265581E+03 -0.99703700642E+03  0.13436973713E+04  0.17770000000E+01 0. -1.
          4    1    6    6  503    0 -0.12426545327E+03  0.42537802414E+02 -0.38251820269E+03  0.40443978897E+03  0.00000000000E+00 0.  1.
         -4    1    6    6    0  503 -0.22583845067E+03  0.14955640874E+03 -0.50396966851E+03  0.57214993837E+03  0.00000000000E+00 0. -1.
<mgrwt>
<rscale>  0 0.18040153E+04</rscale>
<asrwt>0</asrwt>
<pdfrwt beam="1">  1        2 0.70328886E+00 0.18040153E+04</pdfrwt>
<pdfrwt beam="2">  1       -2 0.11674172E+00 0.18040153E+04</pdfrwt>
<totfact> 0.55765913E-02</totfact>
</mgrwt>
</event>
<event>
12    1  0.8033771E-008  0.5951958E+03  0.7818608E-02  0.9915424E-01
          1   -1    0    0  501    0  0.00000000000E+00  0.00000000000E+00  0.41079315688E+03  0.41079315688E+03  0.00000000000E+00 0.  1.
         -1   -1    0    0    0  501 -0.00000000000E+00 -0.00000000000E+00 -0.98067350083E+03  0.98067350083E+03  0.00000000000E+00 0. -1.
         23    2    1    2    0    0 -0.12676371841E+03 -0.47050195077E+03 -0.24663173393E+03  0.55365121743E+03  0.90891871980E+02 0.  0.
    5000000    2    1    2    0    0  0.12676371841E+03  0.47050195077E+03 -0.32324861002E+03  0.83781544028E+03  0.60000326841E+03 0.  0.
         23    2    4    4    0    0  0.27076433933E+03  0.47439612682E+03 -0.10948619451E+03  0.56392338425E+03  0.87506250725E+02 0.  0.
         23    2    4    4    0    0 -0.14400062092E+03 -0.38941760502E+01 -0.21376241551E+03  0.27389205603E+03  0.92580476558E+02 0.  0.
          2    1    3    3  502    0  0.90430699327E+00 -0.15839626731E+03 -0.83395622636E+02  0.17901124306E+03  0.00000000000E+00 0.  1.
         -2    1    3    3    0  502 -0.12766802541E+03 -0.31210568347E+03 -0.16323611129E+03  0.37463997437E+03  0.00000000000E+00 0. -1.
         15    1    5    5    0    0  0.13195081025E+03  0.17219747790E+03 -0.75152681717E+02  0.22959545078E+03  0.17770000000E+01 0.  1.
        -15    1    5    5    0    0  0.13881352908E+03  0.30219864893E+03 -0.34333512792E+02  0.33432793347E+03  0.17770000000E+01 0. -1.
          3    1    6    6  503    0 -0.94847665504E+02  0.63804092927E+01 -0.60665170687E+02  0.11276990826E+03  0.00000000000E+00 0. -1.
         -3    1    6    6    0  503 -0.49152955415E+02 -0.10274585343E+02 -0.15309724482E+03  0.16112214777E+03  0.00000000000E+00 0.  1.
<mgrwt>
<rscale>  0 0.59519583E+03</rscale>
<asrwt>0</asrwt>
<pdfrwt beam="1">  1        1 0.63198948E-01 0.59519583E+03</pdfrwt>
<pdfrwt beam="2">  1       -1 0.15087284E+00 0.59519583E+03</pdfrwt>
<totfact> 0.20769322E+01</totfact>
</mgrwt>
</event>
<event>
12    1  0.8033771E-008  0.8831114E+03  0.7818608E-02  0.9446943E-01
         -1   -1    0    0    0  501 -0.00000000000E+00  0.00000000000E+00  0.43098203289E+03  0.43098203289E+03  0.00000000000E+00 0.  1.
          1   -1    0    0  501    0  0.00000000000E+00 -0.00000000000E+00 -0.21872988491E+04  0.21872988491E+04  0.00000000000E+00 0. -1.
         23    2    1    2    0    0  0.68112232496E+03 -0.48867545681E+03 -0.45525851028E+03  0.95833203646E+03  0.91698730995E+02 0.  0.
    5000000    2    1    2    0    0 -0.68112232496E+03  0.48867545681E+03 -0.13010583059E+04  0.16599488455E+04  0.59995510722E+03 0.  0.
         23    2    4    4    0    0 -0.20194481640E+02  0.15790696087E+03 -0.28122692297E+02  0.18515513231E+03  0.90272431105E+02 0.  0.
         23    2    4    4    0    0 -0.66092784332E+03  0.33076849594E+03 -0.12729356136E+04  0.14747937132E+04  0.91749703574E+02 0.  0.
          1    1    3    3  502    0  0.50936366534E+03 -0.35375610926E+03 -0.37998173197E+03  0.72731069361E+03  0.00000000000E+00 0. -1.
         -1    1    3    3    0  502  0.17175865962E+03 -0.13491934755E+03 -0.75276778311E+02  0.23102134285E+03  0.00000000000E+00 0.  1.
         15    1    5    5    0    0 -0.50115778302E+02  0.49599544055E+02 -0.79340288917E+01  0.70977549611E+02  0.17770000000E+01 0. -1.
        -15    1    5    5    0    0  0.29921296662E+02  0.10830741682E+03 -0.20188663405E+02  0.11417758270E+03  0.17770000000E+01 0.  1.
          3    1    6    6  503    0 -0.18848648102E+03  0.49369449530E+02 -0.33601537424E+03  0.38842094151E+03  0.00000000000E+00 0. -1.
         -3    1    6    6    0  503 -0.47244136231E+03  0.28139904641E+03 -0.93692023935E+03  0.10863727717E+04  0.00000000000E+00 0.  1.
<mgrwt>
<rscale>  0 0.88311137E+03</rscale>
<asrwt>0</asrwt>
<pdfrwt beam="1">  1        1 0.33650752E+00 0.88311137E+03</pdfrwt>
<pdfrwt beam="2">  1       -1 0.66304928E-01 0.88311137E+03</pdfrwt>
<totfact> 0.52785504E+00</totfact>
</mgrwt>
</event>
<event>
12    1  0.8033771E-008  0.8906640E+03  0.7818608E-02  0.9437328E-01
          2   -1    0    0  501    0  0.00000000000E+00  0.00000000000E+00  0.12406793404E+04  0.12406793404E+04  0.00000000000E+00 0. -1.
         -2   -1    0    0    0  501 -0.00000000000E+00 -0.00000000000E+00 -0.94836671249E+03  0.94836671249E+03  0.00000000000E+00 0.  1.
         23    2    1    2    0    0  0.64227270420E+03  0.54892626249E+03  0.67396338639E+03  0.10847288957E+04  0.92605954002E+02 0.  0.
    5000000    2    1    2    0    0 -0.64227270420E+03 -0.54892626249E+03 -0.38165075843E+03  0.11043171573E+04  0.60002067814E+03 0.  0.
         23    2    4    4    0    0 -0.40409821886E+03 -0.10605727805E+03  0.54904069946E+02  0.43207039033E+03  0.95534541322E+02 0.  0.
         23    2    4    4    0    0 -0.23817448533E+03 -0.44286898444E+03 -0.43655482838E+03  0.67224676693E+03  0.92062884063E+02 0.  0.
          2    1    3    3  502    0  0.27889816367E+03  0.20610982313E+03  0.22768195390E+03  0.41485481439E+03  0.00000000000E+00 0. -1.
         -2    1    3    3    0  502  0.36337454052E+03  0.34281643936E+03  0.44628143248E+03  0.66987408128E+03  0.00000000000E+00 0.  1.
         15    1    5    5    0    0 -0.24918490516E+03 -0.18725587723E+02  0.45313990113E+02  0.25396905328E+03  0.17770000000E+01 0.  1.
        -15    1    5    5    0    0 -0.15491331370E+03 -0.87331690327E+02  0.95900798330E+01  0.17810133705E+03  0.17770000000E+01 0. -1.
          3    1    6    6  503    0 -0.36263714671E+02 -0.12924091544E+03 -0.15411441673E+03  0.20437593956E+03  0.00000000000E+00 0. -1.
         -3    1    6    6    0  503 -0.20191077066E+03 -0.31362806899E+03 -0.28244041165E+03  0.46787082737E+03  0.00000000000E+00 0.  1.
<mgrwt>
<rscale>  0 0.89066402E+03</rscale>
<asrwt>0</asrwt>
<pdfrwt beam="1">  1        2 0.19087375E+00 0.89066402E+03</pdfrwt>
<pdfrwt beam="2">  1       -2 0.14590257E+00 0.89066402E+03</pdfrwt>
<totfact> 0.57952982E+00</totfact>
</mgrwt>
</event>
<event>
12    1  0.8033771E-008  0.9049272E+03  0.7818608E-02  0.9419443E-01
          1   -1    0    0  501    0  0.00000000000E+00  0.00000000000E+00  0.23860666211E+04  0.23860666211E+04  0.00000000000E+00 0. -1.
         -1   -1    0    0    0  501 -0.00000000000E+00 -0.00000000000E+00 -0.39622495251E+03  0.39622495251E+03  0.00000000000E+00 0.  1.
         23    2    1    2    0    0  0.85426446049E+03  0.19707713562E+03  0.86407884826E+03  0.12344081111E+04  0.92325309883E+02 0.  0.
    5000000    2    1    2    0    0 -0.85426446049E+03 -0.19707713562E+03  0.11257628204E+04  0.15478834626E+04  0.59999510010E+03 0.  0.
         23    2    4    4    0    0 -0.38349891147E+03 -0.23716140735E+03  0.91251901838E+03  0.10217034658E+04  0.88713385951E+02 0.  0.
         23    2    4    4    0    0 -0.47076554902E+03  0.40084271735E+02  0.21324380199E+03  0.52617999679E+03  0.90363261074E+02 0.  0.
          3    1    3    3  502    0  0.52984117810E+03  0.76867399826E+02  0.51252111686E+03  0.74116001403E+03  0.00000000000E+00 0. -1.
         -3    1    3    3    0  502  0.32442328238E+03  0.12020973579E+03  0.35155773140E+03  0.49324809704E+03  0.00000000000E+00 0.  1.
         15    1    5    5    0    0 -0.32407870543E+03 -0.20997368663E+03  0.83724387634E+03  0.92200673674E+03  0.17770000000E+01 0. -1.
        -15    1    5    5    0    0 -0.59420206037E+02 -0.27187720726E+02  0.75275142037E+02  0.99696729042E+02  0.17770000000E+01 0.  1.
          1    1    6    6  503    0 -0.29334322756E+03  0.56659768793E+02  0.10004807615E+03  0.31507173167E+03  0.00000000000E+00 0. -1.
         -1    1    6    6    0  503 -0.17742232146E+03 -0.16575497058E+02  0.11319572584E+03  0.21110826512E+03  0.00000000000E+00 0.  1.
<mgrwt>
<rscale>  0 0.90492720E+03</rscale>
<asrwt>0</asrwt>
<pdfrwt beam="1">  1        1 0.36708717E+00 0.90492720E+03</pdfrwt>
<pdfrwt beam="2">  1       -1 0.60957686E-01 0.90492720E+03</pdfrwt>
<totfact> 0.45687130E+00</totfact>
</mgrwt>
</event>
<event>
12    1  0.8033771E-008  0.5758873E+03  0.7818608E-02  0.9956735E-01
          1   -1    0    0  501    0  0.00000000000E+00  0.00000000000E+00  0.10217330615E+04  0.10217330615E+04  0.00000000000E+00 0. -1.
         -1   -1    0    0    0  501 -0.00000000000E+00 -0.00000000000E+00 -0.58486252590E+03  0.58486252590E+03  0.00000000000E+00 0.  1.
         23    2    1    2    0    0  0.48032170096E+03  0.31729486701E+02 -0.27205659531E+03  0.56054243067E+03  0.92072410566E+02 0.  0.
    5000000    2    1    2    0    0 -0.48032170096E+03 -0.31729486701E+02  0.70892713093E+03  0.10460531567E+04  0.59994485832E+03 0.  0.
         23    2    4    4    0    0  0.42216210016E+02 -0.89273349175E+02 -0.28307574958E+02  0.13595387985E+03  0.89051666936E+02 0.  0.
         23    2    4    4    0    0 -0.52253791097E+03  0.57543862475E+02  0.73723470589E+03  0.91009927690E+03  0.91697970154E+02 0.  0.
          3    1    3    3  502    0  0.38648250665E+03  0.60516981877E+02 -0.20483452759E+03  0.44157470119E+03  0.00000000000E+00 0. -1.
         -3    1    3    3    0  502  0.93839194311E+02 -0.28787495176E+02 -0.67222067727E+02  0.11896772948E+03  0.00000000000E+00 0.  1.
         15    1    5    5    0    0 -0.54786194598E+01 -0.84806181382E+02 -0.19619933108E+02  0.87236478471E+02  0.17770000000E+01 0. -1.
        -15    1    5    5    0    0  0.47694829476E+02 -0.44671677933E+01 -0.86876418493E+01  0.48717401375E+02  0.17770000000E+01 0.  1.
          4    1    6    6  503    0 -0.49479472179E+03  0.39445166456E+02  0.65802163747E+03  0.82423917235E+03  0.00000000000E+00 0. -1.
         -4    1    6    6    0  503 -0.27743189186E+02  0.18098696018E+02  0.79213068421E+02  0.85860104545E+02  0.00000000000E+00 0.  1.
<mgrwt>
<rscale>  0 0.57588734E+03</rscale>
<asrwt>0</asrwt>
<pdfrwt beam="1">  1        1 0.15718970E+00 0.57588734E+03</pdfrwt>
<pdfrwt beam="2">  1       -1 0.89978850E-01 0.57588734E+03</pdfrwt>
<totfact> 0.18564137E+01</totfact>
</mgrwt>
</event>
<event>
12    1  0.8033771E-008  0.8051886E+03  0.7818608E-02  0.9552537E-01
          1   -1    0    0  501    0  0.00000000000E+00  0.00000000000E+00  0.10209056658E+04  0.10209056658E+04  0.00000000000E+00 0. -1.
         -1   -1    0    0    0  501 -0.00000000000E+00 -0.00000000000E+00 -0.15238722719E+04  0.15238722719E+04  0.00000000000E+00 0.  1.
         23    2    1    2    0    0 -0.53824861969E+03  0.57906914164E+03  0.64726368221E+03  0.10255313379E+04  0.87929535895E+02 0.  0.
    5000000    2    1    2    0    0  0.53824861969E+03 -0.57906914164E+03 -0.11502302883E+04  0.15192465999E+04  0.60003988847E+03 0.  0.
         23    2    4    4    0    0  0.24435235051E+03 -0.13561022933E+03 -0.55701367311E+02  0.29898578332E+03  0.90507738957E+02 0.  0.
         23    2    4    4    0    0  0.29389626918E+03 -0.44345891231E+03 -0.10945289210E+04  0.12202608165E+04  0.89510209655E+02 0.  0.
          1    1    3    3  502    0 -0.36894996643E+03  0.37122539008E+03  0.37828039211E+03  0.64577737884E+03  0.00000000000E+00 0. -1.
         -1    1    3    3    0  502 -0.16929865326E+03  0.20784375156E+03  0.26898329010E+03  0.37975395905E+03  0.00000000000E+00 0.  1.
         15    1    5    5    0    0  0.16444108061E+03 -0.12397627182E+03 -0.68846955865E+02  0.21714982392E+03  0.17770000000E+01 0. -1.
        -15    1    5    5    0    0  0.79911269904E+02 -0.11633957508E+02  0.13145588554E+02  0.81835959409E+02  0.17770000000E+01 0.  1.
          4    1    6    6  503    0  0.11689122866E+03 -0.18926971682E+03 -0.55849915761E+03  0.60117210023E+03  0.00000000000E+00 0. -1.
         -4    1    6    6    0  503  0.17700504052E+03 -0.25418919549E+03 -0.53602976335E+03  0.61908871631E+03  0.00000000000E+00 0.  1.
<mgrwt>
<rscale>  0 0.80518859E+03</rscale>
<asrwt>0</asrwt>
<pdfrwt beam="1">  1        1 0.15706241E+00 0.80518859E+03</pdfrwt>
<pdfrwt beam="2">  1       -1 0.23444189E+00 0.80518859E+03</pdfrwt>
<totfact> 0.13346960E+00</totfact>
</mgrwt>
</event>
<event>
12    1  0.8033771E-008  0.5937763E+03  0.7818608E-02  0.9918403E-01
         -2   -1    0    0    0  501 -0.00000000000E+00  0.00000000000E+00  0.29431458969E+03  0.29431458969E+03  0.00000000000E+00 0.  1.
          2   -1    0    0  501    0  0.00000000000E+00 -0.00000000000E+00 -0.12728885636E+04  0.12728885636E+04  0.00000000000E+00 0. -1.
         23    2    1    2    0    0  0.41040701897E+03  0.18068123957E+03 -0.24576260144E+03  0.51930896952E+03  0.90569961907E+02 0.  0.
    5000000    2    1    2    0    0 -0.41040701897E+03 -0.18068123957E+03 -0.73281137249E+03  0.10478941838E+04  0.59999173429E+03 0.  0.
         23    2    4    4    0    0 -0.17646815806E+02  0.18244390798E+03 -0.14867792310E+03  0.25189590515E+03  0.88029725354E+02 0.  0.
         23    2    4    4    0    0 -0.39276020317E+03 -0.36312514755E+03 -0.58413344939E+03  0.79599827864E+03  0.79252273944E+02 0.  0.
          3    1    3    3  502    0  0.23448516854E+03  0.15119042064E+03 -0.14471513095E+03  0.31429970838E+03  0.00000000000E+00 0. -1.
         -3    1    3    3    0  502  0.17592185044E+03  0.29490818923E+02 -0.10104747049E+03  0.20500926114E+03  0.00000000000E+00 0.  1.
         15    1    5    5    0    0 -0.22993996766E+02  0.18725114680E+02  0.13820529545E+01  0.29739226729E+02  0.17770000000E+01 0. -1.
        -15    1    5    5    0    0  0.53471809604E+01  0.16371879330E+03 -0.15005997605E+03  0.22215667842E+03  0.17770000000E+01 0.  1.
          4    1    6    6  503    0 -0.21960771923E+03 -0.23197691170E+03 -0.39483974855E+03  0.50787721444E+03  0.00000000000E+00 0.  1.
         -4    1    6    6    0  503 -0.17315248394E+03 -0.13114823585E+03 -0.18929370084E+03  0.28812106420E+03  0.00000000000E+00 0. -1.
<mgrwt>
<rscale>  0 0.59377629E+03</rscale>
<asrwt>0</asrwt>
<pdfrwt beam="1">  1        2 0.19582901E+00 0.59377629E+03</pdfrwt>
<pdfrwt beam="2">  1       -2 0.45279168E-01 0.59377629E+03</pdfrwt>
<totfact> 0.81891862E+01</totfact>
</mgrwt>
</event>
<event>
12    1  0.8033771E-008  0.1922985E+04  0.7818608E-02  0.8643499E-01
          2   -1    0    0  501    0  0.00000000000E+00  0.00000000000E+00  0.29582803303E+04  0.29582803303E+04  0.00000000000E+00 0. -1.
         -2   -1    0    0    0  501 -0.00000000000E+00 -0.00000000000E+00 -0.12865158538E+04  0.12865158538E+04  0.00000000000E+00 0.  1.
         23    2    1    2    0    0  0.17283321562E+04  0.78878368793E+03  0.68488428897E+03  0.20214466542E+04  0.88703651028E+02 0.  0.
    5000000    2    1    2    0    0 -0.17283321562E+04 -0.78878368793E+03  0.98688018746E+03  0.22233495299E+04  0.60003239844E+03 0.  0.
         23    2    4    4    0    0 -0.12066714650E+04 -0.74498672049E+03  0.51117190662E+03  0.15102303406E+04  0.91857091864E+02 0.  0.
         23    2    4    4    0    0 -0.52166069123E+03 -0.43796967447E+02  0.47570828084E+03  0.71311918934E+03  0.90512753903E+02 0.  0.
          1    1    3    3  502    0  0.10461947301E+04  0.43001560311E+03  0.40124190353E+03  0.12001799438E+04  0.00000000000E+00 0. -1.
         -1    1    3    3    0  502  0.68213742610E+03  0.35876808483E+03  0.28364238544E+03  0.82126671039E+03  0.00000000000E+00 0.  1.
         15    1    5    5    0    0 -0.52598700778E+03 -0.28315004398E+03  0.18503937404E+03  0.62536310048E+03  0.17770000000E+01 0. -1.
        -15    1    5    5    0    0 -0.68068445721E+03 -0.46183667650E+03  0.32613253258E+03  0.88486724009E+03  0.17770000000E+01 0.  1.
          1    1    6    6  503    0 -0.27013218881E+03 -0.36130733138E+02  0.18911031645E+03  0.33172208412E+03  0.00000000000E+00 0. -1.
         -1    1    6    6    0  503 -0.25152850243E+03 -0.76662343086E+01  0.28659796439E+03  0.38139710522E+03  0.00000000000E+00 0.  1.
<mgrwt>
<rscale>  0 0.19229850E+04</rscale>
<asrwt>0</asrwt>
<pdfrwt beam="1">  1        2 0.45512005E+00 0.19229850E+04</pdfrwt>
<pdfrwt beam="2">  1       -2 0.19792552E+00 0.19229850E+04</pdfrwt>
<totfact> 0.22854711E-01</totfact>
</mgrwt>
</event>
<event>
12    1  0.8033771E-008  0.5738070E+03  0.7818608E-02  0.9961290E-01
         -2   -1    0    0    0  501 -0.00000000000E+00  0.00000000000E+00  0.34400577233E+03  0.34400577233E+03  0.00000000000E+00 0.  1.
          2   -1    0    0  501    0  0.00000000000E+00 -0.00000000000E+00 -0.11074002966E+04  0.11074002966E+04  0.00000000000E+00 0. -1.
         23    2    1    2    0    0  0.31134786534E+03 -0.30339906212E+03 -0.96098384174E+02  0.45435190532E+03  0.90621577356E+02 0.  0.
    5000000    2    1    2    0    0 -0.31134786534E+03  0.30339906212E+03 -0.66729614014E+03  0.99705416366E+03  0.59987030471E+03 0.  0.
         23    2    4    4    0    0  0.15305654062E+03  0.12345400098E+03 -0.31572980533E+03  0.38050853390E+03  0.80213710873E+02 0.  0.
         23    2    4    4    0    0 -0.46440440596E+03  0.17994506114E+03 -0.35156633481E+03  0.61654562976E+03  0.92075775860E+02 0.  0.
          2    1    3    3  502    0  0.22632789035E+03 -0.20472074270E+03 -0.25619207369E+02  0.30625355545E+03  0.00000000000E+00 0. -1.
         -2    1    3    3    0  502  0.85019974991E+02 -0.98678319415E+02 -0.70479176805E+02  0.14809834987E+03  0.00000000000E+00 0.  1.
         15    1    5    5    0    0  0.15621460584E+03  0.12875930681E+03 -0.28794557504E+03  0.35199115626E+03  0.17770000000E+01 0. -1.
        -15    1    5    5    0    0 -0.31580652170E+01 -0.53053058324E+01 -0.27784230291E+02  0.28517377645E+02  0.17770000000E+01 0.  1.
          2    1    6    6  503    0 -0.38828930406E+03  0.17806069707E+03 -0.32170819229E+03  0.53476196245E+03  0.00000000000E+00 0.  1.
         -2    1    6    6    0  503 -0.76115101892E+02  0.18843640660E+01 -0.29858142519E+02  0.81783667310E+02  0.00000000000E+00 0. -1.
<mgrwt>
<rscale>  0 0.57380697E+03</rscale>
<asrwt>0</asrwt>
<pdfrwt beam="1">  1        2 0.17036928E+00 0.57380697E+03</pdfrwt>
<pdfrwt beam="2">  1       -2 0.52923965E-01 0.57380697E+03</pdfrwt>
<totfact> 0.74962290E+01</totfact>
</mgrwt>
</event>
<event>
12    1  0.8033771E-008  0.1177013E+04  0.7818608E-02  0.9133218E-01
         -1   -1    0    0    0  501 -0.00000000000E+00  0.00000000000E+00  0.11086766867E+04  0.11086766867E+04  0.00000000000E+00 0.  1.
          1   -1    0    0  501    0  0.00000000000E+00 -0.00000000000E+00 -0.24165092527E+04  0.24165092527E+04  0.00000000000E+00 0. -1.
         23    2    1    2    0    0 -0.99882760354E+03 -0.57485735038E+03  0.53214477379E+03  0.12727079443E+04  0.92140633182E+02 0.  0.
    5000000    2    1    2    0    0  0.99882760354E+03  0.57485735038E+03 -0.18399773398E+04  0.22524779951E+04  0.60001912674E+03 0.  0.
         23    2    4    4    0    0  0.32029118934E+03  0.50596347056E+02 -0.18165906051E+03  0.38347436386E+03  0.94372332663E+02 0.  0.
         23    2    4    4    0    0  0.67853641420E+03  0.52426100332E+03 -0.16583182793E+04  0.18690036312E+04  0.88847020579E+02 0.  0.
          2    1    3    3  502    0 -0.25768872825E+03 -0.19578261968E+03  0.15333452837E+03  0.35811421701E+03  0.00000000000E+00 0. -1.
         -2    1    3    3    0  502 -0.74113887529E+03 -0.37907473069E+03  0.37881024542E+03  0.91459372727E+03  0.00000000000E+00 0.  1.
         15    1    5    5    0    0  0.17888136858E+03 -0.17276820955E+02 -0.11258596770E+03  0.21207496415E+03  0.17770000000E+01 0. -1.
        -15    1    5    5    0    0  0.14140982075E+03  0.67873168011E+02 -0.69073092807E+02  0.17139939971E+03  0.17770000000E+01 0.  1.
          3    1    6    6  503    0  0.49222361665E+03  0.33259238766E+03 -0.11782489577E+04  0.13195349148E+04  0.00000000000E+00 0. -1.
         -3    1    6    6    0  503  0.18631279756E+03  0.19166861566E+03 -0.48006932156E+03  0.54946871637E+03  0.00000000000E+00 0.  1.
<mgrwt>
<rscale>  0 0.11770134E+04</rscale>
<asrwt>0</asrwt>
<pdfrwt beam="1">  1        1 0.37177065E+00 0.11770134E+04</pdfrwt>
<pdfrwt beam="2">  1       -1 0.17056564E+00 0.11770134E+04</pdfrwt>
<totfact> 0.37289872E-01</totfact>
</mgrwt>
</event>
<event>
12    1  0.8033771E-008  0.7775752E+03  0.7818608E-02  0.9593055E-01
         -2   -1    0    0    0  501 -0.00000000000E+00  0.00000000000E+00  0.56654061365E+03  0.56654061365E+03  0.00000000000E+00 0.  1.
          2   -1    0    0  501    0  0.00000000000E+00 -0.00000000000E+00 -0.13433300223E+04  0.13433300223E+04  0.00000000000E+00 0. -1.
         23    2    1    2    0    0 -0.28204447876E+03  0.60587277112E+03 -0.75415700965E+03  0.10114468567E+04  0.87413076444E+02 0.  0.
    5000000    2    1    2    0    0  0.28204447876E+03 -0.60587277112E+03 -0.22632398993E+02  0.89842377925E+03  0.60001846542E+03 0.  0.
         23    2    4    4    0    0  0.11499846591E+03 -0.67209733366E+03  0.34270575487E+02  0.68855844327E+03  0.89435923360E+02 0.  0.
         23    2    4    4    0    0  0.16704601286E+03  0.66224562534E+02 -0.56902974480E+02  0.20986533597E+03  0.92279183159E+02 0.  0.
          3    1    3    3  502    0 -0.16659239697E+03  0.37250933110E+03 -0.52234882843E+03  0.66284577923E+03  0.00000000000E+00 0. -1.
         -3    1    3    3    0  502 -0.11545208180E+03  0.23336344002E+03 -0.23180818122E+03  0.34860107747E+03  0.00000000000E+00 0.  1.
         15    1    5    5    0    0  0.12770942337E+03 -0.64530581507E+03  0.29629231367E+02  0.65849095731E+03  0.17770000000E+01 0. -1.
        -15    1    5    5    0    0 -0.12710957461E+02 -0.26791518586E+02  0.46413441203E+01  0.30067485960E+02  0.17770000000E+01 0.  1.
          4    1    6    6  503    0  0.17548286512E+03  0.52648304324E+02 -0.61459625035E+02  0.19324431533E+03  0.00000000000E+00 0. -1.
         -4    1    6    6    0  503 -0.84368522584E+01  0.13576258211E+02  0.45566505547E+01  0.16621020646E+02  0.00000000000E+00 0.  1.
<mgrwt>
<rscale>  0 0.77757525E+03</rscale>
<asrwt>0</asrwt>
<pdfrwt beam="1">  1        2 0.20666616E+00 0.77757525E+03</pdfrwt>
<pdfrwt beam="2">  1       -2 0.87160095E-01 0.77757525E+03</pdfrwt>
<totfact> 0.18070180E+01</totfact>
</mgrwt>
</event>
<event>
12    1  0.8033771E-008  0.1593759E+04  0.7818608E-02  0.8824391E-01
         -2   -1    0    0    0  501 -0.00000000000E+00  0.00000000000E+00  0.10228848548E+04  0.10228848548E+04  0.00000000000E+00 0.  1.
          2   -1    0    0  501    0  0.00000000000E+00 -0.00000000000E+00 -0.25381699107E+04  0.25381699107E+04  0.00000000000E+00 0. -1.
         23    2    1    2    0    0  0.15014254162E+04  0.38770468017E+03 -0.84487575072E+03  0.17682735611E+04  0.91559562308E+02 0.  0.
    5000000    2    1    2    0    0 -0.15014254162E+04 -0.38770468017E+03 -0.67040930513E+03  0.17927812044E+04  0.60001884221E+03 0.  0.
         23    2    4    4    0    0 -0.28101950824E+03  0.10546717636E+03 -0.72578286813E+01  0.31593162803E+03  0.98309858182E+02 0.  0.
         23    2    4    4    0    0 -0.12204059079E+04 -0.49317185652E+03 -0.66315147645E+03  0.14768495763E+04  0.93304502801E+02 0.  0.
          2    1    3    3  502    0  0.39551253514E+03  0.13613166634E+03 -0.20079225228E+03  0.46398224601E+03  0.00000000000E+00 0. -1.
         -2    1    3    3    0  502  0.11059128810E+04  0.25157301383E+03 -0.64408349844E+03  0.13042913151E+04  0.00000000000E+00 0.  1.
         15    1    5    5    0    0  0.60744499756E+01  0.12439307656E+02 -0.19288508087E+01  0.14089482315E+02  0.17770000000E+01 0. -1.
        -15    1    5    5    0    0 -0.28709395821E+03  0.93027868700E+02 -0.53289778726E+01  0.30184214572E+03  0.17770000000E+01 0.  1.
          4    1    6    6  503    0 -0.45583215712E+03 -0.23114783145E+03 -0.27157253225E+03  0.57876067224E+03  0.00000000000E+00 0. -1.
         -4    1    6    6    0  503 -0.76457375081E+03 -0.26202402507E+03 -0.39157894420E+03  0.89808890410E+03  0.00000000000E+00 0.  1.
<mgrwt>
<rscale>  0 0.15937590E+04</rscale>
<asrwt>0</asrwt>
<pdfrwt beam="1">  1        2 0.39048767E+00 0.15937590E+04</pdfrwt>
<pdfrwt beam="2">  1       -2 0.15736690E+00 0.15937590E+04</pdfrwt>
<totfact> 0.81511428E-01</totfact>
</mgrwt>
</event>
<event>
12    1  0.8033771E-008  0.8785659E+03  0.7818608E-02  0.9452779E-01
         -2   -1    0    0    0  501 -0.00000000000E+00  0.00000000000E+00  0.67746325997E+03  0.67746325997E+03  0.00000000000E+00 0. -1.
          2   -1    0    0  501    0  0.00000000000E+00 -0.00000000000E+00 -0.15547888030E+04  0.15547888030E+04  0.00000000000E+00 0.  1.
         23    2    1    2    0    0 -0.56226852151E+03 -0.63366204612E+03  0.31358463445E+02  0.85259838098E+03  0.90923962988E+02 0.  0.
    5000000    2    1    2    0    0  0.56226852151E+03  0.63366204612E+03 -0.90868400647E+03  0.13796536820E+04  0.60005348061E+03 0.  0.
         23    2    4    4    0    0  0.44414795764E+03  0.29270205451E+03 -0.19333364774E+03  0.57336075833E+03  0.91775589697E+02 0.  0.
         23    2    4    4    0    0  0.11812056388E+03  0.34095999161E+03 -0.71535035873E+03  0.80629292364E+03  0.90421012380E+02 0.  0.
          1    1    3    3  502    0 -0.40107015863E+03 -0.45383453466E+03  0.63452396709E+02  0.60897394332E+03  0.00000000000E+00 0. -1.
         -1    1    3    3    0  502 -0.16119836289E+03 -0.17982751146E+03 -0.32093933264E+02  0.24362443767E+03  0.00000000000E+00 0.  1.
         15    1    5    5    0    0  0.38441733210E+03  0.21665656371E+03 -0.17615357726E+03  0.47513155266E+03  0.17770000000E+01 0.  1.
        -15    1    5    5    0    0  0.59730625532E+02  0.76045490797E+02 -0.17180070476E+02  0.98229205675E+02  0.17770000000E+01 0. -1.
          1    1    6    6  503    0 -0.14541559513E+02  0.20339541938E+02 -0.46471905097E+02  0.52771127359E+02  0.00000000000E+00 0. -1.
         -1    1    6    6    0  503  0.13266212339E+03  0.32062044968E+03 -0.66887845364E+03  0.75352179628E+03  0.00000000000E+00 0.  1.
<mgrwt>
<rscale>  0 0.87856587E+03</rscale>
<asrwt>0</asrwt>
<pdfrwt beam="1">  1        2 0.23919827E+00 0.87856587E+03</pdfrwt>
<pdfrwt beam="2">  1       -2 0.10422512E+00 0.87856587E+03</pdfrwt>
<totfact> 0.89259922E+00</totfact>
</mgrwt>
</event>
<event>
12    1  0.8033771E-008  0.1067663E+04  0.7818608E-02  0.9237295E-01
         -1   -1    0    0    0  501 -0.00000000000E+00  0.00000000000E+00  0.24745573656E+03  0.24745573656E+03  0.00000000000E+00 0.  1.
          1   -1    0    0  501    0  0.00000000000E+00 -0.00000000000E+00 -0.47158893302E+04  0.47158893302E+04  0.00000000000E+00 0. -1.
         23    2    1    2    0    0 -0.11618609709E+03  0.98716414932E+03 -0.21578640980E+04  0.23774714254E+04  0.89446332301E+02 0.  0.
    5000000    2    1    2    0    0  0.11618609709E+03 -0.98716414932E+03 -0.23105694957E+04  0.25858736414E+04  0.60001568977E+03 0.  0.
         23    2    4    4    0    0  0.10275974842E+03  0.29075149982E+02 -0.24482079457E+03  0.28187082260E+03  0.90050035736E+02 0.  0.
         23    2    4    4    0    0  0.13426348673E+02 -0.10162392993E+04 -0.20657487011E+04  0.23040028188E+04  0.90491505403E+02 0.  0.
          2    1    3    3  502    0 -0.15267027698E+02  0.37650565640E+03 -0.89494391131E+03  0.97103769022E+03  0.00000000000E+00 0.  1.
         -2    1    3    3    0  502 -0.10091906940E+03  0.61065849292E+03 -0.12629201866E+04  0.14064337352E+04  0.00000000000E+00 0. -1.
         15    1    5    5    0    0  0.49654094012E+02  0.45757695538E+02 -0.19769351515E+03  0.20891428724E+03  0.17770000000E+01 0. -1.
        -15    1    5    5    0    0  0.53105654409E+02 -0.16682545556E+02 -0.47127279421E+02  0.72956535355E+02  0.17770000000E+01 0.  1.
          1    1    6    6  503    0  0.25755892438E+01 -0.28592441885E+03 -0.67665510828E+03  0.73458937000E+03  0.00000000000E+00 0. -1.
         -1    1    6    6    0  503  0.10850759430E+02 -0.73031488046E+03 -0.13890935928E+04  0.15694134488E+04  0.00000000000E+00 0.  1.
<mgrwt>
<rscale>  0 0.10676633E+04</rscale>
<asrwt>0</asrwt>
<pdfrwt beam="1">  1        1 0.72552148E+00 0.10676633E+04</pdfrwt>
<pdfrwt beam="2">  1       -1 0.38070111E-01 0.10676633E+04</pdfrwt>
<totfact> 0.13453954E-01</totfact>
</mgrwt>
</event>
<event>
12    1  0.8033771E-008  0.1779287E+04  0.7818608E-02  0.8717393E-01
         -1   -1    0    0    0  501 -0.00000000000E+00  0.00000000000E+00  0.16280861706E+04  0.16280861706E+04  0.00000000000E+00 0.  1.
          1   -1    0    0  501    0  0.00000000000E+00 -0.00000000000E+00 -0.23289224103E+04  0.23289224103E+04  0.00000000000E+00 0. -1.
         23    2    1    2    0    0 -0.17219479398E+04 -0.37618907798E+03  0.37830211041E+03  0.18050036675E+04  0.91119828385E+02 0.  0.
    5000000    2    1    2    0    0  0.17219479398E+04  0.37618907798E+03 -0.10791383502E+04  0.21520049134E+04  0.59996886497E+03 0.  0.
         23    2    4    4    0    0  0.77196613058E+03  0.32991672920E+03 -0.78315973356E+03  0.11516469176E+04  0.90414045006E+02 0.  0.
         23    2    4    4    0    0  0.94998180922E+03  0.46272348788E+02 -0.29597861660E+03  0.10003579959E+04  0.92229118497E+02 0.  0.
          4    1    3    3  502    0 -0.19895648083E+03 -0.69533020064E+02  0.30008895869E+02  0.21288272822E+03  0.00000000000E+00 0. -1.
         -4    1    3    3    0  502 -0.15229914590E+04 -0.30665605792E+03  0.34829321454E+03  0.15921209393E+04  0.00000000000E+00 0.  1.
         15    1    5    5    0    0  0.27847908746E+02  0.83313200134E+00 -0.45584212489E+02  0.53453515204E+02  0.17770000000E+01 0. -1.
        -15    1    5    5    0    0  0.74411822184E+03  0.32908359719E+03 -0.73757552107E+03  0.10981934024E+04  0.17770000000E+01 0.  1.
          4    1    6    6  503    0  0.46600544232E+03 -0.48713732239E+01 -0.10609275783E+03  0.47795447044E+03  0.00000000000E+00 0. -1.
         -4    1    6    6    0  503  0.48397636690E+03  0.51143722012E+02 -0.18988585876E+03  0.52240352542E+03  0.00000000000E+00 0.  1.
<mgrwt>
<rscale>  0 0.17792871E+04</rscale>
<asrwt>0</asrwt>
<pdfrwt beam="1">  1        1 0.35829575E+00 0.17792871E+04</pdfrwt>
<pdfrwt beam="2">  1       -1 0.25047480E+00 0.17792871E+04</pdfrwt>
<totfact> 0.11235349E-01</totfact>
</mgrwt>
</event>
<event>
12    1  0.8033771E-008  0.1183188E+04  0.7818608E-02  0.9127700E-01
          2   -1    0    0  501    0  0.00000000000E+00  0.00000000000E+00  0.22981262511E+04  0.22981262511E+04  0.00000000000E+00 0. -1.
         -2   -1    0    0    0  501 -0.00000000000E+00 -0.00000000000E+00 -0.70951330293E+03  0.70951330293E+03  0.00000000000E+00 0.  1.
         23    2    1    2    0    0  0.91900069146E+03  0.73215210208E+03  0.10640212214E+04  0.15878334166E+04  0.92004500006E+02 0.  0.
    5000000    2    1    2    0    0 -0.91900069146E+03 -0.73215210208E+03  0.52459172684E+03  0.14198061374E+04  0.60003667932E+03 0.  0.
         23    2    4    4    0    0 -0.66958358990E+03 -0.61530858821E+03  0.11969484556E+03  0.92161433655E+03  0.89996037034E+02 0.  0.
         23    2    4    4    0    0 -0.24941710156E+03 -0.11684351387E+03  0.40489688128E+03  0.49819180088E+03  0.91609435709E+02 0.  0.
          3    1    3    3  502    0  0.55745191308E+03  0.47352318915E+03  0.71272583279E+03  0.10212516628E+04  0.00000000000E+00 0. -1.
         -3    1    3    3    0  502  0.36154877837E+03  0.25862891293E+03  0.35129538858E+03  0.56658175384E+03  0.00000000000E+00 0.  1.
         15    1    5    5    0    0 -0.62860391182E+03 -0.60256460227E+03  0.11682891232E+03  0.87856652016E+03  0.17770000000E+01 0.  1.
        -15    1    5    5    0    0 -0.40979678076E+02 -0.12743985942E+02  0.28659332345E+01  0.43047816381E+02  0.17770000000E+01 0. -1.
          1    1    6    6  503    0 -0.24031869133E+03 -0.10628727309E+03  0.32916522380E+03  0.42118855918E+03  0.00000000000E+00 0. -1.
         -1    1    6    6    0  503 -0.90984102303E+01 -0.10556240774E+02  0.75731657477E+02  0.77003241700E+02  0.00000000000E+00 0.  1.
<mgrwt>
<rscale>  0 0.11831884E+04</rscale>
<asrwt>0</asrwt>
<pdfrwt beam="1">  1        2 0.35355788E+00 0.11831884E+04</pdfrwt>
<pdfrwt beam="2">  1       -2 0.10915589E+00 0.11831884E+04</pdfrwt>
<totfact> 0.29869942E+00</totfact>
</mgrwt>
</event>
<event>
12    1  0.8033771E-008  0.1188592E+04  0.7818608E-02  0.9122901E-01
         -1   -1    0    0    0  501 -0.00000000000E+00  0.00000000000E+00  0.18871493072E+04  0.18871493072E+04  0.00000000000E+00 0.  1.
          1   -1    0    0  501    0  0.00000000000E+00 -0.00000000000E+00 -0.11747484786E+04  0.11747484786E+04  0.00000000000E+00 0. -1.
         23    2    1    2    0    0  0.98479949370E+03 -0.61199691495E+03 -0.51320679779E+03  0.12712516181E+04  0.91264409294E+02 0.  0.
    5000000    2    1    2    0    0 -0.98479949370E+03  0.61199691495E+03  0.12256076263E+04  0.17906461677E+04  0.59994114514E+03 0.  0.
         23    2    4    4    0    0 -0.95961414031E+03  0.61352820196E+03  0.90712775268E+03  0.14591297315E+04  0.94353911838E+02 0.  0.
         23    2    4    4    0    0 -0.25185353383E+02 -0.15312870117E+01  0.31847987365E+03  0.33151643627E+03  0.88527231591E+02 0.  0.
          1    1    3    3  502    0  0.73008907139E+03 -0.41573511582E+03 -0.34353361280E+03  0.90767895305E+03  0.00000000000E+00 0.  1.
         -1    1    3    3    0  502  0.25471042230E+03 -0.19626179913E+03 -0.16967318499E+03  0.36357266500E+03  0.00000000000E+00 0. -1.
         15    1    5    5    0    0 -0.54621719759E+03  0.33919545375E+03  0.45293474169E+03  0.78648574097E+03  0.17770000000E+01 0. -1.
        -15    1    5    5    0    0 -0.41339694272E+03  0.27433274821E+03  0.45419301098E+03  0.67264399049E+03  0.17770000000E+01 0.  1.
          1    1    6    6  503    0 -0.29978399024E+02 -0.32968322876E+02  0.85874164074E+02  0.96747024640E+02  0.00000000000E+00 0. -1.
         -1    1    6    6    0  503  0.47930456409E+01  0.31437035864E+02  0.23260570958E+03  0.23476941163E+03  0.00000000000E+00 0.  1.
<mgrwt>
<rscale>  0 0.11885924E+04</rscale>
<asrwt>0</asrwt>
<pdfrwt beam="1">  1        1 0.18073054E+00 0.11885924E+04</pdfrwt>
<pdfrwt beam="2">  1       -1 0.29033066E+00 0.11885924E+04</pdfrwt>
<totfact> 0.41921664E-01</totfact>
</mgrwt>
</event>
<event>
12    1  0.8033771E-008  0.6588091E+03  0.7818608E-02  0.9790389E-01
          1   -1    0    0  501    0  0.00000000000E+00  0.00000000000E+00  0.69502284230E+03  0.69502284230E+03  0.00000000000E+00 0. -1.
         -1   -1    0    0    0  501 -0.00000000000E+00 -0.00000000000E+00 -0.15023675738E+04  0.15023675738E+04  0.00000000000E+00 0.  1.
         23    2    1    2    0    0  0.17825167728E+03  0.54872819473E+03  0.41634743649E+03  0.71739462862E+03  0.91834487874E+02 0.  0.
    5000000    2    1    2    0    0 -0.17825167728E+03 -0.54872819473E+03 -0.12236921680E+04  0.14799957875E+04  0.60007392611E+03 0.  0.
         23    2    4    4    0    0  0.10500480657E+03 -0.71388446079E+01 -0.55041850028E+03  0.56607173247E+03  0.79998177137E+02 0.  0.
         23    2    4    4    0    0 -0.28325648384E+03 -0.54158935012E+03 -0.67327366771E+03  0.91392405501E+03  0.91686895892E+02 0.  0.
          1    1    3    3  502    0  0.83882770804E+02  0.36028130479E+03  0.22658258007E+03  0.43379557790E+03  0.00000000000E+00 0. -1.
         -1    1    3    3    0  502  0.94368906471E+02  0.18844688994E+03  0.18976485642E+03  0.28359905072E+03  0.00000000000E+00 0.  1.
         15    1    5    5    0    0  0.67227403112E+02  0.24652528543E+02 -0.42978809678E+03  0.43571577520E+03  0.17770000000E+01 0.  1.
        -15    1    5    5    0    0  0.37777403455E+02 -0.31791373151E+02 -0.12063040349E+03  0.13035595727E+03  0.17770000000E+01 0. -1.
          3    1    6    6  503    0  0.50250953255E+01 -0.91963306919E+01 -0.34500556020E+01  0.11032994375E+02  0.00000000000E+00 0. -1.
         -3    1    6    6    0  503 -0.28828157917E+03 -0.53239301943E+03 -0.66982361211E+03  0.90289106063E+03  0.00000000000E+00 0.  1.
<mgrwt>
<rscale>  0 0.65880908E+03</rscale>
<asrwt>0</asrwt>
<pdfrwt beam="1">  1        1 0.10692659E+00 0.65880908E+03</pdfrwt>
<pdfrwt beam="2">  1       -1 0.23113347E+00 0.65880908E+03</pdfrwt>
<totfact> 0.27070596E+00</totfact>
</mgrwt>
</event>
<event>
12    1  0.8033771E-008  0.6790008E+03  0.7818608E-02  0.9753833E-01
          1   -1    0    0  501    0  0.00000000000E+00  0.00000000000E+00  0.18999774588E+04  0.18999774588E+04  0.00000000000E+00 0. -1.
         -1   -1    0    0    0  501 -0.00000000000E+00 -0.00000000000E+00 -0.34970158440E+03  0.34970158440E+03  0.00000000000E+00 0.  1.
         23    2    1    2    0    0  0.53217007367E+03  0.24535161231E+03  0.14079858334E+03  0.60955042999E+03  0.91241901876E+02 0.  0.
    5000000    2    1    2    0    0 -0.53217007367E+03 -0.24535161231E+03  0.14094772911E+04  0.16401286132E+04  0.59999436072E+03 0.  0.
         23    2    4    4    0    0  0.94899139922E+02 -0.36139342971E+02  0.97455717122E+02  0.16814434384E+03  0.91994590591E+02 0.  0.
         23    2    4    4    0    0 -0.62706921359E+03 -0.20921226934E+03  0.13120215739E+04  0.14719842694E+04  0.91386577369E+02 0.  0.
          3    1    3    3  502    0  0.40990816197E+02  0.38703408881E+01  0.30444000328E+02  0.51206090527E+02  0.00000000000E+00 0. -1.
         -3    1    3    3    0  502  0.49117925747E+03  0.24148127142E+03  0.11035458301E+03  0.55834433946E+03  0.00000000000E+00 0.  1.
         15    1    5    5    0    0  0.12320026661E+02  0.48805316530E+00  0.73663431273E+02  0.74709303896E+02  0.17770000000E+01 0.  1.
        -15    1    5    5    0    0  0.82579113262E+02 -0.36627396137E+02  0.23792285849E+02  0.93435039946E+02  0.17770000000E+01 0. -1.
          4    1    6    6  503    0 -0.55305978122E+03 -0.21280784278E+03  0.11447691507E+04  0.12890534155E+04  0.00000000000E+00 0.  1.
         -4    1    6    6    0  503 -0.74009432372E+02  0.35955734479E+01  0.16725242323E+03  0.18293085389E+03  0.00000000000E+00 0. -1.
<mgrwt>
<rscale>  0 0.67900080E+03</rscale>
<asrwt>0</asrwt>
<pdfrwt beam="1">  1        1 0.29230422E+00 0.67900080E+03</pdfrwt>
<pdfrwt beam="2">  1       -1 0.53800245E-01 0.67900080E+03</pdfrwt>
<totfact> 0.12813502E+01</totfact>
</mgrwt>
</event>
<event>
12    1  0.8033771E-008  0.1338859E+04  0.7818608E-02  0.8999305E-01
          2   -1    0    0  501    0  0.00000000000E+00  0.00000000000E+00  0.90547750829E+03  0.90547750829E+03  0.00000000000E+00 0. -1.
         -2   -1    0    0    0  501 -0.00000000000E+00 -0.00000000000E+00 -0.22660141277E+04  0.22660141277E+04  0.00000000000E+00 0.  1.
         23    2    1    2    0    0  0.13268675924E+04  0.27437056787E+01 -0.10196637845E+04  0.16759185650E+04  0.91671518777E+02 0.  0.
    5000000    2    1    2    0    0 -0.13268675924E+04 -0.27437056787E+01 -0.34087283493E+03  0.14955730710E+04  0.59996615353E+03 0.  0.
         23    2    4    4    0    0 -0.26217343594E+03 -0.31680086881E+02 -0.32011853141E+03  0.42630862411E+03  0.97594213058E+02 0.  0.
         23    2    4    4    0    0 -0.10646941565E+04  0.28936381203E+02 -0.20754303519E+02  0.10692644469E+04  0.92112731324E+02 0.  0.
          2    1    3    3  502    0  0.10819537290E+04  0.16233762062E+02 -0.78867662407E+03  0.13389914952E+04  0.00000000000E+00 0.  1.
         -2    1    3    3    0  502  0.24491386341E+03 -0.13490056383E+02 -0.23098716038E+03  0.33692706981E+03  0.00000000000E+00 0. -1.
         15    1    5    5    0    0 -0.63736172976E+02  0.34206341434E+02 -0.86873838961E+02  0.11306013959E+03  0.17770000000E+01 0. -1.
        -15    1    5    5    0    0 -0.19843726296E+03 -0.65886428315E+02 -0.23324469245E+03  0.31324848452E+03  0.17770000000E+01 0.  1.
          4    1    6    6  503    0 -0.10038820005E+04  0.59744873956E+01 -0.23918264619E+02  0.10041846687E+04  0.00000000000E+00 0.  1.
         -4    1    6    6    0  503 -0.60812155955E+02  0.22961893807E+02  0.31639611005E+01  0.65079778187E+02  0.00000000000E+00 0. -1.
<mgrwt>
<rscale>  0 0.13388586E+04</rscale>
<asrwt>0</asrwt>
<pdfrwt beam="1">  1        2 0.13930423E+00 0.13388586E+04</pdfrwt>
<pdfrwt beam="2">  1       -2 0.34861755E+00 0.13388586E+04</pdfrwt>
<totfact> 0.44651294E-01</totfact>
</mgrwt>
</event>
<event>
12    1  0.8033771E-008  0.1077562E+04  0.7818608E-02  0.9227342E-01
          2   -1    0    0  501    0  0.00000000000E+00  0.00000000000E+00  0.13496008826E+04  0.13496008826E+04  0.00000000000E+00 0. -1.
         -2   -1    0    0    0  501 -0.00000000000E+00 -0.00000000000E+00 -0.10830566534E+04  0.10830566534E+04  0.00000000000E+00 0.  1.
         23    2    1    2    0    0  0.33762132279E+03  0.99521267670E+03  0.55012966237E+03  0.11896643539E+04  0.90676348456E+02 0.  0.
    5000000    2    1    2    0    0 -0.33762132279E+03 -0.99521267670E+03 -0.28358543319E+03  0.12429931821E+04  0.60014575169E+03 0.  0.
         23    2    4    4    0    0 -0.13405839125E+03 -0.98729178548E+02 -0.25615703217E+03  0.31874627439E+03  0.90904671755E+02 0.  0.
         23    2    4    4    0    0 -0.20356293154E+03 -0.89648349815E+03 -0.27428401020E+02  0.92424690767E+03  0.91430299144E+02 0.  0.
          4    1    3    3  502    0  0.25275459900E+03  0.75376812746E+03  0.45896223472E+03  0.91798562636E+03  0.00000000000E+00 0. -1.
         -4    1    3    3    0  502  0.84866723783E+02  0.24144454923E+03  0.91167427653E+02  0.27167872759E+03  0.00000000000E+00 0.  1.
         15    1    5    5    0    0 -0.99572046055E+01  0.13173919019E+02 -0.53802986992E+02  0.56308233893E+02  0.17770000000E+01 0. -1.
        -15    1    5    5    0    0 -0.12410118665E+03 -0.11190309757E+03 -0.20235404518E+03  0.26243804050E+03  0.17770000000E+01 0.  1.
          4    1    6    6  503    0 -0.11018359822E+03 -0.58476944231E+03 -0.55477647397E+02  0.59763993787E+03  0.00000000000E+00 0. -1.
         -4    1    6    6    0  503 -0.93379333317E+02 -0.31171405584E+03  0.28049246377E+02  0.32660696980E+03  0.00000000000E+00 0.  1.
<mgrwt>
<rscale>  0 0.10775615E+04</rscale>
<asrwt>0</asrwt>
<pdfrwt beam="1">  1        2 0.20763090E+00 0.10775615E+04</pdfrwt>
<pdfrwt beam="2">  1       -2 0.16662410E+00 0.10775615E+04</pdfrwt>
<totfact> 0.34277143E+00</totfact>
</mgrwt>
</event>
<event>
12    1  0.8033771E-008  0.3251035E+03  0.7818608E-02  0.1073324E+00
         -2   -1    0    0    0  501 -0.00000000000E+00  0.00000000000E+00  0.18881305840E+03  0.18881305840E+03  0.00000000000E+00 0.  1.
          2   -1    0    0  501    0  0.00000000000E+00 -0.00000000000E+00 -0.11595252489E+04  0.11595252489E+04  0.00000000000E+00 0. -1.
         23    2    1    2    0    0  0.19570179677E+03  0.15040480973E+03 -0.15197076138E+03  0.30410984603E+03  0.92015683941E+02 0.  0.
    5000000    2    1    2    0    0 -0.19570179677E+03 -0.15040480973E+03 -0.81874142909E+03  0.10442284612E+04  0.59929521232E+03 0.  0.
         23    2    4    4    0    0 -0.26549059108E+03 -0.95560727328E+02 -0.98163962653E+02  0.31254240392E+03  0.91812222102E+02 0.  0.
         23    2    4    4    0    0  0.69788794315E+02 -0.54844082399E+02 -0.72057746644E+03  0.73168605732E+03  0.90852914925E+02 0.  0.
          4    1    3    3  502    0  0.11273345045E+03  0.10205151672E+03 -0.41276173478E+02  0.15756606681E+03  0.00000000000E+00 0. -1.
         -4    1    3    3    0  502  0.82968346317E+02  0.48353293009E+02 -0.11069458791E+03  0.14654377922E+03  0.00000000000E+00 0.  1.
         15    1    5    5    0    0 -0.17936526795E+03 -0.54132796986E+02 -0.18805703190E+02  0.18830579189E+03  0.17770000000E+01 0.  1.
        -15    1    5    5    0    0 -0.86125323131E+02 -0.41427930342E+02 -0.79358259464E+02  0.12423661204E+03  0.17770000000E+01 0. -1.
          4    1    6    6  503    0  0.11053578196E+02 -0.59239367394E+02 -0.23727859637E+03  0.24481138972E+03  0.00000000000E+00 0. -1.
         -4    1    6    6    0  503  0.58735216119E+02  0.43952849951E+01 -0.48329887006E+03  0.48687466760E+03  0.00000000000E+00 0.  1.
<mgrwt>
<rscale>  0 0.32510353E+03</rscale>
<asrwt>0</asrwt>
<pdfrwt beam="1">  1        2 0.17838850E+00 0.32510353E+03</pdfrwt>
<pdfrwt beam="2">  1       -2 0.29048163E-01 0.32510353E+03</pdfrwt>
<totfact> 0.22895118E+02</totfact>
</mgrwt>
</event>
<event>
12    1  0.8033771E-008  0.6313161E+03  0.7818608E-02  0.9842484E-01
          1   -1    0    0  501    0  0.00000000000E+00  0.00000000000E+00  0.14667211857E+04  0.14667211857E+04  0.00000000000E+00 0. -1.
         -1   -1    0    0    0  501 -0.00000000000E+00 -0.00000000000E+00 -0.39431477522E+03  0.39431477522E+03  0.00000000000E+00 0.  1.
         23    2    1    2    0    0 -0.34489877885E+03 -0.45886889756E+03  0.79605438754E+03  0.98579804877E+03  0.92624900789E+02 0.  0.
    5000000    2    1    2    0    0  0.34489877885E+03  0.45886889756E+03  0.27635202297E+03  0.87523791217E+03  0.60012926065E+03 0.  0.
         23    2    4    4    0    0  0.27505319625E+02 -0.30171181513E+02  0.26805976958E+03  0.28543793980E+03  0.89173620604E+02 0.  0.
         23    2    4    4    0    0  0.31739345923E+03  0.48904007907E+03  0.82922533934E+01  0.58979997236E+03  0.88861909904E+02 0.  0.
          1    1    3    3  502    0 -0.13524509651E+03 -0.13310533440E+03  0.20744216257E+03  0.28114145370E+03  0.00000000000E+00 0. -1.
         -1    1    3    3    0  502 -0.20965368234E+03 -0.32576356316E+03  0.58861222496E+03  0.70465659507E+03  0.00000000000E+00 0.  1.
         15    1    5    5    0    0 -0.16844321297E+02  0.21713973428E+02  0.10732463843E+03  0.11080146003E+03  0.17770000000E+01 0.  1.
        -15    1    5    5    0    0  0.44349640922E+02 -0.51885154941E+02  0.16073513115E+03  0.17463647977E+03  0.17770000000E+01 0. -1.
          1    1    6    6  503    0  0.15630797130E+03  0.32012171590E+03  0.15423808845E+00  0.35624446476E+03  0.00000000000E+00 0. -1.
         -1    1    6    6    0  503  0.16108548793E+03  0.16891836317E+03  0.81380153049E+01  0.23355550760E+03  0.00000000000E+00 0.  1.
<mgrwt>
<rscale>  0 0.63131611E+03</rscale>
<asrwt>0</asrwt>
<pdfrwt beam="1">  1        1 0.22564941E+00 0.63131611E+03</pdfrwt>
<pdfrwt beam="2">  1       -1 0.60663812E-01 0.63131611E+03</pdfrwt>
<totfact> 0.20003974E+01</totfact>
</mgrwt>
</event>
<event>
12    1  0.8033771E-008  0.6891570E+03  0.7818608E-02  0.9735957E-01
          2   -1    0    0  501    0  0.00000000000E+00  0.00000000000E+00  0.69294142032E+03  0.69294142032E+03  0.00000000000E+00 0. -1.
         -2   -1    0    0    0  501 -0.00000000000E+00 -0.00000000000E+00 -0.96226364751E+03  0.96226364751E+03  0.00000000000E+00 0.  1.
         23    2    1    2    0    0  0.43758734435E+03 -0.38019392032E+03  0.28626602819E+03  0.65286381221E+03  0.90845018647E+02 0.  0.
    5000000    2    1    2    0    0 -0.43758734435E+03  0.38019392032E+03 -0.55558825537E+03  0.10023412556E+04  0.59998298495E+03 0.  0.
         23    2    4    4    0    0 -0.84668424895E+02  0.42298233122E+03 -0.42669142396E+03  0.61326492266E+03  0.89137530738E+02 0.  0.
         23    2    4    4    0    0 -0.35291891945E+03 -0.42788410906E+02 -0.12889683141E+03  0.38907633296E+03  0.91560842631E+02 0.  0.
          2    1    3    3  502    0  0.11618083556E+03 -0.86633834202E+02  0.30862749969E+02  0.14817529185E+03  0.00000000000E+00 0. -1.
         -2    1    3    3    0  502  0.32140650879E+03 -0.29356008611E+03  0.25540327822E+03  0.50468852036E+03  0.00000000000E+00 0.  1.
         15    1    5    5    0    0 -0.82862758749E+02  0.29753079041E+03 -0.34735071418E+03  0.46480800811E+03  0.17770000000E+01 0. -1.
        -15    1    5    5    0    0 -0.18056661458E+01  0.12545154081E+03 -0.79340709783E+02  0.14845691455E+03  0.17770000000E+01 0.  1.
          2    1    6    6  503    0 -0.28651507165E+03 -0.64895313059E+02 -0.12414940221E+03  0.31892845907E+03  0.00000000000E+00 0. -1.
         -2    1    6    6    0  503 -0.66403847807E+02  0.22106902153E+02 -0.47474292011E+01  0.70147873884E+02  0.00000000000E+00 0.  1.
<mgrwt>
<rscale>  0 0.68915698E+03</rscale>
<asrwt>0</asrwt>
<pdfrwt beam="1">  1        2 0.10660637E+00 0.68915698E+03</pdfrwt>
<pdfrwt beam="2">  1       -2 0.14804056E+00 0.68915698E+03</pdfrwt>
<totfact> 0.13155463E+01</totfact>
</mgrwt>
</event>
<event>
12    1  0.8033771E-008  0.8420263E+03  0.7818608E-02  0.9501102E-01
         -2   -1    0    0    0  501 -0.00000000000E+00  0.00000000000E+00  0.66347911044E+03  0.66347911044E+03  0.00000000000E+00 0.  1.
          2   -1    0    0  501    0  0.00000000000E+00 -0.00000000000E+00 -0.11507906991E+04  0.11507906991E+04  0.00000000000E+00 0. -1.
         23    2    1    2    0    0 -0.74657223604E+03  0.13802656854E+03 -0.85601677126E+02  0.76651533331E+03  0.61617139073E+02 0.  0.
    5000000    2    1    2    0    0  0.74657223604E+03 -0.13802656854E+03 -0.40170991155E+03  0.10477544762E+04  0.59999762685E+03 0.  0.
         23    2    4    4    0    0  0.27083425130E+03 -0.31065020894E+03 -0.31287065998E+03  0.52609758902E+03  0.95057242300E+02 0.  0.
         23    2    4    4    0    0  0.47573798474E+03  0.17262364040E+03 -0.88839251572E+02  0.52165688722E+03  0.90044122643E+02 0.  0.
          3    1    3    3  502    0 -0.25417962645E+03  0.42189979825E+02 -0.58117546060E+02  0.26413050953E+03  0.00000000000E+00 0. -1.
         -3    1    3    3    0  502 -0.49239260958E+03  0.95836588711E+02 -0.27484131066E+02  0.50238482378E+03  0.00000000000E+00 0.  1.
         15    1    5    5    0    0  0.21458766788E+03 -0.25137312976E+03 -0.29368076626E+03  0.44214009971E+03  0.17770000000E+01 0. -1.
        -15    1    5    5    0    0  0.56246583420E+02 -0.59277079173E+02 -0.19189893715E+02  0.83957489311E+02  0.17770000000E+01 0.  1.
          1    1    6    6  503    0  0.34747348577E+03  0.16323667571E+03 -0.49003609172E+02  0.38702117426E+03  0.00000000000E+00 0. -1.
         -1    1    6    6    0  503  0.12826449896E+03  0.93869646886E+01 -0.39835642400E+02  0.13463571297E+03  0.00000000000E+00 0.  1.
<mgrwt>
<rscale>  0 0.84202626E+03</rscale>
<asrwt>0</asrwt>
<pdfrwt beam="1">  1        2 0.17704472E+00 0.84202626E+03</pdfrwt>
<pdfrwt beam="2">  1       -2 0.10207371E+00 0.84202626E+03</pdfrwt>
<totfact> 0.16088639E+01</totfact>
</mgrwt>
</event>
<event>
12    1  0.8033771E-008  0.4170523E+03  0.7818608E-02  0.1038030E+00
          2   -1    0    0  501    0  0.00000000000E+00  0.00000000000E+00  0.90343150531E+03  0.90343150531E+03  0.00000000000E+00 0. -1.
         -2   -1    0    0    0  501 -0.00000000000E+00 -0.00000000000E+00 -0.28459224063E+03  0.28459224063E+03  0.00000000000E+00 0.  1.
         23    2    1    2    0    0  0.23803245919E+03 -0.12478655357E+03 -0.19837889882E+01  0.28368076939E+03  0.90772836940E+02 0.  0.
    5000000    2    1    2    0    0 -0.23803245919E+03  0.12478655357E+03  0.62082305366E+03  0.90434297655E+03  0.60015316353E+03 0.  0.
         23    2    4    4    0    0  0.67347971857E+02  0.20308410127E+03  0.37949664987E+02  0.23476440554E+03  0.88855205429E+02 0.  0.
         23    2    4    4    0    0 -0.30538043104E+03 -0.78297547699E+02  0.58287338867E+03  0.66957857101E+03  0.95949788383E+02 0.  0.
          2    1    3    3  502    0  0.18232843927E+03 -0.53742629794E+02  0.18891117434E+02  0.19102042913E+03  0.00000000000E+00 0. -1.
         -2    1    3    3    0  502  0.55704019912E+02 -0.71043923781E+02 -0.20874906423E+02  0.92660340268E+02  0.00000000000E+00 0.  1.
         15    1    5    5    0    0  0.81083287846E+02  0.12948907475E+03  0.45696117493E+02  0.15947793870E+03  0.17770000000E+01 0. -1.
        -15    1    5    5    0    0 -0.13735315990E+02  0.73595026521E+02 -0.77464525058E+01  0.75286466841E+02  0.17770000000E+01 0.  1.
          3    1    6    6  503    0 -0.15772650806E+03 -0.83207619260E+02  0.36646779755E+03  0.40755343931E+03  0.00000000000E+00 0.  1.
         -3    1    6    6    0  503 -0.14765392298E+03  0.49100715611E+01  0.21640559112E+03  0.26202513170E+03  0.00000000000E+00 0. -1.
<mgrwt>
<rscale>  0 0.41705226E+03</rscale>
<asrwt>0</asrwt>
<pdfrwt beam="1">  1        2 0.13898946E+00 0.41705226E+03</pdfrwt>
<pdfrwt beam="2">  1       -2 0.43783422E-01 0.41705226E+03</pdfrwt>
<totfact> 0.14989725E+02</totfact>
</mgrwt>
</event>
<event>
12    1  0.8033771E-008  0.6201302E+03  0.7818608E-02  0.9864500E-01
          2   -1    0    0  501    0  0.00000000000E+00  0.00000000000E+00  0.12972246367E+04  0.12972246367E+04  0.00000000000E+00 0. -1.
         -2   -1    0    0    0  501 -0.00000000000E+00 -0.00000000000E+00 -0.49998081435E+03  0.49998081435E+03  0.00000000000E+00 0.  1.
         23    2    1    2    0    0 -0.24198702872E+03  0.41813338963E+03  0.89416407516E+03  0.10208354163E+04  0.95824320033E+02 0.  0.
    5000000    2    1    2    0    0  0.24198702872E+03 -0.41813338963E+03 -0.96920252768E+02  0.77637003476E+03  0.59996970081E+03 0.  0.
         23    2    4    4    0    0  0.39810783343E+03 -0.41396357005E+03 -0.11870049614E+03  0.59378454819E+03  0.92922535046E+02 0.  0.
         23    2    4    4    0    0 -0.15612080470E+03 -0.41698195817E+01  0.21780243374E+02  0.18258548658E+03  0.92043401993E+02 0.  0.
          1    1    3    3  502    0 -0.89380965295E+02  0.18504147390E+03  0.47477564634E+03  0.51734052459E+03  0.00000000000E+00 0. -1.
         -1    1    3    3    0  502 -0.15260606343E+03  0.23309191573E+03  0.41938842882E+03  0.50349489174E+03  0.00000000000E+00 0.  1.
         15    1    5    5    0    0  0.30587459212E+03 -0.36501997169E+03 -0.82967428153E+02  0.48341038228E+03  0.17770000000E+01 0. -1.
        -15    1    5    5    0    0  0.92233241307E+02 -0.48943598363E+02 -0.35733067990E+02  0.11037416591E+03  0.17770000000E+01 0.  1.
          4    1    6    6  503    0 -0.53038648860E+02 -0.39922715389E+02 -0.13839589486E+02  0.67811914249E+02  0.00000000000E+00 0. -1.
         -4    1    6    6    0  503 -0.10308215584E+03  0.35752895808E+02  0.35619832860E+02  0.11477357233E+03  0.00000000000E+00 0.  1.
<mgrwt>
<rscale>  0 0.62013022E+03</rscale>
<asrwt>0</asrwt>
<pdfrwt beam="1">  1        2 0.19957302E+00 0.62013022E+03</pdfrwt>
<pdfrwt beam="2">  1       -2 0.76920126E-01 0.62013022E+03</pdfrwt>
<totfact> 0.25961933E+01</totfact>
</mgrwt>
</event>
<event>
12    1  0.8033771E-008  0.1022131E+04  0.7818608E-02  0.9284599E-01
         -1   -1    0    0    0  501 -0.00000000000E+00  0.00000000000E+00  0.10595937520E+04  0.10595937520E+04  0.00000000000E+00 0.  1.
          1   -1    0    0  501    0  0.00000000000E+00 -0.00000000000E+00 -0.10626541068E+04  0.10626541068E+04  0.00000000000E+00 0. -1.
         23    2    1    2    0    0  0.67686167921E+03 -0.66231678888E+03  0.22659939241E+03  0.97794302200E+03  0.90664259932E+02 0.  0.
    5000000    2    1    2    0    0 -0.67686167921E+03  0.66231678888E+03 -0.22965974729E+03  0.11443048368E+04  0.59990390764E+03 0.  0.
         23    2    4    4    0    0 -0.60571265766E+03  0.22654194859E+03 -0.33592261035E+02  0.65388764117E+03  0.90727774935E+02 0.  0.
         23    2    4    4    0    0 -0.71149021544E+02  0.43577484029E+03 -0.19606748625E+03  0.49041719564E+03  0.84289215893E+02 0.  0.
          4    1    3    3  502    0  0.33182269677E+03 -0.28054030125E+03  0.13700886594E+03  0.45561013165E+03  0.00000000000E+00 0. -1.
         -4    1    3    3    0  502  0.34503898244E+03 -0.38177648763E+03  0.89590526471E+02  0.52233289035E+03  0.00000000000E+00 0.  1.
         15    1    5    5    0    0 -0.92072302001E+02  0.34753374881E+01 -0.16614940823E+02  0.93640807098E+02  0.17770000000E+01 0.  1.
        -15    1    5    5    0    0 -0.51364035566E+03  0.22306661110E+03 -0.16977320212E+02  0.56024683407E+03  0.17770000000E+01 0. -1.
          1    1    6    6  503    0 -0.56441756096E+02  0.23468070030E+03 -0.65143716350E+02  0.25000881326E+03  0.00000000000E+00 0. -1.
         -1    1    6    6    0  503 -0.14707265448E+02  0.20109413999E+03 -0.13092376990E+03  0.24040838238E+03  0.00000000000E+00 0.  1.
<mgrwt>
<rscale>  0 0.10221312E+04</rscale>
<asrwt>0</asrwt>
<pdfrwt beam="1">  1        1 0.16348525E+00 0.10221312E+04</pdfrwt>
<pdfrwt beam="2">  1       -1 0.16301442E+00 0.10221312E+04</pdfrwt>
<totfact> 0.37546894E+00</totfact>
</mgrwt>
</event>
<event>
12    1  0.8033771E-008  0.8869513E+03  0.7818608E-02  0.9442042E-01
         -1   -1    0    0    0  501 -0.00000000000E+00  0.00000000000E+00  0.67829682613E+03  0.67829682613E+03  0.00000000000E+00 0.  1.
          1   -1    0    0  501    0  0.00000000000E+00 -0.00000000000E+00 -0.12126408545E+04  0.12126408545E+04  0.00000000000E+00 0. -1.
         23    2    1    2    0    0  0.12752025842E+03 -0.79447141624E+03 -0.25362938419E+03  0.84861911527E+03  0.91543927985E+02 0.  0.
    5000000    2    1    2    0    0 -0.12752025842E+03  0.79447141624E+03 -0.28071464413E+03  0.10423185653E+04  0.60015084157E+03 0.  0.
         23    2    4    4    0    0 -0.16101280574E+03  0.78225147661E+01 -0.14884479216E+03  0.23877906602E+03  0.94203794328E+02 0.  0.
         23    2    4    4    0    0  0.33492547323E+02  0.78664890147E+03 -0.13186985198E+03  0.80353949930E+03  0.91366427941E+02 0.  0.
          4    1    3    3  502    0  0.26277983527E+02 -0.14987227848E+03 -0.11320391063E+02  0.15257910581E+03  0.00000000000E+00 0. -1.
         -4    1    3    3    0  502  0.10124227489E+03 -0.64459913776E+03 -0.24230899312E+03  0.69604000946E+03  0.00000000000E+00 0.  1.
         15    1    5    5    0    0 -0.72976539470E+01 -0.21012385975E+02 -0.47302801391E+02  0.52301901170E+02  0.17770000000E+01 0. -1.
        -15    1    5    5    0    0 -0.15371515179E+03  0.28834900741E+02 -0.10154199077E+03  0.18647716485E+03  0.17770000000E+01 0.  1.
          3    1    6    6  503    0  0.36393759694E+02  0.16936234854E+03 -0.47530694243E+01  0.17329368863E+03  0.00000000000E+00 0. -1.
         -3    1    6    6    0  503 -0.29012123710E+01  0.61728655293E+03 -0.12711678255E+03  0.63024581067E+03  0.00000000000E+00 0.  1.
<mgrwt>
<rscale>  0 0.88695132E+03</rscale>
<asrwt>0</asrwt>
<pdfrwt beam="1">  1        1 0.18656013E+00 0.88695132E+03</pdfrwt>
<pdfrwt beam="2">  1       -1 0.10435336E+00 0.88695132E+03</pdfrwt>
<totfact> 0.91841099E+00</totfact>
</mgrwt>
</event>
<event>
12    1  0.8033771E-008  0.1847340E+04  0.7818608E-02  0.8681522E-01
          2   -1    0    0  501    0  0.00000000000E+00  0.00000000000E+00  0.36548167694E+04  0.36548167694E+04  0.00000000000E+00 0. -1.
         -2   -1    0    0    0  501 -0.00000000000E+00 -0.00000000000E+00 -0.10212110399E+04  0.10212110399E+04  0.00000000000E+00 0.  1.
         23    2    1    2    0    0  0.97853882667E+03  0.15294081794E+04  0.67550016549E+03  0.19390615085E+04  0.83853714560E+02 0.  0.
    5000000    2    1    2    0    0 -0.97853882667E+03 -0.15294081794E+04  0.19581055640E+04  0.27369663008E+04  0.60014957908E+03 0.  0.
         23    2    4    4    0    0 -0.88407366444E+03 -0.10222062754E+04  0.11655381527E+04  0.17869219960E+04  0.90106163837E+02 0.  0.
         23    2    4    4    0    0 -0.94465162228E+02 -0.50720190407E+03  0.79256741128E+03  0.95004430479E+03  0.90794500294E+02 0.  0.
          1    1    3    3  502    0  0.86009564611E+03  0.12892270513E+04  0.57699748198E+03  0.16537221666E+04  0.00000000000E+00 0. -1.
         -1    1    3    3    0  502  0.11844318056E+03  0.24018112814E+03  0.98502683508E+02  0.28533934183E+03  0.00000000000E+00 0.  1.
         15    1    5    5    0    0 -0.38937713026E+03 -0.51463610345E+03  0.57619126615E+03  0.86513837128E+03  0.17770000000E+01 0. -1.
        -15    1    5    5    0    0 -0.49469653419E+03 -0.50757017191E+03  0.58934688655E+03  0.92178362470E+03  0.17770000000E+01 0.  1.
          1    1    6    6  503    0 -0.96586959831E+02 -0.28809872829E+03  0.48744845722E+03  0.57440048441E+03  0.00000000000E+00 0. -1.
         -1    1    6    6    0  503  0.21217976031E+01 -0.21910317578E+03  0.30511895406E+03  0.37564382038E+03  0.00000000000E+00 0.  1.
<mgrwt>
<rscale>  0 0.18473402E+04</rscale>
<asrwt>0</asrwt>
<pdfrwt beam="1">  1        2 0.56227950E+00 0.18473402E+04</pdfrwt>
<pdfrwt beam="2">  1       -2 0.15710939E+00 0.18473402E+04</pdfrwt>
<totfact> 0.15274569E-01</totfact>
</mgrwt>
</event>
<event>
12    1  0.8033771E-008  0.6983676E+03  0.7818608E-02  0.9720028E-01
          2   -1    0    0  501    0  0.00000000000E+00  0.00000000000E+00  0.70748563355E+03  0.70748563355E+03  0.00000000000E+00 0. -1.
         -2   -1    0    0    0  501 -0.00000000000E+00 -0.00000000000E+00 -0.73313617769E+03  0.73313617769E+03  0.00000000000E+00 0.  1.
         23    2    1    2    0    0 -0.55702286975E+03 -0.15566929790E+03 -0.13244095984E+03  0.60039755938E+03  0.91810749537E+02 0.  0.
    5000000    2    1    2    0    0  0.55702286975E+03  0.15566929790E+03  0.10679041570E+03  0.84022425186E+03  0.60005432486E+03 0.  0.
         23    2    4    4    0    0  0.65596703296E+03  0.10326998774E+03  0.19092966120E+02  0.67132683776E+03  0.96735428078E+02 0.  0.
         23    2    4    4    0    0 -0.98944163203E+02  0.52399310164E+02  0.87697449584E+02  0.16889741410E+03  0.91103560240E+02 0.  0.
          3    1    3    3  502    0 -0.12442644965E+03  0.77020750824E+00 -0.43858269844E+02  0.13193211295E+03  0.00000000000E+00 0. -1.
         -3    1    3    3    0  502 -0.43259642010E+03 -0.15643950541E+03 -0.88582689997E+02  0.46846544643E+03  0.00000000000E+00 0.  1.
         15    1    5    5    0    0  0.17831676501E+03  0.69119494816E+02 -0.10499545679E+02  0.19154052165E+03  0.17770000000E+01 0. -1.
        -15    1    5    5    0    0  0.47765026795E+03  0.34150492921E+02  0.29592511799E+02  0.47978631610E+03  0.17770000000E+01 0.  1.
          4    1    6    6  503    0 -0.42104079084E+02  0.70842124466E+02  0.65060053417E+02  0.10499605052E+03  0.00000000000E+00 0. -1.
         -4    1    6    6    0  503 -0.56840084119E+02 -0.18442814302E+02  0.22637396167E+02  0.63901363579E+02  0.00000000000E+00 0.  1.
<mgrwt>
<rscale>  0 0.69836765E+03</rscale>
<asrwt>0</asrwt>
<pdfrwt beam="1">  1        2 0.10884394E+00 0.69836765E+03</pdfrwt>
<pdfrwt beam="2">  1       -2 0.11279018E+00 0.69836765E+03</pdfrwt>
<totfact> 0.25452286E+01</totfact>
</mgrwt>
</event>
<event>
12    1  0.8033771E-008  0.6019888E+03  0.7818608E-02  0.9901288E-01
          1   -1    0    0  501    0  0.00000000000E+00  0.00000000000E+00  0.19428576703E+04  0.19428576703E+04  0.00000000000E+00 0. -1.
         -1   -1    0    0    0  501 -0.00000000000E+00 -0.00000000000E+00 -0.29289672794E+03  0.29289672794E+03  0.00000000000E+00 0.  1.
         23    2    1    2    0    0 -0.45950142217E+03 -0.35278863484E+03  0.33308994680E+03  0.67705432486E+03  0.10886812343E+03 0.  0.
    5000000    2    1    2    0    0  0.45950142217E+03  0.35278863484E+03  0.13168709956E+04  0.15587000734E+04  0.59982941073E+03 0.  0.
         23    2    4    4    0    0  0.11140467930E+03  0.19965306637E+02 -0.13589475861E+02  0.14069156361E+03  0.82461058555E+02 0.  0.
         23    2    4    4    0    0  0.34809674287E+03  0.33282332821E+03  0.13304604715E+04  0.14180085098E+04  0.93168436614E+02 0.  0.
          3    1    3    3  502    0 -0.65131446447E+02 -0.17628095295E+02  0.67069051476E+02  0.95137336130E+02  0.00000000000E+00 0. -1.
         -3    1    3    3    0  502 -0.39436997572E+03 -0.33516053955E+03  0.26602089532E+03  0.58191698872E+03  0.00000000000E+00 0.  1.
         15    1    5    5    0    0  0.86366838619E+02  0.45905257748E+02  0.87929977251E+01  0.98219132759E+02  0.17770000000E+01 0. -1.
        -15    1    5    5    0    0  0.25037840678E+02 -0.25939951110E+02 -0.22382473586E+02  0.42472430850E+02  0.17770000000E+01 0.  1.
          1    1    6    6  503    0  0.19865932457E+03  0.22848232737E+03  0.92948921857E+03  0.97755813566E+03  0.00000000000E+00 0. -1.
         -1    1    6    6    0  503  0.14943741830E+03  0.10434100083E+03  0.40097125290E+03  0.44045037416E+03  0.00000000000E+00 0.  1.
<mgrwt>
<rscale>  0 0.60198882E+03</rscale>
<asrwt>0</asrwt>
<pdfrwt beam="1">  1        1 0.29890117E+00 0.60198882E+03</pdfrwt>
<pdfrwt beam="2">  1       -1 0.45061036E-01 0.60198882E+03</pdfrwt>
<totfact> 0.16978788E+01</totfact>
</mgrwt>
</event>
<event>
12    1  0.8033771E-008  0.2394694E+03  0.7818608E-02  0.1120147E+00
         -1   -1    0    0    0  501 -0.00000000000E+00  0.00000000000E+00  0.19211565059E+03  0.19211565059E+03  0.00000000000E+00 0.  1.
          1   -1    0    0  501    0  0.00000000000E+00 -0.00000000000E+00 -0.99798577008E+03  0.99798577008E+03  0.00000000000E+00 0. -1.
         23    2    1    2    0    0 -0.20529757302E+03 -0.58207031975E+02 -0.27262016951E+03  0.35949252549E+03  0.96839903936E+02 0.  0.
    5000000    2    1    2    0    0  0.20529757302E+03  0.58207031975E+02 -0.53324994997E+03  0.83060889518E+03  0.60001706272E+03 0.  0.
         23    2    4    4    0    0  0.10201120077E+03  0.34829572768E+02  0.10545178708E+03  0.17618944343E+03  0.91122205617E+02 0.  0.
         23    2    4    4    0    0  0.10328637226E+03  0.23377459207E+02 -0.63870173704E+03  0.65441945175E+03  0.95448046815E+02 0.  0.
          4    1    3    3  502    0 -0.64783946196E+02 -0.52161597244E+02 -0.52758721540E+02  0.98495048658E+02  0.00000000000E+00 0.  1.
         -4    1    3    3    0  502 -0.14051362683E+03 -0.60454347316E+01 -0.21986144798E+03  0.26099747683E+03  0.00000000000E+00 0. -1.
         15    1    5    5    0    0  0.93056242246E+02 -0.10051362338E+02  0.83316732618E+02  0.12532090715E+03  0.17770000000E+01 0.  1.
        -15    1    5    5    0    0  0.89549585211E+01  0.44880935106E+02  0.22135054458E+02  0.50868536277E+02  0.17770000000E+01 0. -1.
          3    1    6    6  503    0  0.17800319196E+02  0.24415224005E+02 -0.39505752185E+03  0.39621130738E+03  0.00000000000E+00 0. -1.
         -3    1    6    6    0  503  0.85486053061E+02 -0.10377647975E+01 -0.24364421519E+03  0.25820814437E+03  0.00000000000E+00 0.  1.
<mgrwt>
<rscale>  0 0.23946941E+03</rscale>
<asrwt>0</asrwt>
<pdfrwt beam="1">  1        1 0.15353627E+00 0.23946941E+03</pdfrwt>
<pdfrwt beam="2">  1       -1 0.29556254E-01 0.23946941E+03</pdfrwt>
<totfact> 0.17101031E+02</totfact>
</mgrwt>
</event>
<event>
12    1  0.8033771E-008  0.3707190E+03  0.7818608E-02  0.1054418E+00
         -1   -1    0    0    0  501 -0.00000000000E+00  0.00000000000E+00  0.10892249960E+03  0.10892249960E+03  0.00000000000E+00 0. -1.
          1   -1    0    0  501    0  0.00000000000E+00 -0.00000000000E+00 -0.24416535787E+04  0.24416535787E+04  0.00000000000E+00 0.  1.
         23    2    1    2    0    0  0.60003972088E+02  0.11782191460E+03 -0.25776967989E+02  0.16320764404E+03  0.92140125724E+02 0.  0.
    5000000    2    1    2    0    0 -0.60003972088E+02 -0.11782191460E+03 -0.23069541111E+04  0.23873684343E+04  0.60000690820E+03 0.  0.
         23    2    4    4    0    0  0.10990339936E+03 -0.31019305189E+03 -0.12959565707E+04  0.13403224793E+04  0.93072170236E+02 0.  0.
         23    2    4    4    0    0 -0.16990737145E+03  0.19237113729E+03 -0.10109975405E+04  0.10470459550E+04  0.91181333832E+02 0.  0.
          2    1    3    3  502    0  0.27004400939E+02  0.10891498998E+03  0.11298902158E+02  0.11278021946E+03  0.00000000000E+00 0. -1.
         -2    1    3    3    0  502  0.32999571149E+02  0.89069246175E+01 -0.37075870147E+02  0.50427424576E+02  0.00000000000E+00 0.  1.
         15    1    5    5    0    0  0.10770949580E+03 -0.22294626217E+03 -0.10653830613E+04  0.10937781294E+04  0.17770000000E+01 0.  1.
        -15    1    5    5    0    0  0.21939035650E+01 -0.87246789716E+02 -0.23057350937E+03  0.24654434992E+03  0.17770000000E+01 0. -1.
          4    1    6    6  503    0 -0.13796522173E+03  0.12760186270E+03 -0.57016455463E+03  0.60033678642E+03  0.00000000000E+00 0. -1.
         -4    1    6    6    0  503 -0.31942149719E+02  0.64769274597E+02 -0.44083298584E+03  0.44670916855E+03  0.00000000000E+00 0.  1.
<mgrwt>
<rscale>  0 0.37071900E+03</rscale>
<asrwt>0</asrwt>
<pdfrwt beam="1">  1        1 0.37563899E+00 0.37071900E+03</pdfrwt>
<pdfrwt beam="2">  1       -1 0.16757308E-01 0.37071900E+03</pdfrwt>
<totfact> 0.45495259E+01</totfact>
</mgrwt>
</event>
<event>
12    1  0.8033771E-008  0.6548980E+03  0.7818608E-02  0.9797632E-01
         -2   -1    0    0    0  501 -0.00000000000E+00  0.00000000000E+00  0.40475257499E+03  0.40475257499E+03  0.00000000000E+00 0.  1.
          2   -1    0    0  501    0  0.00000000000E+00 -0.00000000000E+00 -0.15692963462E+04  0.15692963462E+04  0.00000000000E+00 0. -1.
         23    2    1    2    0    0  0.44091972536E+03 -0.32786170735E+03 -0.37593744015E+01  0.55654138414E+03  0.88434586033E+02 0.  0.
    5000000    2    1    2    0    0 -0.44091972536E+03  0.32786170735E+03 -0.11607843968E+04  0.14175075371E+04  0.60000308196E+03 0.  0.
         23    2    4    4    0    0 -0.17540655767E+02  0.32439834870E+03 -0.29046336869E+03  0.44539682474E+03  0.92018474725E+02 0.  0.
         23    2    4    4    0    0 -0.42337906960E+03  0.34633586442E+01 -0.87032102813E+03  0.97211071232E+03  0.90987436384E+02 0.  0.
          3    1    3    3  502    0  0.27156664513E+03 -0.16598038848E+03  0.30668667603E+02  0.31974755555E+03  0.00000000000E+00 0. -1.
         -3    1    3    3    0  502  0.16935308023E+03 -0.16188131887E+03 -0.34428042005E+02  0.23679382859E+03  0.00000000000E+00 0.  1.
         15    1    5    5    0    0  0.10527685837E+02  0.21574493059E+03 -0.13894306242E+03  0.25683660091E+03  0.17770000000E+01 0.  1.
        -15    1    5    5    0    0 -0.28068341605E+02  0.10865341811E+03 -0.15152030627E+03  0.18856022382E+03  0.17770000000E+01 0. -1.
          3    1    6    6  503    0 -0.32221559629E+03  0.32241331384E+02 -0.59551006338E+03  0.67786033187E+03  0.00000000000E+00 0. -1.
         -3    1    6    6    0  503 -0.10116347331E+03 -0.28777972740E+02 -0.27481096475E+03  0.29425038044E+03  0.00000000000E+00 0.  1.
<mgrwt>
<rscale>  0 0.65489804E+03</rscale>
<asrwt>0</asrwt>
<pdfrwt beam="1">  1        2 0.24143021E+00 0.65489804E+03</pdfrwt>
<pdfrwt beam="2">  1       -2 0.62269627E-01 0.65489804E+03</pdfrwt>
<totfact> 0.28797003E+01</totfact>
</mgrwt>
</event>
<event>
12    1  0.8033771E-008  0.5900790E+03  0.7818608E-02  0.9926206E-01
          2   -1    0    0  501    0  0.00000000000E+00  0.00000000000E+00  0.11793679461E+04  0.11793679461E+04  0.00000000000E+00 0.  1.
         -2   -1    0    0    0  501 -0.00000000000E+00 -0.00000000000E+00 -0.36428540554E+03  0.36428540554E+03  0.00000000000E+00 0. -1.
         23    2    1    2    0    0  0.22863743841E+03  0.37908124433E+03  0.18427416831E+02  0.45243287343E+03  0.91532875131E+02 0.  0.
    5000000    2    1    2    0    0 -0.22863743841E+03 -0.37908124433E+03  0.79665512375E+03  0.10912204782E+04  0.60010422250E+03 0.  0.
         23    2    4    4    0    0  0.17079288323E+03 -0.23294721449E+03  0.40466896823E+03  0.50477400771E+03  0.87207862645E+02 0.  0.
         23    2    4    4    0    0 -0.39943032165E+03 -0.14613402983E+03  0.39198615552E+03  0.58644647052E+03  0.96781093923E+02 0.  0.
          1    1    3    3  502    0  0.15549133743E+03  0.17090769313E+03  0.18333867841E+02  0.23178249782E+03  0.00000000000E+00 0. -1.
         -1    1    3    3    0  502  0.73146100985E+02  0.20817355120E+03  0.93548990160E-01  0.22065037562E+03  0.00000000000E+00 0.  1.
         15    1    5    5    0    0  0.88674521035E+02 -0.83348213571E+02  0.10899471373E+03  0.16338023362E+03  0.17770000000E+01 0. -1.
        -15    1    5    5    0    0  0.82118362198E+02 -0.14959900092E+03  0.29567425450E+03  0.34139377409E+03  0.17770000000E+01 0.  1.
          4    1    6    6  503    0 -0.22853932132E+03 -0.32462724200E+02  0.20066891851E+03  0.30586282008E+03  0.00000000000E+00 0. -1.
         -4    1    6    6    0  503 -0.17089100032E+03 -0.11367130563E+03  0.19131723701E+03  0.28058365044E+03  0.00000000000E+00 0.  1.
<mgrwt>
<rscale>  0 0.59007897E+03</rscale>
<asrwt>0</asrwt>
<pdfrwt beam="1">  1        2 0.18144122E+00 0.59007897E+03</pdfrwt>
<pdfrwt beam="2">  1       -2 0.56043909E-01 0.59007897E+03</pdfrwt>
<totfact> 0.60219255E+01</totfact>
</mgrwt>
</event>
<event>
12    1  0.8033771E-008  0.4719754E+03  0.7818608E-02  0.1021364E+00
          2   -1    0    0  501    0  0.00000000000E+00  0.00000000000E+00  0.23795630220E+03  0.23795630220E+03  0.00000000000E+00 0.  1.
         -2   -1    0    0    0  501 -0.00000000000E+00 -0.00000000000E+00 -0.10987142321E+04  0.10987142321E+04  0.00000000000E+00 0. -1.
         23    2    1    2    0    0 -0.27609169238E+03 -0.11435199889E+03 -0.11259036708E+03  0.33211430294E+03  0.91215772802E+02 0.  0.
    5000000    2    1    2    0    0  0.27609169238E+03  0.11435199889E+03 -0.74816756286E+03  0.10045562314E+04  0.60006292810E+03 0.  0.
         23    2    4    4    0    0  0.33012995034E+03 -0.15093497261E+03 -0.50904502670E+03  0.63220998502E+03  0.93784198488E+02 0.  0.
         23    2    4    4    0    0 -0.54038257958E+02  0.26528697150E+03 -0.23912253615E+03  0.37234624638E+03  0.90359445121E+02 0.  0.
          4    1    3    3  502    0 -0.50278394029E+02 -0.44973476635E+02  0.61179535899E+01  0.67734480606E+02  0.00000000000E+00 0.  1.
         -4    1    3    3    0  502 -0.22581329835E+03 -0.69378522259E+02 -0.11870832067E+03  0.26437982234E+03  0.00000000000E+00 0. -1.
         15    1    5    5    0    0  0.24595917918E+02  0.46902609979E+01 -0.10680714104E+02  0.27279903029E+02  0.17770000000E+01 0. -1.
        -15    1    5    5    0    0  0.30553403242E+03 -0.15562523360E+03 -0.49836431260E+03  0.60493008199E+03  0.17770000000E+01 0.  1.
          2    1    6    6  503    0 -0.51816602220E+01  0.42525949106E+01 -0.39640332338E+02  0.40203110750E+02  0.00000000000E+00 0.  1.
         -2    1    6    6    0  503 -0.48856597736E+02  0.26103437659E+03 -0.19948220382E+03  0.33214313563E+03  0.00000000000E+00 0. -1.
<mgrwt>
<rscale>  0 0.47197542E+03</rscale>
<asrwt>0</asrwt>
<pdfrwt beam="1">  1        2 0.36608663E-01 0.47197542E+03</pdfrwt>
<pdfrwt beam="2">  1       -2 0.16903295E+00 0.47197542E+03</pdfrwt>
<totfact> 0.31928409E+01</totfact>
</mgrwt>
</event>
<event>
12    1  0.8033771E-008  0.5965340E+03  0.7818608E-02  0.9912623E-01
         -4   -1    0    0    0  501 -0.00000000000E+00  0.00000000000E+00  0.75228286110E+03  0.75228286110E+03  0.00000000000E+00 0.  1.
          4   -1    0    0  501    0  0.00000000000E+00 -0.00000000000E+00 -0.10605898411E+04  0.10605898411E+04  0.00000000000E+00 0. -1.
         23    2    1    2    0    0  0.45046963513E+03 -0.14665239047E+03 -0.77803886718E+03  0.91559135052E+03  0.92375464811E+02 0.  0.
    5000000    2    1    2    0    0 -0.45046963513E+03  0.14665239047E+03  0.46973188719E+03  0.89728135166E+03  0.60002996791E+03 0.  0.
         23    2    4    4    0    0 -0.90428173451E+02  0.30286294059E+03  0.84496005652E+02  0.33955018359E+03  0.90837970410E+02 0.  0.
         23    2    4    4    0    0 -0.36004146168E+03 -0.15621055012E+03  0.38523588154E+03  0.55773116807E+03  0.92875084475E+02 0.  0.
          2    1    3    3  502    0  0.50444539164E+02 -0.14002261465E+02 -0.40719316325E+02  0.66323280827E+02  0.00000000000E+00 0. -1.
         -2    1    3    3    0  502  0.40002509597E+03 -0.13265012901E+03 -0.73731955085E+03  0.84926806969E+03  0.00000000000E+00 0.  1.
         15    1    5    5    0    0 -0.22596749000E+02  0.19020121670E+03  0.18601506971E+02  0.19244814805E+03  0.17770000000E+01 0. -1.
        -15    1    5    5    0    0 -0.67831424451E+02  0.11266172389E+03  0.65894498681E+02  0.14710203554E+03  0.17770000000E+01 0.  1.
          3    1    6    6  503    0 -0.25853689780E+03 -0.84762824916E+02  0.21356287221E+03  0.34588316582E+03  0.00000000000E+00 0. -1.
         -3    1    6    6    0  503 -0.10150456388E+03 -0.71447725200E+02  0.17167300933E+03  0.21184800225E+03  0.00000000000E+00 0.  1.
<mgrwt>
<rscale>  0 0.59653402E+03</rscale>
<asrwt>0</asrwt>
<pdfrwt beam="1">  1        4 0.16316767E+00 0.59653402E+03</pdfrwt>
<pdfrwt beam="2">  1       -4 0.11573583E+00 0.59653402E+03</pdfrwt>
<totfact> 0.26947316E-01</totfact>
</mgrwt>
</event>
<event>
12    1  0.8033771E-008  0.7925322E+03  0.7818608E-02  0.9570890E-01
         -1   -1    0    0    0  501 -0.00000000000E+00  0.00000000000E+00  0.69694291548E+03  0.69694291548E+03  0.00000000000E+00 0.  1.
          1   -1    0    0  501    0  0.00000000000E+00 -0.00000000000E+00 -0.17278578516E+04  0.17278578516E+04  0.00000000000E+00 0. -1.
         23    2    1    2    0    0  0.93746162838E+02 -0.73686899267E+03 -0.12394088839E+04  0.14477773861E+04  0.90336718264E+02 0.  0.
    5000000    2    1    2    0    0 -0.93746162838E+02  0.73686899267E+03  0.20849394782E+03  0.97702338099E+03  0.59945033600E+03 0.  0.
         23    2    4    4    0    0 -0.23447008443E+03  0.50846415017E+03  0.34202986344E+03  0.66245398132E+03  0.91371972649E+02 0.  0.
         23    2    4    4    0    0  0.14072392159E+03  0.22840484250E+03 -0.13353591562E+03  0.31456939967E+03  0.95656010087E+02 0.  0.
          1    1    3    3  502    0  0.43545536456E+02 -0.39967274255E+03 -0.75593085027E+03  0.85619271503E+03  0.00000000000E+00 0. -1.
         -1    1    3    3    0  502  0.50200626382E+02 -0.33719625012E+03 -0.48347803364E+03  0.59158467103E+03  0.00000000000E+00 0.  1.
         15    1    5    5    0    0 -0.12402052622E+03  0.30257744712E+03  0.14888960894E+03  0.35931250439E+03  0.17770000000E+01 0.  1.
        -15    1    5    5    0    0 -0.11044955821E+03  0.20588670305E+03  0.19314025450E+03  0.30314147693E+03  0.17770000000E+01 0. -1.
          3    1    6    6  503    0  0.12721169916E+03  0.12914323627E+03 -0.10866872678E+03  0.21135203822E+03  0.00000000000E+00 0. -1.
         -3    1    6    6    0  503  0.13512222429E+02  0.99261606222E+02 -0.24867188841E+02  0.10321736145E+03  0.00000000000E+00 0.  1.
<mgrwt>
<rscale>  0 0.79253217E+03</rscale>
<asrwt>0</asrwt>
<pdfrwt beam="1">  1        1 0.26582428E+00 0.79253217E+03</pdfrwt>
<pdfrwt beam="2">  1       -1 0.10722199E+00 0.79253217E+03</pdfrwt>
<totfact> 0.38424597E+00</totfact>
</mgrwt>
</event>
<event>
12    1  0.8033771E-008  0.6302124E+03  0.7818608E-02  0.9844634E-01
          2   -1    0    0  501    0  0.00000000000E+00  0.00000000000E+00  0.13781197316E+04  0.13781197316E+04  0.00000000000E+00 0. -1.
         -2   -1    0    0    0  501 -0.00000000000E+00 -0.00000000000E+00 -0.54308744048E+03  0.54308744048E+03  0.00000000000E+00 0.  1.
         23    2    1    2    0    0 -0.47317186620E+03 -0.16093351004E+03  0.10014432041E+04  0.11228225412E+04  0.89726018137E+02 0.  0.
    5000000    2    1    2    0    0  0.47317186620E+03  0.16093351004E+03 -0.16641091302E+03  0.79838463085E+03  0.59994517849E+03 0.  0.
         23    2    4    4    0    0  0.22727915537E+03  0.35834832454E+03 -0.13260485326E+02  0.43575354128E+03  0.98162987394E+02 0.  0.
         23    2    4    4    0    0  0.24589271083E+03 -0.19741481451E+03 -0.15315042769E+03  0.36263108958E+03  0.92792345591E+02 0.  0.
          3    1    3    3  502    0 -0.30457176976E+03 -0.69923719529E+02  0.68469701246E+03  0.75263755445E+03  0.00000000000E+00 0. -1.
         -3    1    3    3    0  502 -0.16860009644E+03 -0.91009790507E+02  0.31674619165E+03  0.37018498675E+03  0.00000000000E+00 0.  1.
         15    1    5    5    0    0  0.93176801107E+01 -0.58131526383E+01  0.25824363471E+00  0.11128177075E+02  0.17770000000E+01 0. -1.
        -15    1    5    5    0    0  0.21796147526E+03  0.36416147718E+03 -0.13518728961E+02  0.42462536420E+03  0.17770000000E+01 0.  1.
          4    1    6    6  503    0  0.40152034905E+02 -0.75852090365E+01  0.49062512220E+01  0.41155711684E+02  0.00000000000E+00 0. -1.
         -4    1    6    6    0  503  0.20574067593E+03 -0.18982960547E+03 -0.15805667891E+03  0.32147537790E+03  0.00000000000E+00 0.  1.
<mgrwt>
<rscale>  0 0.63021236E+03</rscale>
<asrwt>0</asrwt>
<pdfrwt beam="1">  1        2 0.21201842E+00 0.63021236E+03</pdfrwt>
<pdfrwt beam="2">  1       -2 0.83551914E-01 0.63021236E+03</pdfrwt>
<totfact> 0.19371397E+01</totfact>
</mgrwt>
</event>
<event>
12    1  0.8033771E-008  0.1077019E+04  0.7818608E-02  0.9227884E-01
         -2   -1    0    0    0  501 -0.00000000000E+00  0.00000000000E+00  0.47969773607E+03  0.47969773607E+03  0.00000000000E+00 0.  1.
          2   -1    0    0  501    0  0.00000000000E+00 -0.00000000000E+00 -0.31093918976E+04  0.31093918976E+04  0.00000000000E+00 0. -1.
         23    2    1    2    0    0 -0.10480446649E+04 -0.13628843447E+03 -0.18869989696E+04  0.21647605366E+04  0.91928844962E+02 0.  0.
    5000000    2    1    2    0    0  0.10480446649E+04  0.13628843447E+03 -0.74269519199E+03  0.14243290971E+04  0.60012088099E+03 0.  0.
         23    2    4    4    0    0  0.70946189949E+03 -0.24223016085E+02 -0.75267459575E+03  0.10386420464E+04  0.91297930475E+02 0.  0.
         23    2    4    4    0    0  0.33858276540E+03  0.16051145056E+03  0.99794037532E+01  0.38568705076E+03  0.90844360516E+02 0.  0.
          4    1    3    3  502    0 -0.14688538134E+03 -0.13033779591E+02 -0.33225270945E+03  0.36350661286E+03  0.00000000000E+00 0. -1.
         -4    1    3    3    0  502 -0.90115928355E+03 -0.12325465488E+03 -0.15547462601E+04  0.18012539237E+04  0.00000000000E+00 0.  1.
         15    1    5    5    0    0  0.29506209723E+03 -0.33871851965E+02 -0.37033347533E+03  0.47471990084E+03  0.17770000000E+01 0. -1.
        -15    1    5    5    0    0  0.41439980226E+03  0.96488358803E+01 -0.38234112041E+03  0.56392214555E+03  0.17770000000E+01 0.  1.
          2    1    6    6  503    0  0.24736692991E+03  0.15941201078E+03  0.49175606262E+01  0.29432425927E+03  0.00000000000E+00 0. -1.
         -2    1    6    6    0  503  0.91215835491E+02  0.10994397761E+01  0.50618431270E+01  0.91362791485E+02  0.00000000000E+00 0.  1.
<mgrwt>
<rscale>  0 0.10770193E+04</rscale>
<asrwt>0</asrwt>
<pdfrwt beam="1">  1        2 0.47836798E+00 0.10770193E+04</pdfrwt>
<pdfrwt beam="2">  1       -2 0.73799652E-01 0.10770193E+04</pdfrwt>
<totfact> 0.24878926E+00</totfact>
</mgrwt>
</event>
<event>
12    1  0.8033771E-008  0.4939405E+03  0.7818608E-02  0.1015373E+00
          1   -1    0    0  501    0  0.00000000000E+00  0.00000000000E+00  0.21204974122E+03  0.21204974122E+03  0.00000000000E+00 0. -1.
         -1   -1    0    0    0  501 -0.00000000000E+00 -0.00000000000E+00 -0.15370900867E+04  0.15370900867E+04  0.00000000000E+00 0.  1.
         23    2    1    2    0    0  0.30973724096E+03  0.21774797814E+03 -0.71195857191E+03  0.81147608454E+03  0.90868516216E+02 0.  0.
    5000000    2    1    2    0    0 -0.30973724096E+03 -0.21774797814E+03 -0.61308177360E+03  0.93766374340E+03  0.59999391176E+03 0.  0.
         23    2    4    4    0    0 -0.36674778602E+03 -0.21156906662E+01 -0.58154184967E+03  0.69395282171E+03  0.94186947830E+02 0.  0.
         23    2    4    4    0    0  0.57010545059E+02 -0.21563228747E+03 -0.31539923925E+02  0.24371092169E+03  0.93020217704E+02 0.  0.
          3    1    3    3  502    0  0.20873227970E+03  0.16912869454E+03 -0.41820181110E+03  0.49705777804E+03  0.00000000000E+00 0. -1.
         -3    1    3    3    0  502  0.10100496126E+03  0.48619283596E+02 -0.29375676081E+03  0.31441830650E+03  0.00000000000E+00 0.  1.
         15    1    5    5    0    0 -0.51048738782E+02 -0.74757225868E+00 -0.15556805812E+03  0.16374098763E+03  0.17770000000E+01 0.  1.
        -15    1    5    5    0    0 -0.31569904724E+03 -0.13681184076E+01 -0.42597379155E+03  0.53021183408E+03  0.17770000000E+01 0. -1.
          1    1    6    6  503    0  0.24615916581E+02 -0.20466342292E+03 -0.17985226215E+02  0.20692155130E+03  0.00000000000E+00 0. -1.
         -1    1    6    6    0  503  0.32394628478E+02 -0.10968864554E+02 -0.13554697710E+02  0.36789370392E+02  0.00000000000E+00 0.  1.
<mgrwt>
<rscale>  0 0.49394046E+03</rscale>
<asrwt>0</asrwt>
<pdfrwt beam="1">  1        1 0.32623038E-01 0.49394046E+03</pdfrwt>
<pdfrwt beam="2">  1       -1 0.23647539E+00 0.49394046E+03</pdfrwt>
<totfact> 0.12608557E+01</totfact>
</mgrwt>
</event>
<event>
12    1  0.8033771E-008  0.3700594E+03  0.7818608E-02  0.1054670E+00
         -1   -1    0    0    0  501 -0.00000000000E+00  0.00000000000E+00  0.17063051273E+03  0.17063051273E+03  0.00000000000E+00 0.  1.
          1   -1    0    0  501    0  0.00000000000E+00 -0.00000000000E+00 -0.14109596522E+04  0.14109596522E+04  0.00000000000E+00 0. -1.
         23    2    1    2    0    0  0.23695604267E+03  0.17104756807E+03 -0.48361959330E+03  0.57271634082E+03  0.93330912945E+02 0.  0.
    5000000    2    1    2    0    0 -0.23695604267E+03 -0.17104756807E+03 -0.75670954619E+03  0.10088738241E+04  0.59984299532E+03 0.  0.
         23    2    4    4    0    0 -0.24023064771E+03 -0.23049913481E+03 -0.12446958665E+03  0.36732052750E+03  0.92688061128E+02 0.  0.
         23    2    4    4    0    0  0.32746050384E+01  0.59451566738E+02 -0.63223995955E+03  0.64155329664E+03  0.91203367049E+02 0.  0.
          1    1    3    3  502    0  0.93312424506E+02  0.53631588520E+02 -0.26477801514E+03  0.28581629267E+03  0.00000000000E+00 0. -1.
         -1    1    3    3    0  502  0.14364361817E+03  0.11741597955E+03 -0.21884157816E+03  0.28690004814E+03  0.00000000000E+00 0.  1.
         15    1    5    5    0    0 -0.14252292036E+03 -0.84021909412E+02 -0.32324152626E+02  0.16858372597E+03  0.17770000000E+01 0.  1.
        -15    1    5    5    0    0 -0.97707727354E+02 -0.14647722540E+03 -0.92145434019E+02  0.19873680153E+03  0.17770000000E+01 0. -1.
          3    1    6    6  503    0 -0.25748404812E+02  0.69968745247E+02 -0.51266331058E+03  0.51805624760E+03  0.00000000000E+00 0. -1.
         -3    1    6    6    0  503  0.29023009851E+02 -0.10517178509E+02 -0.11957664897E+03  0.12349704904E+03  0.00000000000E+00 0.  1.
<mgrwt>
<rscale>  0 0.37005939E+03</rscale>
<asrwt>0</asrwt>
<pdfrwt beam="1">  1        1 0.21707071E+00 0.37005939E+03</pdfrwt>
<pdfrwt beam="2">  1       -1 0.26250848E-01 0.37005939E+03</pdfrwt>
<totfact> 0.10414304E+02</totfact>
</mgrwt>
</event>
<event>
12    1  0.8033771E-008  0.6151705E+03  0.7818608E-02  0.9874422E-01
          2   -1    0    0  501    0  0.00000000000E+00  0.00000000000E+00  0.22975427570E+04  0.22975427570E+04  0.00000000000E+00 0.  1.
         -2   -1    0    0    0  501 -0.00000000000E+00 -0.00000000000E+00 -0.22515690621E+03  0.22515690621E+03  0.00000000000E+00 0. -1.
         23    2    1    2    0    0  0.46552724370E+03 -0.35658110593E+03  0.98101372807E+03  0.11465753124E+04  0.91549509691E+02 0.  0.
    5000000    2    1    2    0    0 -0.46552724370E+03  0.35658110593E+03  0.10913721227E+04  0.13761243508E+04  0.59896529013E+03 0.  0.
         23    2    4    4    0    0 -0.34296161220E+03  0.10947102844E+03  0.10068303705E+04  0.10738946983E+04  0.99678756647E+02 0.  0.
         23    2    4    4    0    0 -0.12256563149E+03  0.24711007749E+03  0.84541752237E+02  0.30222965249E+03  0.90054042416E+02 0.  0.
          4    1    3    3  502    0  0.23634926516E+03 -0.18377140476E+03  0.58891100182E+03  0.66064292353E+03  0.00000000000E+00 0.  1.
         -4    1    3    3    0  502  0.22917797854E+03 -0.17280970117E+03  0.39210272625E+03  0.48593238892E+03  0.00000000000E+00 0. -1.
         15    1    5    5    0    0 -0.18303329926E+03  0.35551712909E+02  0.38815057711E+03  0.43061484086E+03  0.17770000000E+01 0. -1.
        -15    1    5    5    0    0 -0.15992831295E+03  0.73919315531E+02  0.61867979340E+03  0.64327985743E+03  0.17770000000E+01 0.  1.
          2    1    6    6  503    0 -0.63476790462E+02  0.18479015962E+03  0.92121639125E+02  0.21601644015E+03  0.00000000000E+00 0. -1.
         -2    1    6    6    0  503 -0.59088841029E+02  0.62319917866E+02 -0.75798868880E+01  0.86213212341E+02  0.00000000000E+00 0.  1.
<mgrwt>
<rscale>  0 0.61517054E+03</rscale>
<asrwt>0</asrwt>
<pdfrwt beam="1">  1        2 0.35346810E+00 0.61517054E+03</pdfrwt>
<pdfrwt beam="2">  1       -2 0.34639526E-01 0.61517054E+03</pdfrwt>
<totfact> 0.37622178E+01</totfact>
</mgrwt>
</event>
<event>
12    1  0.8033771E-008  0.8481173E+03  0.7818608E-02  0.9492867E-01
          2   -1    0    0  501    0  0.00000000000E+00  0.00000000000E+00  0.75337224691E+03  0.75337224691E+03  0.00000000000E+00 0. -1.
         -2   -1    0    0    0  501 -0.00000000000E+00 -0.00000000000E+00 -0.25187311591E+04  0.25187311591E+04  0.00000000000E+00 0.  1.
         23    2    1    2    0    0  0.20704224092E+03 -0.80741908449E+03  0.35921770533E+03  0.91231950676E+03  0.92181641689E+02 0.  0.
    5000000    2    1    2    0    0 -0.20704224092E+03  0.80741908449E+03 -0.21245766175E+04  0.23597838992E+04  0.59996848246E+03 0.  0.
         23    2    4    4    0    0 -0.14299999117E+03  0.69210986243E+03 -0.10219594288E+04  0.12455970308E+04  0.87440436427E+02 0.  0.
         23    2    4    4    0    0 -0.64042249756E+02  0.11530922206E+03 -0.11026171887E+04  0.11141868684E+04  0.90829986707E+02 0.  0.
          3    1    3    3  502    0  0.52618561310E+02 -0.17763362650E+03  0.39864388637E+02  0.18950352962E+03  0.00000000000E+00 0. -1.
         -3    1    3    3    0  502  0.15442367961E+03 -0.62978545799E+03  0.31935331670E+03  0.72281597714E+03  0.00000000000E+00 0.  1.
         15    1    5    5    0    0 -0.58455631565E+02  0.38125842371E+03 -0.48864302454E+03  0.62253530797E+03  0.17770000000E+01 0. -1.
        -15    1    5    5    0    0 -0.84544359602E+02  0.31085143872E+03 -0.53331640424E+03  0.62306172283E+03  0.17770000000E+01 0.  1.
          4    1    6    6  503    0 -0.28468710486E+02 -0.52649619104E+01 -0.11443577931E+03  0.11804124231E+03  0.00000000000E+00 0. -1.
         -4    1    6    6    0  503 -0.35573539270E+02  0.12057418397E+03 -0.98818140943E+03  0.99614562614E+03  0.00000000000E+00 0.  1.
<mgrwt>
<rscale>  0 0.84811728E+03</rscale>
<asrwt>0</asrwt>
<pdfrwt beam="1">  1        2 0.11590342E+00 0.84811728E+03</pdfrwt>
<pdfrwt beam="2">  1       -2 0.38749711E+00 0.84811728E+03</pdfrwt>
<totfact> 0.34831095E-01</totfact>
</mgrwt>
</event>
<event>
12    1  0.8033771E-008  0.5217550E+03  0.7818608E-02  0.1008252E+00
         -2   -1    0    0    0  501 -0.00000000000E+00  0.00000000000E+00  0.44718698751E+03  0.44718698751E+03  0.00000000000E+00 0.  1.
          2   -1    0    0  501    0  0.00000000000E+00 -0.00000000000E+00 -0.87105131243E+03  0.87105131243E+03  0.00000000000E+00 0. -1.
         23    2    1    2    0    0  0.35674121467E+03 -0.18838584480E+03  0.10000048860E+03  0.42531554138E+03  0.90220237476E+02 0.  0.
    5000000    2    1    2    0    0 -0.35674121467E+03  0.18838584480E+03 -0.52386481353E+03  0.89292275857E+03  0.60010264885E+03 0.  0.
         23    2    4    4    0    0  0.87226525028E+02  0.11246793432E+03  0.28341995857E+02  0.17424883023E+03  0.96446270998E+02 0.  0.
         23    2    4    4    0    0 -0.44396773970E+03  0.75917910474E+02 -0.55220680938E+03  0.71867392834E+03  0.93214655045E+02 0.  0.
          1    1    3    3  502    0  0.41775321631E+02  0.75465183364E+01  0.10938717443E+02  0.43838145212E+02  0.00000000000E+00 0. -1.
         -1    1    3    3    0  502  0.31496589304E+03 -0.19593236313E+03  0.89061771160E+02  0.38147739616E+03  0.00000000000E+00 0.  1.
         15    1    5    5    0    0  0.34105712286E+02  0.11356079721E+03  0.23260237199E+02  0.12084473773E+03  0.17770000000E+01 0.  1.
        -15    1    5    5    0    0  0.53120812743E+02 -0.10928628914E+01  0.50817586577E+01  0.53404092501E+02  0.17770000000E+01 0. -1.
          3    1    6    6  503    0 -0.11678838040E+03  0.58785158624E+02 -0.13143149338E+03  0.18539001624E+03  0.00000000000E+00 0.  1.
         -3    1    6    6    0  503 -0.32717935930E+03  0.17132751850E+02 -0.42077531601E+03  0.53328391210E+03  0.00000000000E+00 0. -1.
<mgrwt>
<rscale>  0 0.52175495E+03</rscale>
<asrwt>0</asrwt>
<pdfrwt beam="1">  1        2 0.13400789E+00 0.52175495E+03</pdfrwt>
<pdfrwt beam="2">  1       -2 0.68797999E-01 0.52175495E+03</pdfrwt>
<totfact> 0.61364768E+01</totfact>
</mgrwt>
</event>
<event>
12    1  0.8033771E-008  0.1041446E+04  0.7818608E-02  0.9264221E-01
         -1   -1    0    0    0  501 -0.00000000000E+00  0.00000000000E+00  0.10894364280E+04  0.10894364280E+04  0.00000000000E+00 0.  1.
          1   -1    0    0  501    0  0.00000000000E+00 -0.00000000000E+00 -0.10585258976E+04  0.10585258976E+04  0.00000000000E+00 0. -1.
         23    2    1    2    0    0  0.84420656293E+03 -0.48458803451E+03  0.18101381255E+03  0.99464904648E+03  0.95133806994E+02 0.  0.
    5000000    2    1    2    0    0 -0.84420656293E+03  0.48458803451E+03 -0.15010328211E+03  0.11533132791E+04  0.60007519566E+03 0.  0.
         23    2    4    4    0    0 -0.12408307535E+02 -0.67435629627E+02 -0.97130496879E+02  0.14932396919E+03  0.90342593015E+02 0.  0.
         23    2    4    4    0    0 -0.83179825539E+03  0.55202366414E+03 -0.52972785231E+02  0.10039893099E+04  0.92574051717E+02 0.  0.
          3    1    3    3  502    0  0.51408647146E+03 -0.25893673431E+03  0.71411674380E+02  0.58002824048E+03  0.00000000000E+00 0. -1.
         -3    1    3    3    0  502  0.33012009147E+03 -0.22565130020E+03  0.10960213817E+03  0.41462080600E+03  0.00000000000E+00 0.  1.
         15    1    5    5    0    0 -0.48626021308E+02 -0.45800859648E+02 -0.78725615631E+02  0.10326223404E+03  0.17770000000E+01 0. -1.
        -15    1    5    5    0    0  0.36217713773E+02 -0.21634769979E+02 -0.18404881248E+02  0.46061735157E+02  0.17770000000E+01 0.  1.
          2    1    6    6  503    0 -0.50188564706E+03  0.32733335399E+03  0.13417377730E+02  0.59934660538E+03  0.00000000000E+00 0.  1.
         -2    1    6    6    0  503 -0.32991260834E+03  0.22469031015E+03 -0.66390162961E+02  0.40464270456E+03  0.00000000000E+00 0. -1.
<mgrwt>
<rscale>  0 0.10414458E+04</rscale>
<asrwt>0</asrwt>
<pdfrwt beam="1">  1        1 0.16285014E+00 0.10414458E+04</pdfrwt>
<pdfrwt beam="2">  1       -1 0.16760560E+00 0.10414458E+04</pdfrwt>
<totfact> 0.34874523E+00</totfact>
</mgrwt>
</event>
<event>
12    1  0.8033771E-008  0.1076415E+04  0.7818608E-02  0.9228490E-01
         -2   -1    0    0    0  501 -0.00000000000E+00  0.00000000000E+00  0.71259183482E+03  0.71259183482E+03  0.00000000000E+00 0.  1.
          2   -1    0    0  501    0  0.00000000000E+00 -0.00000000000E+00 -0.24482282551E+04  0.24482282551E+04  0.00000000000E+00 0. -1.
         23    2    1    2    0    0 -0.62973165372E+03 -0.77142464788E+03 -0.17292580565E+04  0.19976187805E+04  0.92138065962E+02 0.  0.
    5000000    2    1    2    0    0  0.62973165372E+03  0.77142464788E+03 -0.63783637167E+01  0.11632013093E+04  0.60111451444E+03 0.  0.
         23    2    4    4    0    0 -0.70759779245E+02  0.13997438226E+02  0.40965639930E+02  0.12637868332E+03  0.95344183397E+02 0.  0.
         23    2    4    4    0    0  0.70049143297E+03  0.75742720966E+03 -0.47344003647E+02  0.10368226260E+04  0.91517635250E+02 0.  0.
          3    1    3    3  502    0 -0.59162907014E+03 -0.69563731637E+03 -0.15435693642E+04  0.17934722230E+04  0.00000000000E+00 0. -1.
         -3    1    3    3    0  502 -0.38102583581E+02 -0.75787331517E+02 -0.18568869238E+03  0.20414655758E+03  0.00000000000E+00 0.  1.
         15    1    5    5    0    0 -0.75458459650E+02  0.45168067352E+02  0.31167726665E+02  0.93320514120E+02  0.17770000000E+01 0.  1.
        -15    1    5    5    0    0  0.46986804058E+01 -0.31170629126E+02  0.97979132649E+01  0.33058169202E+02  0.17770000000E+01 0. -1.
          2    1    6    6  503    0  0.56934855444E+03  0.66154584015E+03 -0.28487233054E+02  0.87327670158E+03  0.00000000000E+00 0.  1.
         -2    1    6    6    0  503  0.13114287852E+03  0.95881369504E+02 -0.18856770593E+02  0.16354592445E+03  0.00000000000E+00 0. -1.
<mgrwt>
<rscale>  0 0.10764147E+04</rscale>
<asrwt>0</asrwt>
<pdfrwt beam="1">  1        2 0.37665050E+00 0.10764147E+04</pdfrwt>
<pdfrwt beam="2">  1       -2 0.10962951E+00 0.10764147E+04</pdfrwt>
<totfact> 0.24618618E+00</totfact>
</mgrwt>
</event>
<event>
12    1  0.8033771E-008  0.7355703E+03  0.7818608E-02  0.9658264E-01
         -1   -1    0    0    0  501 -0.00000000000E+00  0.00000000000E+00  0.28274754294E+03  0.28274754294E+03  0.00000000000E+00 0.  1.
          1   -1    0    0  501    0  0.00000000000E+00 -0.00000000000E+00 -0.24263896386E+04  0.24263896386E+04  0.00000000000E+00 0. -1.
         23    2    1    2    0    0  0.62607036714E+03 -0.12438055218E+03 -0.14663240615E+04  0.16018031368E+04  0.90732625414E+02 0.  0.
    5000000    2    1    2    0    0 -0.62607036714E+03  0.12438055218E+03 -0.67731803418E+03  0.11073340448E+04  0.59999528407E+03 0.  0.
         23    2    4    4    0    0 -0.24257482820E+03  0.30214617071E+03 -0.50023546449E+03  0.63893493060E+03  0.88698759048E+02 0.  0.
         23    2    4    4    0    0 -0.38349553894E+03 -0.17776561853E+03 -0.17708256969E+03  0.46839911417E+03  0.96799019361E+02 0.  0.
          3    1    3    3  502    0  0.23156825899E+02  0.10292746902E+02 -0.83460712677E+02  0.87223103505E+02  0.00000000000E+00 0. -1.
         -3    1    3    3    0  502  0.60291354124E+03 -0.13467329909E+03 -0.13828633488E+04  0.15145800333E+04  0.00000000000E+00 0.  1.
         15    1    5    5    0    0 -0.25125605509E+02  0.83919525731E+02 -0.13731065447E+03  0.16288387401E+03  0.17770000000E+01 0. -1.
        -15    1    5    5    0    0 -0.21744922269E+03  0.21822664498E+03 -0.36292481002E+03  0.47605105659E+03  0.17770000000E+01 0.  1.
          3    1    6    6  503    0 -0.20775041054E+03 -0.14554522719E+03 -0.12165732069E+03  0.28132570077E+03  0.00000000000E+00 0. -1.
         -3    1    6    6    0  503 -0.17574512839E+03 -0.32220391342E+02 -0.55425248998E+02  0.18707341339E+03  0.00000000000E+00 0.  1.
<mgrwt>
<rscale>  0 0.73557034E+03</rscale>
<asrwt>0</asrwt>
<pdfrwt beam="1">  1        1 0.37329071E+00 0.73557034E+03</pdfrwt>
<pdfrwt beam="2">  1       -1 0.43499622E-01 0.73557034E+03</pdfrwt>
<totfact> 0.83956118E+00</totfact>
</mgrwt>
</event>
<event>
12    1  0.8033771E-008  0.5604575E+03  0.7818608E-02  0.9991020E-01
         -1   -1    0    0    0  501 -0.00000000000E+00  0.00000000000E+00  0.59040806787E+03  0.59040806787E+03  0.00000000000E+00 0.  1.
          1   -1    0    0  501    0  0.00000000000E+00 -0.00000000000E+00 -0.74420831750E+03  0.74420831750E+03  0.00000000000E+00 0. -1.
         23    2    1    2    0    0  0.27455614759E+03  0.43488140006E+03  0.40767028791E+02  0.52076693692E+03  0.70946047505E+02 0.  0.
    5000000    2    1    2    0    0 -0.27455614759E+03 -0.43488140006E+03 -0.19456727842E+03  0.81384944845E+03  0.59999299047E+03 0.  0.
         23    2    4    4    0    0  0.28507199837E+02 -0.21753522031E+03  0.16298427654E+03  0.28850749552E+03  0.92403831371E+02 0.  0.
         23    2    4    4    0    0 -0.30306334743E+03 -0.21734617975E+03 -0.35755155496E+03  0.52534195293E+03  0.95154078497E+02 0.  0.
          4    1    3    3  502    0  0.22313621876E+03  0.29993266313E+03  0.43311581663E+02  0.37633132695E+03  0.00000000000E+00 0. -1.
         -4    1    3    3    0  502  0.51419928830E+02  0.13494873692E+03 -0.25445528722E+01  0.14443560997E+03  0.00000000000E+00 0.  1.
         15    1    5    5    0    0  0.17077804956E+02 -0.13724567743E+03  0.45241580503E+02  0.14552658084E+03  0.17770000000E+01 0.  1.
        -15    1    5    5    0    0  0.11429394881E+02 -0.80289542882E+02  0.11774269603E+03  0.14298091468E+03  0.17770000000E+01 0. -1.
          3    1    6    6  503    0 -0.19390441837E+03 -0.85093441453E+02 -0.22159033442E+03  0.30649974478E+03  0.00000000000E+00 0. -1.
         -3    1    6    6    0  503 -0.10915892905E+03 -0.13225273829E+03 -0.13596122054E+03  0.21884220815E+03  0.00000000000E+00 0.  1.
<mgrwt>
<rscale>  0 0.56045754E+03</rscale>
<asrwt>0</asrwt>
<pdfrwt beam="1">  1        1 0.11449359E+00 0.56045754E+03</pdfrwt>
<pdfrwt beam="2">  1       -1 0.90832010E-01 0.56045754E+03</pdfrwt>
<totfact> 0.30772674E+01</totfact>
</mgrwt>
</event>
<event>
12    1  0.8033771E-008  0.8556702E+03  0.7818608E-02  0.9482758E-01
          2   -1    0    0  501    0  0.00000000000E+00  0.00000000000E+00  0.28656486972E+04  0.28656486972E+04  0.00000000000E+00 0. -1.
         -2   -1    0    0    0  501 -0.00000000000E+00 -0.00000000000E+00 -0.68917941903E+03  0.68917941903E+03  0.00000000000E+00 0.  1.
         23    2    1    2    0    0 -0.76083951359E+03 -0.24925965898E+03 -0.31870992528E+03  0.86654903649E+03  0.91236358609E+02 0.  0.
    5000000    2    1    2    0    0  0.76083951359E+03  0.24925965898E+03  0.24951792034E+04  0.26882790797E+04  0.59993167125E+03 0.  0.
         23    2    4    4    0    0  0.14787865391E+02  0.14498463088E+03  0.15287804348E+03  0.22605693642E+03  0.80565614070E+02 0.  0.
         23    2    4    4    0    0  0.74605164820E+03  0.10427502809E+03  0.23423011599E+04  0.24622221433E+04  0.93256719648E+02 0.  0.
          3    1    3    3  502    0 -0.40879400053E+03 -0.93679672966E+02 -0.13950839688E+03  0.44198530382E+03  0.00000000000E+00 0. -1.
         -3    1    3    3    0  502 -0.35204551306E+03 -0.15557998601E+03 -0.17920152840E+03  0.42456373267E+03  0.00000000000E+00 0.  1.
         15    1    5    5    0    0 -0.13888083234E+02  0.69103227500E+02  0.25391371109E+02  0.74940071808E+02  0.17770000000E+01 0. -1.
        -15    1    5    5    0    0  0.28675948625E+02  0.75881403385E+02  0.12748667237E+03  0.15111686462E+03  0.17770000000E+01 0.  1.
          1    1    6    6  503    0  0.66993013949E+03  0.76074799579E+02  0.21569685295E+04  0.22598909275E+04  0.00000000000E+00 0. -1.
         -1    1    6    6    0  503  0.76121508708E+02  0.28200228513E+02  0.18533263044E+03  0.20233121578E+03  0.00000000000E+00 0.  1.
<mgrwt>
<rscale>  0 0.85567021E+03</rscale>
<asrwt>0</asrwt>
<pdfrwt beam="1">  1        2 0.44086902E+00 0.85567021E+03</pdfrwt>
<pdfrwt beam="2">  1       -2 0.10602760E+00 0.85567021E+03</pdfrwt>
<totfact> 0.15764686E+00</totfact>
</mgrwt>
</event>
<event>
12    1  0.8033771E-008  0.5119714E+03  0.7818608E-02  0.1010701E+00
          2   -1    0    0  501    0  0.00000000000E+00  0.00000000000E+00  0.37470717620E+04  0.37470717620E+04  0.00000000000E+00 0.  1.
         -2   -1    0    0    0  501 -0.00000000000E+00 -0.00000000000E+00 -0.13845345711E+03  0.13845345711E+03  0.00000000000E+00 0. -1.
         23    2    1    2    0    0 -0.39956789799E+03 -0.18811642003E+03  0.25584884200E+04  0.25979404005E+04  0.91591685870E+02 0.  0.
    5000000    2    1    2    0    0  0.39956789799E+03  0.18811642003E+03  0.10501298849E+04  0.12875848186E+04  0.60004966235E+03 0.  0.
         23    2    4    4    0    0  0.25504176158E+03  0.28497264446E+03  0.25578147691E+03  0.46902118399E+03  0.91109817627E+02 0.  0.
         23    2    4    4    0    0  0.14452613642E+03 -0.96856224427E+02  0.79434840803E+03  0.81856363462E+03  0.93744857263E+02 0.  0.
          1    1    3    3  502    0 -0.30446267529E+03 -0.10589244685E+03  0.16995505197E+04  0.17298504849E+04  0.00000000000E+00 0.  1.
         -1    1    3    3    0  502 -0.95105222706E+02 -0.82223973177E+02  0.85893790022E+03  0.86808991561E+03  0.00000000000E+00 0. -1.
         15    1    5    5    0    0  0.17440909138E+03  0.20781224021E+03  0.22701500595E+03  0.35375617167E+03  0.17770000000E+01 0. -1.
        -15    1    5    5    0    0  0.80632670195E+02  0.77160404243E+02  0.28766470962E+02  0.11526501233E+03  0.17770000000E+01 0.  1.
          3    1    6    6  503    0  0.15188482011E+03 -0.74037745399E+02  0.62147371987E+03  0.64403429320E+03  0.00000000000E+00 0. -1.
         -3    1    6    6    0  503 -0.73586836961E+01 -0.22818479028E+02  0.17287468816E+03  0.17452934142E+03  0.00000000000E+00 0.  1.
<mgrwt>
<rscale>  0 0.51197137E+03</rscale>
<asrwt>0</asrwt>
<pdfrwt beam="1">  1        2 0.57647250E+00 0.51197137E+03</pdfrwt>
<pdfrwt beam="2">  1       -2 0.21300535E-01 0.51197137E+03</pdfrwt>
<totfact> 0.11849453E+01</totfact>
</mgrwt>
</event>
<event>
12    1  0.8033771E-008  0.8442484E+03  0.7818608E-02  0.9498089E-01
         -1   -1    0    0    0  501 -0.00000000000E+00  0.00000000000E+00  0.49156848037E+03  0.49156848037E+03  0.00000000000E+00 0.  1.
          1   -1    0    0  501    0  0.00000000000E+00 -0.00000000000E+00 -0.28533728605E+04  0.28533728605E+04  0.00000000000E+00 0. -1.
         23    2    1    2    0    0  0.71121114033E+03  0.21973487408E+03  0.49022033227E+02  0.75143136952E+03  0.90228833216E+02 0.  0.
    5000000    2    1    2    0    0 -0.71121114033E+03 -0.21973487408E+03 -0.24108264133E+04  0.25935099713E+04  0.60008772284E+03 0.  0.
         23    2    4    4    0    0 -0.47515546744E+03  0.14774146277E+03 -0.11615441271E+04  0.12669163693E+04  0.91060801336E+02 0.  0.
         23    2    4    4    0    0 -0.23605567289E+03 -0.36747633685E+03 -0.12492822862E+04  0.13265936020E+04  0.91559900543E+02 0.  0.
          1    1    3    3  502    0  0.15995981747E+03  0.42814740563E+02 -0.26088731273E+02  0.16763313250E+03  0.00000000000E+00 0. -1.
         -1    1    3    3    0  502  0.55125132286E+03  0.17692013352E+03  0.75110764500E+02  0.58379823702E+03  0.00000000000E+00 0.  1.
         15    1    5    5    0    0 -0.14338342452E+03  0.86439031377E+02 -0.42414518166E+03  0.45599649716E+03  0.17770000000E+01 0. -1.
        -15    1    5    5    0    0 -0.33177204292E+03  0.61302431391E+02 -0.73739894549E+03  0.81091987218E+03  0.17770000000E+01 0.  1.
          2    1    6    6  503    0 -0.79083121671E+02 -0.16467900474E+03 -0.63943383955E+03  0.66501800720E+03  0.00000000000E+00 0. -1.
         -2    1    6    6    0  503 -0.15697255122E+03 -0.20279733211E+03 -0.60984844664E+03  0.66157559478E+03  0.00000000000E+00 0.  1.
<mgrwt>
<rscale>  0 0.84424841E+03</rscale>
<asrwt>0</asrwt>
<pdfrwt beam="1">  1        1 0.43898044E+00 0.84424841E+03</pdfrwt>
<pdfrwt beam="2">  1       -1 0.75625919E-01 0.84424841E+03</pdfrwt>
<totfact> 0.14122950E+00</totfact>
</mgrwt>
</event>
<event>
12    1  0.8033771E-008  0.9258597E+03  0.7818608E-02  0.9393821E-01
         -2   -1    0    0    0  501 -0.00000000000E+00  0.00000000000E+00  0.28054622413E+03  0.28054622413E+03  0.00000000000E+00 0.  1.
          2   -1    0    0  501    0  0.00000000000E+00 -0.00000000000E+00 -0.34093111684E+04  0.34093111684E+04  0.00000000000E+00 0. -1.
         23    2    1    2    0    0 -0.32981794924E+03  0.76229594413E+03 -0.85895196459E+03  0.11994899666E+04  0.10536942869E+03 0.  0.
    5000000    2    1    2    0    0  0.32981794924E+03 -0.76229594413E+03 -0.22698129797E+04  0.24903674259E+04  0.60000330594E+03 0.  0.
         23    2    4    4    0    0  0.40953016273E+03 -0.23558483435E+03 -0.11705123914E+04  0.12654453962E+04  0.89652797526E+02 0.  0.
         23    2    4    4    0    0 -0.79712213487E+02 -0.52671110978E+03 -0.10993005883E+04  0.12249220297E+04  0.90518313994E+02 0.  0.
          4    1    3    3  502    0 -0.18260579986E+03  0.48761174150E+03 -0.59891895410E+03  0.79360821705E+03  0.00000000000E+00 0.  1.
         -4    1    3    3    0  502 -0.14721214938E+03  0.27468420263E+03 -0.26003301050E+03  0.40588174959E+03  0.00000000000E+00 0. -1.
         15    1    5    5    0    0  0.18793887630E+03 -0.61733146389E+02 -0.43593680156E+03  0.47872335986E+03  0.17770000000E+01 0. -1.
        -15    1    5    5    0    0  0.22159128643E+03 -0.17385168796E+03 -0.73457558982E+03  0.78672203637E+03  0.17770000000E+01 0.  1.
          2    1    6    6  503    0 -0.99034072099E+02 -0.42581172584E+03 -0.90888209055E+03  0.10085583909E+04  0.00000000000E+00 0. -1.
         -2    1    6    6    0  503  0.19321858612E+02 -0.10089938394E+03 -0.19041849774E+03  0.21636363877E+03  0.00000000000E+00 0.  1.
<mgrwt>
<rscale>  0 0.92585971E+03</rscale>
<asrwt>0</asrwt>
<pdfrwt beam="1">  1        2 0.52450938E+00 0.92585971E+03</pdfrwt>
<pdfrwt beam="2">  1       -2 0.43160960E-01 0.92585971E+03</pdfrwt>
<totfact> 0.50038714E+00</totfact>
</mgrwt>
</event>
<event>
12    1  0.8033771E-008  0.3997746E+03  0.7818608E-02  0.1043858E+00
         -1   -1    0    0    0  501 -0.00000000000E+00  0.00000000000E+00  0.74720801125E+02  0.74720801125E+02  0.00000000000E+00 0.  1.
          1   -1    0    0  501    0  0.00000000000E+00 -0.00000000000E+00 -0.31214927299E+04  0.31214927299E+04  0.00000000000E+00 0. -1.
         23    2    1    2    0    0  0.17766333487E+03 -0.94456900827E+01 -0.16923085863E+04  0.17039993292E+04  0.89732272981E+02 0.  0.
    5000000    2    1    2    0    0 -0.17766333487E+03  0.94456900827E+01 -0.13544633425E+04  0.14922142019E+04  0.60039886458E+03 0.  0.
         23    2    4    4    0    0 -0.25852389242E+03 -0.22680671855E+03 -0.68579877815E+03  0.77273085309E+03  0.92288226070E+02 0.  0.
         23    2    4    4    0    0  0.80860557553E+02  0.23625240863E+03 -0.66866456433E+03  0.71948334880E+03  0.90500603687E+02 0.  0.
          3    1    3    3  502    0  0.10700175316E+03 -0.46227119343E+02 -0.85475257707E+03  0.86266348581E+03  0.00000000000E+00 0. -1.
         -3    1    3    3    0  502  0.70661581708E+02  0.36781429260E+02 -0.83755600927E+03  0.84133584336E+03  0.00000000000E+00 0.  1.
         15    1    5    5    0    0 -0.59030014484E+02 -0.26677977881E+02 -0.20544332527E+03  0.21542138877E+03  0.17770000000E+01 0. -1.
        -15    1    5    5    0    0 -0.19949387794E+03 -0.20012874067E+03 -0.48035545288E+03  0.55730946432E+03  0.17770000000E+01 0.  1.
          1    1    6    6  503    0  0.45859003911E+02  0.20137543170E+03 -0.44741274308E+03  0.49278116380E+03  0.00000000000E+00 0. -1.
         -1    1    6    6    0  503  0.35001553641E+02  0.34876976929E+02 -0.22125182125E+03  0.22670218500E+03  0.00000000000E+00 0.  1.
<mgrwt>
<rscale>  0 0.39977462E+03</rscale>
<asrwt>0</asrwt>
<pdfrwt beam="1">  1        1 0.48022978E+00 0.39977462E+03</pdfrwt>
<pdfrwt beam="2">  1       -1 0.11495505E-01 0.39977462E+03</pdfrwt>
<totfact> 0.27965552E+01</totfact>
</mgrwt>
</event>
<event>
12    1  0.8033771E-008  0.6208370E+03  0.7818608E-02  0.9863095E-01
         -2   -1    0    0    0  501 -0.00000000000E+00  0.00000000000E+00  0.69819964565E+03  0.69819964565E+03  0.00000000000E+00 0.  1.
          2   -1    0    0  501    0  0.00000000000E+00 -0.00000000000E+00 -0.64327634933E+03  0.64327634933E+03  0.00000000000E+00 0. -1.
         23    2    1    2    0    0 -0.12484462141E+03  0.49771614970E+03 -0.11569785919E+03  0.53381040275E+03  0.90884576755E+02 0.  0.
    5000000    2    1    2    0    0  0.12484462141E+03 -0.49771614970E+03  0.17062115551E+03  0.80766559223E+03  0.59992048223E+03 0.  0.
         23    2    4    4    0    0 -0.80552377354E+02  0.53906848314E+02  0.16422706415E+03  0.21186533074E+03  0.92313357535E+02 0.  0.
         23    2    4    4    0    0  0.20539699876E+03 -0.55162299802E+03  0.63940913620E+01  0.59580026149E+03  0.91984825609E+02 0.  0.
          1    1    3    3  502    0 -0.43490022733E+02  0.27516488421E+03 -0.23569696580E+02  0.27957579683E+03  0.00000000000E+00 0. -1.
         -1    1    3    3    0  502 -0.81354598677E+02  0.22255126550E+03 -0.92128162606E+02  0.25423460592E+03  0.00000000000E+00 0.  1.
         15    1    5    5    0    0 -0.34940042952E+02 -0.22344070257E+02  0.31398226858E+02  0.52048731550E+02  0.17770000000E+01 0. -1.
        -15    1    5    5    0    0 -0.45612334402E+02  0.76250918571E+02  0.13282883729E+03  0.15981659919E+03  0.17770000000E+01 0.  1.
          3    1    6    6  503    0  0.46487912557E+02 -0.25545493238E+03  0.44064451300E+01  0.25968782268E+03  0.00000000000E+00 0. -1.
         -3    1    6    6    0  503  0.15890908621E+03 -0.29616806564E+03  0.19876462320E+01  0.33611243881E+03  0.00000000000E+00 0.  1.
<mgrwt>
<rscale>  0 0.62083698E+03</rscale>
<asrwt>0</asrwt>
<pdfrwt beam="1">  1        2 0.98965593E-01 0.62083698E+03</pdfrwt>
<pdfrwt beam="2">  1       -2 0.10741533E+00 0.62083698E+03</pdfrwt>
<totfact> 0.32479626E+01</totfact>
</mgrwt>
</event>
<event>
12    1  0.8033771E-008  0.5487177E+03  0.7818608E-02  0.1001791E+00
         -1   -1    0    0    0  501 -0.00000000000E+00  0.00000000000E+00  0.18628868982E+03  0.18628868982E+03  0.00000000000E+00 0.  1.
          1   -1    0    0  501    0  0.00000000000E+00 -0.00000000000E+00 -0.25837846234E+04  0.25837846234E+04  0.00000000000E+00 0. -1.
         23    2    1    2    0    0 -0.50244697769E+03  0.11144311389E+03 -0.54658722000E+03  0.75730784195E+03  0.99423565593E+02 0.  0.
    5000000    2    1    2    0    0  0.50244697769E+03 -0.11144311389E+03 -0.18509087136E+04  0.20127654713E+04  0.60040756435E+03 0.  0.
         23    2    4    4    0    0  0.45874184526E+03 -0.16820251715E+03 -0.71047591550E+03  0.86643081491E+03  0.84794829707E+02 0.  0.
         23    2    4    4    0    0  0.43705132431E+02  0.56759403261E+02 -0.11404327981E+04  0.11463346563E+04  0.91457143022E+02 0.  0.
          3    1    3    3  502    0 -0.33773700305E+03  0.64303423223E+02 -0.29552604316E+03  0.45336172716E+03  0.00000000000E+00 0. -1.
         -3    1    3    3    0  502 -0.16470997464E+03  0.47139690665E+02 -0.25106117684E+03  0.30394611479E+03  0.00000000000E+00 0.  1.
         15    1    5    5    0    0  0.31952930921E+03 -0.75041295788E+02 -0.45978349343E+03  0.56491963506E+03  0.17770000000E+01 0.  1.
        -15    1    5    5    0    0  0.13921253605E+03 -0.93161221362E+02 -0.25069242208E+03  0.30151117985E+03  0.17770000000E+01 0. -1.
          2    1    6    6  503    0  0.23910740427E+02  0.61691628865E+02 -0.38623449343E+03  0.39186051664E+03  0.00000000000E+00 0. -1.
         -2    1    6    6    0  503  0.19794392004E+02 -0.49322256038E+01 -0.75419830462E+03  0.75447413971E+03  0.00000000000E+00 0.  1.
<mgrwt>
<rscale>  0 0.54871772E+03</rscale>
<asrwt>0</asrwt>
<pdfrwt beam="1">  1        1 0.39750530E+00 0.54871772E+03</pdfrwt>
<pdfrwt beam="2">  1       -1 0.28659800E-01 0.54871772E+03</pdfrwt>
<totfact> 0.14292889E+01</totfact>
</mgrwt>
</event>
<event>
12    1  0.8033771E-008  0.1300194E+04  0.7818608E-02  0.9029411E-01
         -2   -1    0    0    0  501 -0.00000000000E+00  0.00000000000E+00  0.48230343167E+03  0.48230343167E+03  0.00000000000E+00 0.  1.
          2   -1    0    0  501    0  0.00000000000E+00 -0.00000000000E+00 -0.36743688819E+04  0.36743688819E+04  0.00000000000E+00 0. -1.
         23    2    1    2    0    0 -0.39139940151E+03 -0.11943231738E+04 -0.13401803390E+04  0.18395357263E+04  0.90592561694E+02 0.  0.
    5000000    2    1    2    0    0  0.39139940151E+03  0.11943231738E+04 -0.18518851113E+04  0.23171365873E+04  0.60003513588E+03 0.  0.
         23    2    4    4    0    0  0.44112093972E+03  0.11398573158E+04 -0.18216633374E+04  0.21957594961E+04  0.95079261319E+02 0.  0.
         23    2    4    4    0    0 -0.49721538210E+02  0.54465857946E+02 -0.30221773843E+02  0.12137709126E+03  0.91543878144E+02 0.  0.
          4    1    3    3  502    0 -0.18708039814E+03 -0.67434885262E+03 -0.69918222487E+03  0.98924275785E+03  0.00000000000E+00 0.  1.
         -4    1    3    3    0  502 -0.20431900338E+03 -0.51997432114E+03 -0.64099811415E+03  0.85029296841E+03  0.00000000000E+00 0. -1.
         15    1    5    5    0    0  0.90612591423E+02  0.15685477435E+03 -0.23686933753E+03  0.29820178194E+03  0.17770000000E+01 0.  1.
        -15    1    5    5    0    0  0.35050834830E+03  0.98300254146E+03 -0.15847939999E+04  0.18975577141E+04  0.17770000000E+01 0. -1.
          3    1    6    6  503    0 -0.46549870334E+02  0.79367043286E+02 -0.27997957927E+02  0.96176419335E+02  0.00000000000E+00 0. -1.
         -3    1    6    6    0  503 -0.31716678755E+01 -0.24901185339E+02 -0.22238159160E+01  0.25200671928E+02  0.00000000000E+00 0.  1.
<mgrwt>
<rscale>  0 0.13001942E+04</rscale>
<asrwt>0</asrwt>
<pdfrwt beam="1">  1        2 0.56528753E+00 0.13001942E+04</pdfrwt>
<pdfrwt beam="2">  1       -2 0.74200527E-01 0.13001942E+04</pdfrwt>
<totfact> 0.99142242E-01</totfact>
</mgrwt>
</event>
<event>
12    1  0.8033771E-008  0.6625962E+03  0.7818608E-02  0.9783426E-01
         -1   -1    0    0    0  501 -0.00000000000E+00  0.00000000000E+00  0.50867534604E+03  0.50867534604E+03  0.00000000000E+00 0.  1.
          1   -1    0    0  501    0  0.00000000000E+00 -0.00000000000E+00 -0.18485582894E+04  0.18485582894E+04  0.00000000000E+00 0. -1.
         23    2    1    2    0    0 -0.62566287459E+03 -0.16171392566E+03  0.10868603327E+03  0.66157208487E+03  0.90882029312E+02 0.  0.
    5000000    2    1    2    0    0  0.62566287459E+03  0.16171392566E+03 -0.14485689766E+04  0.16956615506E+04  0.59942521440E+03 0.  0.
         23    2    4    4    0    0  0.25776578533E+03  0.14354958977E+03 -0.12085094854E+04  0.12465970097E+04  0.80369419162E+02 0.  0.
         23    2    4    4    0    0  0.36789708926E+03  0.18164335893E+02 -0.24005949125E+03  0.44906454088E+03  0.91390323059E+02 0.  0.
          1    1    3    3  502    0 -0.51380880333E+03 -0.15726870431E+03  0.64384864545E+02  0.54118235607E+03  0.00000000000E+00 0.  1.
         -1    1    3    3    0  502 -0.11185407126E+03 -0.44452213563E+01  0.44301168723E+02  0.12038972880E+03  0.00000000000E+00 0. -1.
         15    1    5    5    0    0  0.16798057684E+03  0.65123706576E+02 -0.84641112999E+03  0.86537479167E+03  0.17770000000E+01 0.  1.
        -15    1    5    5    0    0  0.89785208490E+02  0.78425883195E+02 -0.36209835538E+03  0.38122221803E+03  0.17770000000E+01 0. -1.
          3    1    6    6  503    0  0.45261444539E+02  0.28895304327E+02 -0.15719362177E+02  0.55952080579E+02  0.00000000000E+00 0. -1.
         -3    1    6    6    0  503  0.32263564472E+03 -0.10730968434E+02 -0.22434012907E+03  0.39311246030E+03  0.00000000000E+00 0.  1.
<mgrwt>
<rscale>  0 0.66259624E+03</rscale>
<asrwt>0</asrwt>
<pdfrwt beam="1">  1        1 0.28439359E+00 0.66259624E+03</pdfrwt>
<pdfrwt beam="2">  1       -1 0.78257745E-01 0.66259624E+03</pdfrwt>
<totfact> 0.65572699E+00</totfact>
</mgrwt>
</event>
<event>
12    1  0.8033771E-008  0.9874510E+03  0.7818608E-02  0.9322416E-01
         -1   -1    0    0    0  501 -0.00000000000E+00  0.00000000000E+00  0.10961252973E+04  0.10961252973E+04  0.00000000000E+00 0.  1.
          1   -1    0    0  501    0  0.00000000000E+00 -0.00000000000E+00 -0.10350090504E+04  0.10350090504E+04  0.00000000000E+00 0. -1.
         23    2    1    2    0    0 -0.71319900944E+03 -0.62059374121E+03  0.27967229363E+03  0.99011335436E+03  0.91205504069E+02 0.  0.
    5000000    2    1    2    0    0  0.71319900944E+03  0.62059374121E+03 -0.21855604668E+03  0.11410209933E+04  0.60031053874E+03 0.  0.
         23    2    4    4    0    0  0.48837906907E+03  0.18113509767E+03  0.11116963318E+03  0.54029977052E+03  0.90780592483E+02 0.  0.
         23    2    4    4    0    0  0.22481994037E+03  0.43945864353E+03 -0.32972567986E+03  0.60072122278E+03  0.92081803689E+02 0.  0.
          3    1    3    3  502    0 -0.27841211279E+03 -0.19626979230E+03  0.12839978889E+03  0.36403522041E+03  0.00000000000E+00 0. -1.
         -3    1    3    3    0  502 -0.43478689665E+03 -0.42432394891E+03  0.15127250474E+03  0.62607813395E+03  0.00000000000E+00 0.  1.
         15    1    5    5    0    0  0.37632586300E+03  0.16785620024E+03  0.11353836036E+03  0.42742364947E+03  0.17770000000E+01 0. -1.
        -15    1    5    5    0    0  0.11205320606E+03  0.13278897433E+02 -0.23687271751E+01  0.11287612105E+03  0.17770000000E+01 0.  1.
          4    1    6    6  503    0  0.87594204909E+02  0.26947423063E+03 -0.17540453106E+03  0.33325043919E+03  0.00000000000E+00 0. -1.
         -4    1    6    6    0  503  0.13722573546E+03  0.16998441291E+03 -0.15432114880E+03  0.26747078359E+03  0.00000000000E+00 0.  1.
<mgrwt>
<rscale>  0 0.98745096E+03</rscale>
<asrwt>0</asrwt>
<pdfrwt beam="1">  1        1 0.15923216E+00 0.98745096E+03</pdfrwt>
<pdfrwt beam="2">  1       -1 0.16863466E+00 0.98745096E+03</pdfrwt>
<totfact> 0.35956209E+00</totfact>
</mgrwt>
</event>
<event>
12    1  0.8033771E-008  0.4154766E+03  0.7818608E-02  0.1038549E+00
         -1   -1    0    0    0  501 -0.00000000000E+00  0.00000000000E+00  0.40010520276E+03  0.40010520276E+03  0.00000000000E+00 0.  1.
          1   -1    0    0  501    0  0.00000000000E+00 -0.00000000000E+00 -0.61945654752E+03  0.61945654752E+03  0.00000000000E+00 0. -1.
         23    2    1    2    0    0 -0.18423953368E+03  0.22130376595E+03 -0.18291533194E+03  0.35307903061E+03  0.91034172725E+02 0.  0.
    5000000    2    1    2    0    0  0.18423953368E+03 -0.22130376595E+03 -0.36436012814E+02  0.66648271967E+03  0.59996005701E+03 0.  0.
         23    2    4    4    0    0 -0.68116251704E+02 -0.25376044988E+03  0.17041775180E+03  0.32564516254E+03  0.89265738584E+02 0.  0.
         23    2    4    4    0    0  0.25235578538E+03  0.32456683932E+02 -0.20685376462E+03  0.34083755713E+03  0.92977855807E+02 0.  0.
          4    1    3    3  502    0 -0.57361349452E+02  0.28734173581E+02 -0.74314772228E+02  0.98176690276E+02  0.00000000000E+00 0. -1.
         -4    1    3    3    0  502 -0.12687818422E+03  0.19256959237E+03 -0.10860055972E+03  0.25490234033E+03  0.00000000000E+00 0.  1.
         15    1    5    5    0    0 -0.14198322277E+02 -0.18773530923E+03  0.90968614118E+02  0.20910424475E+03  0.17770000000E+01 0. -1.
        -15    1    5    5    0    0 -0.53917929427E+02 -0.66025140647E+02  0.79449137686E+02  0.11654091779E+03  0.17770000000E+01 0.  1.
          3    1    6    6  503    0  0.13517302219E+03 -0.15439534807E+02 -0.14862958784E+03  0.20149659934E+03  0.00000000000E+00 0. -1.
         -3    1    6    6    0  503  0.11718276319E+03  0.47896218740E+02 -0.58224176776E+02  0.13934095780E+03  0.00000000000E+00 0.  1.
<mgrwt>
<rscale>  0 0.41547663E+03</rscale>
<asrwt>0</asrwt>
<pdfrwt beam="1">  1        1 0.95301008E-01 0.41547663E+03</pdfrwt>
<pdfrwt beam="2">  1       -1 0.61554646E-01 0.41547663E+03</pdfrwt>
<totfact> 0.92081130E+01</totfact>
</mgrwt>
</event>
<event>
12    1  0.8033771E-008  0.4328586E+03  0.7818608E-02  0.1032961E+00
         -1   -1    0    0    0  501 -0.00000000000E+00  0.00000000000E+00  0.92987585288E+03  0.92987585288E+03  0.00000000000E+00 0.  1.
          1   -1    0    0  501    0  0.00000000000E+00 -0.00000000000E+00 -0.32627786492E+03  0.32627786492E+03  0.00000000000E+00 0. -1.
         23    2    1    2    0    0 -0.37403233187E+03 -0.51719253321E+02  0.16555290654E+03  0.42276886941E+03  0.93545099455E+02 0.  0.
    5000000    2    1    2    0    0  0.37403233187E+03  0.51719253321E+02  0.43804508142E+03  0.83338484839E+03  0.60005978513E+03 0.  0.
         23    2    4    4    0    0  0.28512381031E+03  0.16225796652E+03  0.53906215228E+03  0.63769144677E+03  0.91864804811E+02 0.  0.
         23    2    4    4    0    0  0.88908521560E+02 -0.11053871320E+03 -0.10101707086E+03  0.19569340162E+03  0.89263242780E+02 0.  0.
          1    1    3    3  502    0 -0.16553471177E+03 -0.26594785757E+02  0.12440000388E+03  0.20876873423E+03  0.00000000000E+00 0. -1.
         -1    1    3    3    0  502 -0.20849762010E+03 -0.25124467565E+02  0.41152902667E+02  0.21400013518E+03  0.00000000000E+00 0.  1.
         15    1    5    5    0    0  0.73243677925E+02  0.29948194837E+02  0.21093843369E+03  0.22529915948E+03  0.17770000000E+01 0. -1.
        -15    1    5    5    0    0  0.21188013238E+03  0.13230977168E+03  0.32812371859E+03  0.41239228728E+03  0.17770000000E+01 0.  1.
          4    1    6    6  503    0  0.26323749438E+02 -0.89158966972E+02 -0.88560339087E+02  0.12839468383E+03  0.00000000000E+00 0.  1.
         -4    1    6    6    0  503  0.62584772122E+02 -0.21379746224E+02 -0.12456731774E+02  0.67298717793E+02  0.00000000000E+00 0. -1.
<mgrwt>
<rscale>  0 0.43285857E+03</rscale>
<asrwt>0</asrwt>
<pdfrwt beam="1">  1        1 0.50196595E-01 0.43285857E+03</pdfrwt>
<pdfrwt beam="2">  1       -1 0.14305782E+00 0.43285857E+03</pdfrwt>
<totfact> 0.33017534E+01</totfact>
</mgrwt>
</event>
<event>
12    1  0.8033771E-008  0.3998267E+03  0.7818608E-02  0.1043840E+00
         -2   -1    0    0    0  501 -0.00000000000E+00  0.00000000000E+00  0.94100157919E+02  0.94100157919E+02  0.00000000000E+00 0. -1.
          2   -1    0    0  501    0  0.00000000000E+00 -0.00000000000E+00 -0.25328354766E+04  0.25328354766E+04  0.00000000000E+00 0.  1.
         23    2    1    2    0    0  0.13957886420E+03  0.25988746492E+03 -0.78614348967E+03  0.84419742314E+03  0.87315228530E+02 0.  0.
    5000000    2    1    2    0    0 -0.13957886420E+03 -0.25988746492E+03 -0.16525918290E+04  0.17827382113E+04  0.60006001636E+03 0.  0.
         23    2    4    4    0    0 -0.26673132918E+03 -0.16299762722E+03 -0.39473676883E+03  0.51149896570E+03  0.90001371116E+02 0.  0.
         23    2    4    4    0    0  0.12715246499E+03 -0.96889837696E+02 -0.12578550601E+04  0.12712392456E+04  0.91074021106E+02 0.  0.
          4    1    3    3  502    0  0.71828023605E+02  0.57339778617E+02 -0.28459195500E+03  0.29906470209E+03  0.00000000000E+00 0. -1.
         -4    1    3    3    0  502  0.67750840591E+02  0.20254768630E+03 -0.50155153467E+03  0.54513272105E+03  0.00000000000E+00 0.  1.
         15    1    5    5    0    0 -0.14470918456E+03 -0.71553411845E+02 -0.26956078999E+03  0.31420823680E+03  0.17770000000E+01 0.  1.
        -15    1    5    5    0    0 -0.12202214463E+03 -0.91444215376E+02 -0.12517597884E+03  0.19729072890E+03  0.17770000000E+01 0. -1.
          1    1    6    6  503    0  0.66749259417E+02 -0.82736609742E+00 -0.34891856399E+03  0.35524683315E+03  0.00000000000E+00 0. -1.
         -1    1    6    6    0  503  0.60403205570E+02 -0.96062471599E+02 -0.90893649614E+03  0.91599241248E+03  0.00000000000E+00 0.  1.
<mgrwt>
<rscale>  0 0.39982667E+03</rscale>
<asrwt>0</asrwt>
<pdfrwt beam="1">  1        2 0.38966690E+00 0.39982667E+03</pdfrwt>
<pdfrwt beam="2">  1       -2 0.14476951E-01 0.39982667E+03</pdfrwt>
<totfact> 0.13578700E+02</totfact>
</mgrwt>
</event>
<event>
12    1  0.8033771E-008  0.6740481E+03  0.7818608E-02  0.9762672E-01
         -2   -1    0    0    0  501 -0.00000000000E+00  0.00000000000E+00  0.67747588743E+03  0.67747588743E+03  0.00000000000E+00 0.  1.
          2   -1    0    0  501    0  0.00000000000E+00 -0.00000000000E+00 -0.10088030955E+04  0.10088030955E+04  0.00000000000E+00 0. -1.
         23    2    1    2    0    0  0.60826537715E+03  0.17488213821E+03  0.19156687696E+03  0.66911305846E+03  0.10219532936E+03 0.  0.
    5000000    2    1    2    0    0 -0.60826537715E+03 -0.17488213821E+03 -0.52289408499E+03  0.10171659244E+04  0.60053123348E+03 0.  0.
         23    2    4    4    0    0 -0.26468943176E+02 -0.79200884302E+01 -0.37518222416E+03  0.38732890745E+03  0.92188114570E+02 0.  0.
         23    2    4    4    0    0 -0.58179643398E+03 -0.16696204978E+03 -0.14771186083E+03  0.62983701698E+03  0.92262979943E+02 0.  0.
          2    1    3    3  502    0  0.35825242258E+03  0.50286314169E+02  0.10822351168E+03  0.37760540271E+03  0.00000000000E+00 0. -1.
         -2    1    3    3    0  502  0.25001295457E+03  0.12459582404E+03  0.83343365278E+02  0.29150765574E+03  0.00000000000E+00 0.  1.
         15    1    5    5    0    0 -0.27308763863E+02 -0.47718165767E+02 -0.24903703552E+03  0.25503998651E+03  0.17770000000E+01 0.  1.
        -15    1    5    5    0    0  0.83982068675E+00  0.39798077337E+02 -0.12614518864E+03  0.13228892094E+03  0.17770000000E+01 0. -1.
          4    1    6    6  503    0 -0.18444723988E+03 -0.93936928266E+01 -0.38530134853E+02  0.18866265411E+03  0.00000000000E+00 0. -1.
         -4    1    6    6    0  503 -0.39734919410E+03 -0.15756835695E+03 -0.10918172598E+03  0.44117436287E+03  0.00000000000E+00 0.  1.
<mgrwt>
<rscale>  0 0.67404815E+03</rscale>
<asrwt>0</asrwt>
<pdfrwt beam="1">  1        2 0.15520048E+00 0.67404815E+03</pdfrwt>
<pdfrwt beam="2">  1       -2 0.10422706E+00 0.67404815E+03</pdfrwt>
<totfact> 0.19075217E+01</totfact>
</mgrwt>
</event>
<event>
12    1  0.8033771E-008  0.1215904E+04  0.7818608E-02  0.9099048E-01
          2   -1    0    0  501    0  0.00000000000E+00  0.00000000000E+00  0.10760885821E+04  0.10760885821E+04  0.00000000000E+00 0.  1.
         -2   -1    0    0    0  501 -0.00000000000E+00 -0.00000000000E+00 -0.15049414601E+04  0.15049414601E+04  0.00000000000E+00 0. -1.
         23    2    1    2    0    0 -0.11940918348E+04 -0.11317379041E+03 -0.24570631147E+03  0.12275290396E+04  0.88274202417E+02 0.  0.
    5000000    2    1    2    0    0  0.11940918348E+04  0.11317379041E+03 -0.18314656653E+03  0.13535010025E+04  0.59979886807E+03 0.  0.
         23    2    4    4    0    0  0.73053302802E+03  0.18185791799E+03 -0.36661608276E+03  0.84241112530E+03  0.92186466035E+02 0.  0.
         23    2    4    4    0    0  0.46355880680E+03 -0.68684127586E+02  0.18346951623E+03  0.51108987722E+03  0.89148878068E+02 0.  0.
          1    1    3    3  502    0 -0.10208322974E+04 -0.65468195501E+02 -0.20498191700E+03  0.10432651870E+04  0.00000000000E+00 0. -1.
         -1    1    3    3    0  502 -0.17325953740E+03 -0.47705594908E+02 -0.40724394466E+02  0.18426385264E+03  0.00000000000E+00 0.  1.
         15    1    5    5    0    0  0.40833615541E+03  0.14626680718E+03 -0.19398682352E+03  0.47514886101E+03  0.17770000000E+01 0. -1.
        -15    1    5    5    0    0  0.32219687262E+03  0.35591110815E+02 -0.17262925924E+03  0.36726226429E+03  0.17770000000E+01 0.  1.
          3    1    6    6  503    0  0.50635103708E+02  0.80505696695E+01  0.46801903835E+02  0.69420051873E+02  0.00000000000E+00 0. -1.
         -3    1    6    6    0  503  0.41292370310E+03 -0.76734697255E+02  0.13666761239E+03  0.44166982534E+03  0.00000000000E+00 0.  1.
<mgrwt>
<rscale>  0 0.12159042E+04</rscale>
<asrwt>0</asrwt>
<pdfrwt beam="1">  1        2 0.16555209E+00 0.12159042E+04</pdfrwt>
<pdfrwt beam="2">  1       -2 0.23152945E+00 0.12159042E+04</pdfrwt>
<totfact> 0.18308017E+00</totfact>
</mgrwt>
</event>
<event>
12    1  0.8033771E-008  0.7821503E+03  0.7818608E-02  0.9586219E-01
         -2   -1    0    0    0  501 -0.00000000000E+00  0.00000000000E+00  0.36601712934E+03  0.36601712934E+03  0.00000000000E+00 0.  1.
          2   -1    0    0  501    0  0.00000000000E+00 -0.00000000000E+00 -0.22537145551E+04  0.22537145551E+04  0.00000000000E+00 0. -1.
         23    2    1    2    0    0  0.21858042493E+03  0.67610894583E+03 -0.29343491645E+03  0.77405416214E+03  0.90305519994E+02 0.  0.
    5000000    2    1    2    0    0 -0.21858042493E+03 -0.67610894583E+03 -0.15942625093E+04  0.18456775223E+04  0.59995988110E+03 0.  0.
         23    2    4    4    0    0  0.58648328869E+02 -0.49363862166E+03 -0.12920260541E+04  0.13874926182E+04  0.93197241786E+02 0.  0.
         23    2    4    4    0    0 -0.27722875380E+03 -0.18247032418E+03 -0.30223645523E+03  0.45818490410E+03  0.91844054431E+02 0.  0.
          1    1    3    3  502    0  0.22578749648E+03  0.62562361248E+03 -0.27671471584E+03  0.72038596045E+03  0.00000000000E+00 0. -1.
         -1    1    3    3    0  502 -0.72070715475E+01  0.50485333354E+02 -0.16720200613E+02  0.53668201691E+02  0.00000000000E+00 0.  1.
         15    1    5    5    0    0 -0.24548565753E+02 -0.12122922745E+03 -0.29106262806E+03  0.31625902177E+03  0.17770000000E+01 0.  1.
        -15    1    5    5    0    0  0.83196894622E+02 -0.37240939421E+03 -0.10009634261E+04  0.10712335965E+04  0.17770000000E+01 0. -1.
          2    1    6    6  503    0 -0.13885111588E+02  0.96521539160E+01 -0.25417877579E+02  0.30529148361E+02  0.00000000000E+00 0. -1.
         -2    1    6    6    0  503 -0.26334364221E+03 -0.19212247809E+03 -0.27681857765E+03  0.42765575574E+03  0.00000000000E+00 0.  1.
<mgrwt>
<rscale>  0 0.78215035E+03</rscale>
<asrwt>0</asrwt>
<pdfrwt beam="1">  1        2 0.34672532E+00 0.78215035E+03</pdfrwt>
<pdfrwt beam="2">  1       -2 0.56310327E-01 0.78215035E+03</pdfrwt>
<totfact> 0.14766526E+01</totfact>
</mgrwt>
</event>
<event>
12    1  0.8033771E-008  0.7980862E+03  0.7818608E-02  0.9562791E-01
         -1   -1    0    0    0  501 -0.00000000000E+00  0.00000000000E+00  0.84904408045E+03  0.84904408045E+03  0.00000000000E+00 0.  1.
          1   -1    0    0  501    0  0.00000000000E+00 -0.00000000000E+00 -0.92967376627E+03  0.92967376627E+03  0.00000000000E+00 0. -1.
         23    2    1    2    0    0 -0.26554559854E+03  0.73769397756E+03 -0.16313040329E+02  0.78935319092E+03  0.90030413157E+02 0.  0.
    5000000    2    1    2    0    0  0.26554559854E+03 -0.73769397756E+03 -0.64316645495E+02  0.98936465580E+03  0.59999910152E+03 0.  0.
         23    2    4    4    0    0  0.25272111245E+03 -0.53606489516E+03  0.21093606223E+03  0.63570592495E+03  0.91621330285E+02 0.  0.
         23    2    4    4    0    0  0.12824486092E+02 -0.20162908241E+03 -0.27525270773E+03  0.35365873086E+03  0.92150368871E+02 0.  0.
          4    1    3    3  502    0 -0.17521408984E+03  0.39681244364E+03 -0.41815818211E+02  0.43578510227E+03  0.00000000000E+00 0. -1.
         -4    1    3    3    0  502 -0.90331508706E+02  0.34088153392E+03  0.25502777882E+02  0.35356808865E+03  0.00000000000E+00 0.  1.
         15    1    5    5    0    0  0.55302269170E+02 -0.10020660389E+03  0.79917680522E+02  0.13960550787E+03  0.17770000000E+01 0. -1.
        -15    1    5    5    0    0  0.19741884328E+03 -0.43585829127E+03  0.13101838171E+03  0.49610041708E+03  0.17770000000E+01 0.  1.
          3    1    6    6  503    0 -0.26392413628E+02 -0.26765941874E+02 -0.81414367601E+02  0.89673153136E+02  0.00000000000E+00 0. -1.
         -3    1    6    6    0  503  0.39216899720E+02 -0.17486314053E+03 -0.19383834013E+03  0.26398557772E+03  0.00000000000E+00 0.  1.
<mgrwt>
<rscale>  0 0.79808624E+03</rscale>
<asrwt>0</asrwt>
<pdfrwt beam="1">  1        1 0.14302673E+00 0.79808624E+03</pdfrwt>
<pdfrwt beam="2">  1       -1 0.13062217E+00 0.79808624E+03</pdfrwt>
<totfact> 0.88477134E+00</totfact>
</mgrwt>
</event>
<event>
12    1  0.8033771E-008  0.7270903E+03  0.7818608E-02  0.9671994E-01
          1   -1    0    0  501    0  0.00000000000E+00  0.00000000000E+00  0.85962242860E+03  0.85962242860E+03  0.00000000000E+00 0. -1.
         -1   -1    0    0    0  501 -0.00000000000E+00 -0.00000000000E+00 -0.77582953637E+03  0.77582953637E+03  0.00000000000E+00 0.  1.
         23    2    1    2    0    0 -0.63375561976E+03  0.51180762397E+02  0.33835751088E+03  0.72503033950E+03  0.83171702047E+02 0.  0.
    5000000    2    1    2    0    0  0.63375561976E+03 -0.51180762397E+02 -0.25456461865E+03  0.91042162547E+03  0.59983225576E+03 0.  0.
         23    2    4    4    0    0  0.63024244602E+03  0.10345059286E+03 -0.31846657934E+03  0.71947121446E+03  0.91160848808E+02 0.  0.
         23    2    4    4    0    0  0.35131737390E+01 -0.15463135526E+03  0.63901960695E+02  0.19095041101E+03  0.91953251519E+02 0.  0.
          1    1    3    3  502    0 -0.12392051249E+03  0.12623439573E+02  0.30614387943E+02  0.12826880132E+03  0.00000000000E+00 0. -1.
         -1    1    3    3    0  502 -0.50983510727E+03  0.38557322824E+02  0.30774312294E+03  0.59676153819E+03  0.00000000000E+00 0.  1.
         15    1    5    5    0    0  0.95375809385E+02 -0.10065573542E+02 -0.25995927579E+02  0.99382124984E+02  0.17770000000E+01 0.  1.
        -15    1    5    5    0    0  0.53486663663E+03  0.11351616640E+03 -0.29247065177E+03  0.62008908948E+03  0.17770000000E+01 0. -1.
          1    1    6    6  503    0 -0.38995430045E+02 -0.92056856917E+02  0.15568928742E+02  0.10118053178E+03  0.00000000000E+00 0. -1.
         -1    1    6    6    0  503  0.42508603784E+02 -0.62574498343E+02  0.48333031953E+02  0.89769879226E+02  0.00000000000E+00 0.  1.
<mgrwt>
<rscale>  0 0.72709030E+03</rscale>
<asrwt>0</asrwt>
<pdfrwt beam="1">  1        1 0.13224960E+00 0.72709030E+03</pdfrwt>
<pdfrwt beam="2">  1       -1 0.11935839E+00 0.72709030E+03</pdfrwt>
<totfact> 0.12740968E+01</totfact>
</mgrwt>
</event>
<event>
12    1  0.8033771E-008  0.3767669E+03  0.7818608E-02  0.1052135E+00
          1   -1    0    0  501    0  0.00000000000E+00  0.00000000000E+00  0.59418969491E+03  0.59418969491E+03  0.00000000000E+00 0.  1.
         -1   -1    0    0    0  501 -0.00000000000E+00 -0.00000000000E+00 -0.55533745888E+03  0.55533745888E+03  0.00000000000E+00 0. -1.
         23    2    1    2    0    0  0.15869543434E+03 -0.73747709575E+02 -0.35812642087E+03  0.40893136218E+03  0.91363888422E+02 0.  0.
    5000000    2    1    2    0    0 -0.15869543434E+03  0.73747709575E+02  0.39697865689E+03  0.74059579161E+03  0.60022254787E+03 0.  0.
         23    2    4    4    0    0  0.19058724019E+03  0.64605278639E+02  0.23056258830E+02  0.21990040292E+03  0.85599404088E+02 0.  0.
         23    2    4    4    0    0 -0.34928267453E+03  0.91424309364E+01  0.37392239806E+03  0.52069538869E+03  0.96040393921E+02 0.  0.
          3    1    3    3  502    0  0.11386893414E+03 -0.33106281126E+01 -0.20613167700E+03  0.23551510076E+03  0.00000000000E+00 0. -1.
         -3    1    3    3    0  502  0.44826500197E+02 -0.70437081463E+02 -0.15199474387E+03  0.17341626143E+03  0.00000000000E+00 0.  1.
         15    1    5    5    0    0  0.99713678085E+02  0.26621726378E+02  0.54199929619E+02  0.11658612273E+03  0.17770000000E+01 0.  1.
        -15    1    5    5    0    0  0.90873562107E+02  0.37983552261E+02 -0.31143670789E+02  0.10331428019E+03  0.17770000000E+01 0. -1.
          3    1    6    6  503    0 -0.19247903661E+03  0.34524361593E+02  0.25949359635E+03  0.32492620335E+03  0.00000000000E+00 0. -1.
         -3    1    6    6    0  503 -0.15680363792E+03 -0.25381930656E+02  0.11442880171E+03  0.19576918534E+03  0.00000000000E+00 0.  1.
<mgrwt>
<rscale>  0 0.37676690E+03</rscale>
<asrwt>0</asrwt>
<pdfrwt beam="1">  1        1 0.91413799E-01 0.37676690E+03</pdfrwt>
<pdfrwt beam="2">  1       -1 0.85436532E-01 0.37676690E+03</pdfrwt>
<totfact> 0.50295331E+01</totfact>
</mgrwt>
</event>
<event>
12    1  0.1285329E-007  0.1885805E+04  0.7818608E-02  0.8661955E-01
         -1   -1    0    0    0  501 -0.00000000000E+00  0.00000000000E+00  0.15763014788E+04  0.15763014788E+04  0.00000000000E+00 0.  1.
          1   -1    0    0  501    0  0.00000000000E+00 -0.00000000000E+00 -0.24842227098E+04  0.24842227098E+04  0.00000000000E+00 0. -1.
         23    2    1    2    0    0  0.44225300164E+03 -0.17976007722E+04  0.12437072298E+03  0.18576931936E+04  0.92734411733E+02 0.  0.
    5000000    2    1    2    0    0 -0.44225300164E+03  0.17976007722E+04 -0.10322919539E+04  0.22028309950E+04  0.59990120917E+03 0.  0.
         23    2    4    4    0    0 -0.36894265298E+03  0.53120015652E+03 -0.51027544318E+03  0.82822638828E+03  0.85355930422E+02 0.  0.
         23    2    4    4    0    0 -0.73310348663E+02  0.12664006157E+04 -0.52201651074E+03  0.13746046067E+04  0.88835019725E+02 0.  0.
          1    1    3    3  502    0  0.34890279376E+03 -0.12513766010E+04  0.72507731085E+02  0.13011279445E+04  0.00000000000E+00 0. -1.
         -1    1    3    3    0  502  0.93350207883E+02 -0.54622417124E+03  0.51862991895E+02  0.55656524909E+03  0.00000000000E+00 0.  1.
         15    1    5    5    0    0 -0.14245935198E+03  0.24291674711E+03 -0.26826819755E+03  0.38893983666E+03  0.17770000000E+01 0.  1.
        -15    1    5    5    0    0 -0.22648330099E+03  0.28828340941E+03 -0.24200724564E+03  0.43928655162E+03  0.17770000000E+01 0. -1.
          2    1    6    6  503    0 -0.71279813610E+02  0.67944964268E+03 -0.31395462354E+03  0.75186443885E+03  0.00000000000E+00 0. -1.
         -2    1    6    6    0  503 -0.20305350531E+01  0.58695097302E+03 -0.20806188720E+03  0.62274016789E+03  0.00000000000E+00 0.  1.
<mgrwt>
<rscale>  0 0.18858047E+04</rscale>
<asrwt>0</asrwt>
<pdfrwt beam="1">  1        1 0.38218811E+00 0.18858047E+04</pdfrwt>
<pdfrwt beam="2">  1       -1 0.24250792E+00 0.18858047E+04</pdfrwt>
<totfact> 0.97876309E-02</totfact>
</mgrwt>
</event>
<event>
12    1  0.1002430E-007  0.6518047E+03  0.7818608E-02  0.9803399E-01
         -2   -1    0    0    0  501 -0.00000000000E+00  0.00000000000E+00  0.39857897209E+03  0.39857897209E+03  0.00000000000E+00 0.  1.
          2   -1    0    0  501    0  0.00000000000E+00 -0.00000000000E+00 -0.10746806292E+04  0.10746806292E+04  0.00000000000E+00 0. -1.
         23    2    1    2    0    0 -0.30021190720E+03 -0.41400956084E+03 -0.28883826771E+03  0.59485452135E+03  0.94304034799E+02 0.  0.
    5000000    2    1    2    0    0  0.30021190720E+03  0.41400956084E+03 -0.38726338938E+03  0.87840507992E+03  0.60007620015E+03 0.  0.
         23    2    4    4    0    0  0.45097350934E+03  0.18097014487E+03 -0.20678525835E+03  0.53479956004E+03  0.84398618968E+02 0.  0.
         23    2    4    4    0    0 -0.15076160214E+03  0.23303941597E+03 -0.18047813103E+03  0.34360551988E+03  0.91956334415E+02 0.  0.
          3    1    3    3  502    0 -0.84551674248E+02 -0.19304210982E+03 -0.10427423366E+03  0.23513263829E+03  0.00000000000E+00 0. -1.
         -3    1    3    3    0  502 -0.21566023295E+03 -0.22096745102E+03 -0.18456403405E+03  0.35972188306E+03  0.00000000000E+00 0.  1.
         15    1    5    5    0    0  0.27003777856E+03  0.68287311111E+02 -0.96418093425E+02  0.29475950396E+03  0.17770000000E+01 0. -1.
        -15    1    5    5    0    0  0.18093573079E+03  0.11268283376E+03 -0.11036716493E+03  0.24004005608E+03  0.17770000000E+01 0.  1.
          1    1    6    6  503    0 -0.12846140664E+03  0.11548563146E+03 -0.10649068231E+03  0.20292739955E+03  0.00000000000E+00 0. -1.
         -1    1    6    6    0  503 -0.22300195499E+02  0.11755378451E+03 -0.73987448716E+02  0.14067812033E+03  0.00000000000E+00 0.  1.
<mgrwt>
<rscale>  0 0.65180469E+03</rscale>
<asrwt>0</asrwt>
<pdfrwt beam="1">  1        2 0.16533548E+00 0.65180469E+03</pdfrwt>
<pdfrwt beam="2">  1       -2 0.61319842E-01 0.65180469E+03</pdfrwt>
<totfact> 0.57281226E+01</totfact>
</mgrwt>
</event>
<event>
12    1  0.8033771E-008  0.4966283E+03  0.7818608E-02  0.1014663E+00
         -1   -1    0    0    0  501 -0.00000000000E+00  0.00000000000E+00  0.26314170698E+03  0.26314170698E+03  0.00000000000E+00 0.  1.
          1   -1    0    0  501    0  0.00000000000E+00 -0.00000000000E+00 -0.11387633662E+04  0.11387633662E+04  0.00000000000E+00 0. -1.
         23    2    1    2    0    0 -0.25962608931E+03 -0.17227046289E+03 -0.41117483403E+02  0.32782998221E+03  0.93268596841E+02 0.  0.
    5000000    2    1    2    0    0  0.25962608931E+03  0.17227046289E+03 -0.83450417580E+03  0.10740750909E+04  0.60013103814E+03 0.  0.
         23    2    4    4    0    0  0.38687553730E+03  0.27757173696E+03 -0.55614435663E+03  0.73807003333E+03  0.93445589329E+02 0.  0.
         23    2    4    4    0    0 -0.12724944799E+03 -0.10530127407E+03 -0.27835981917E+03  0.33600505762E+03  0.90191072099E+02 0.  0.
          3    1    3    3  502    0 -0.33337861324E+02 -0.59188024878E+02  0.12929206119E+02  0.69150557897E+02  0.00000000000E+00 0. -1.
         -3    1    3    3    0  502 -0.22628822799E+03 -0.11308243801E+03 -0.54046689522E+02  0.25867942431E+03  0.00000000000E+00 0.  1.
         15    1    5    5    0    0  0.24223686055E+03  0.11734905295E+03 -0.31924931940E+03  0.41757967204E+03  0.17770000000E+01 0. -1.
        -15    1    5    5    0    0  0.14463867676E+03  0.16022268401E+03 -0.23689503723E+03  0.32049036129E+03  0.17770000000E+01 0.  1.
          4    1    6    6  503    0  0.65092934576E+01 -0.36185312650E+02 -0.42607830639E+02  0.56277659730E+02  0.00000000000E+00 0.  1.
         -4    1    6    6    0  503 -0.13375874145E+03 -0.69115961419E+02 -0.23575198853E+03  0.27972739789E+03  0.00000000000E+00 0. -1.
<mgrwt>
<rscale>  0 0.49662828E+03</rscale>
<asrwt>0</asrwt>
<pdfrwt beam="1">  1        1 0.17519436E+00 0.49662828E+03</pdfrwt>
<pdfrwt beam="2">  1       -1 0.40483340E-01 0.49662828E+03</pdfrwt>
<totfact> 0.74321552E+01</totfact>
</mgrwt>
</event>
<event>
12    1  0.8033771E-008  0.8008044E+03  0.7818608E-02  0.9558854E-01
          2   -1    0    0  501    0  0.00000000000E+00  0.00000000000E+00  0.74410575613E+03  0.74410575613E+03  0.00000000000E+00 0. -1.
         -2   -1    0    0    0  501 -0.00000000000E+00 -0.00000000000E+00 -0.95750716678E+03  0.95750716678E+03  0.00000000000E+00 0.  1.
         23    2    1    2    0    0 -0.47801396533E+03 -0.50342105838E+03  0.14729512846E+03  0.71574746264E+03  0.93104577388E+02 0.  0.
    5000000    2    1    2    0    0  0.47801396533E+03  0.50342105838E+03 -0.36069653910E+03  0.98586546027E+03  0.59991549352E+03 0.  0.
         23    2    4    4    0    0  0.17177944646E+03  0.55845412677E+03 -0.26436916346E+03  0.64784643520E+03  0.91840944474E+02 0.  0.
         23    2    4    4    0    0  0.30623451888E+03 -0.55033068393E+02 -0.96327375644E+02  0.33801902507E+03  0.90386275743E+02 0.  0.
          2    1    3    3  502    0 -0.40029314331E+03 -0.41812035054E+03  0.86362106159E+02  0.58525006749E+03  0.00000000000E+00 0. -1.
         -2    1    3    3    0  502 -0.77720822026E+02 -0.85300707836E+02  0.60933022297E+02  0.13049739515E+03  0.00000000000E+00 0.  1.
         15    1    5    5    0    0  0.21764442521E+02  0.56733608515E+02 -0.60863861159E+02  0.86023023764E+02  0.17770000000E+01 0. -1.
        -15    1    5    5    0    0  0.15001500394E+03  0.50172051826E+03 -0.20350530230E+03  0.56182341144E+03  0.17770000000E+01 0.  1.
          2    1    6    6  503    0  0.18795112491E+03  0.94478683105E+01 -0.69791900461E+02  0.20071322064E+03  0.00000000000E+00 0.  1.
         -2    1    6    6    0  503  0.11828339396E+03 -0.64480936704E+02 -0.26535475183E+02  0.13730580443E+03  0.00000000000E+00 0. -1.
<mgrwt>
<rscale>  0 0.80080440E+03</rscale>
<asrwt>0</asrwt>
<pdfrwt beam="1">  1        2 0.11447781E+00 0.80080440E+03</pdfrwt>
<pdfrwt beam="2">  1       -2 0.14730879E+00 0.80080440E+03</pdfrwt>
<totfact> 0.12029329E+01</totfact>
</mgrwt>
</event>
<event>
12    1  0.8033771E-008  0.8304975E+03  0.7818608E-02  0.9516893E-01
         -1   -1    0    0    0  501 -0.00000000000E+00  0.00000000000E+00  0.16712129958E+04  0.16712129958E+04  0.00000000000E+00 0.  1.
          1   -1    0    0  501    0  0.00000000000E+00 -0.00000000000E+00 -0.58485324802E+03  0.58485324802E+03  0.00000000000E+00 0. -1.
         23    2    1    2    0    0 -0.76461501877E+03  0.31931610027E+03  0.87992174879E+03  0.12122571079E+04  0.93306552477E+02 0.  0.
    5000000    2    1    2    0    0  0.76461501877E+03 -0.31931610027E+03  0.20643799897E+03  0.10438091359E+04  0.60026824506E+03 0.  0.
         23    2    4    4    0    0  0.58329381708E+03 -0.25178346061E+03 -0.12151742317E+03  0.65298940721E+03  0.89454422517E+02 0.  0.
         23    2    4    4    0    0  0.18132120169E+03 -0.67532639655E+02  0.32795542214E+03  0.39081972873E+03  0.88018554031E+02 0.  0.
          1    1    3    3  502    0 -0.17687691242E+03  0.85674226342E+02  0.26687669329E+03  0.33143428403E+03  0.00000000000E+00 0. -1.
         -1    1    3    3    0  502 -0.58773810635E+03  0.23364187393E+03  0.61304505550E+03  0.88082282383E+03  0.00000000000E+00 0.  1.
         15    1    5    5    0    0  0.17248610386E+03 -0.87281865252E+02 -0.77522088362E+02  0.20828444959E+03  0.17770000000E+01 0. -1.
        -15    1    5    5    0    0  0.41080771322E+03 -0.16450159536E+03 -0.43995334808E+02  0.44470495762E+03  0.17770000000E+01 0.  1.
          2    1    6    6  503    0  0.11827493262E+03 -0.27402016037E+02  0.12371606342E+03  0.17333636236E+03  0.00000000000E+00 0.  1.
         -2    1    6    6    0  503  0.63046269066E+02 -0.40130623619E+02  0.20423935872E+03  0.21748336637E+03  0.00000000000E+00 0. -1.
<mgrwt>
<rscale>  0 0.83049747E+03</rscale>
<asrwt>0</asrwt>
<pdfrwt beam="1">  1        1 0.89977424E-01 0.83049747E+03</pdfrwt>
<pdfrwt beam="2">  1       -1 0.25710969E+00 0.83049747E+03</pdfrwt>
<totfact> 0.22987897E+00</totfact>
</mgrwt>
</event>
<event>
12    1  0.8033771E-008  0.6404174E+03  0.7818608E-02  0.9824928E-01
         -1   -1    0    0    0  501 -0.00000000000E+00  0.00000000000E+00  0.97698871187E+03  0.97698871187E+03  0.00000000000E+00 0.  1.
          1   -1    0    0  501    0  0.00000000000E+00 -0.00000000000E+00 -0.56311560438E+03  0.56311560438E+03  0.00000000000E+00 0. -1.
         23    2    1    2    0    0 -0.34292414760E+02  0.58415827922E+03  0.37516898116E+03  0.70111707912E+03  0.91632577883E+02 0.  0.
    5000000    2    1    2    0    0  0.34292414760E+02 -0.58415827922E+03  0.38704126341E+02  0.83898723713E+03  0.59998725802E+03 0.  0.
         23    2    4    4    0    0  0.16156971323E+03 -0.45369076396E+03 -0.19673574825E+03  0.52759591160E+03  0.87820326588E+02 0.  0.
         23    2    4    4    0    0 -0.12727729847E+03 -0.13046751526E+03  0.23543987459E+03  0.31139132553E+03  0.91166549932E+02 0.  0.
          3    1    3    3  502    0  0.15378308296E+02  0.30028866560E+03  0.15385425086E+03  0.33775864987E+03  0.00000000000E+00 0. -1.
         -3    1    3    3    0  502 -0.49670723056E+02  0.28386961362E+03  0.22131473030E+03  0.36335842926E+03  0.00000000000E+00 0.  1.
         15    1    5    5    0    0  0.12399436619E+03 -0.42105600782E+03 -0.18560889243E+03  0.47656750125E+03  0.17770000000E+01 0. -1.
        -15    1    5    5    0    0  0.37575347041E+02 -0.32634756140E+02 -0.11126855817E+02  0.51028410351E+02  0.17770000000E+01 0.  1.
          3    1    6    6  503    0 -0.14106862736E+03 -0.12470242114E+03  0.21148555992E+03  0.28315577606E+03  0.00000000000E+00 0. -1.
         -3    1    6    6    0  503  0.13791328886E+02 -0.57650941194E+01  0.23954314668E+02  0.28235549470E+02  0.00000000000E+00 0.  1.
<mgrwt>
<rscale>  0 0.64041737E+03</rscale>
<asrwt>0</asrwt>
<pdfrwt beam="1">  1        1 0.86633170E-01 0.64041737E+03</pdfrwt>
<pdfrwt beam="2">  1       -1 0.15030595E+00 0.64041737E+03</pdfrwt>
<totfact> 0.13579802E+01</totfact>
</mgrwt>
</event>
<event>
12    1  0.8033771E-008  0.1342276E+04  0.7818608E-02  0.8996696E-01
          1   -1    0    0  501    0  0.00000000000E+00  0.00000000000E+00  0.21219436044E+04  0.21219436044E+04  0.00000000000E+00 0. -1.
         -1   -1    0    0    0  501 -0.00000000000E+00 -0.00000000000E+00 -0.89069859353E+03  0.89069859353E+03  0.00000000000E+00 0.  1.
         23    2    1    2    0    0  0.80172949221E+03 -0.99736436423E+03  0.29150326521E+03  0.13155990790E+04  0.91219127734E+02 0.  0.
    5000000    2    1    2    0    0 -0.80172949221E+03  0.99736436423E+03  0.93974174564E+03  0.16970431189E+04  0.59944553159E+03 0.  0.
         23    2    4    4    0    0 -0.28464045987E+03  0.18479582080E+02  0.16186125581E+03  0.34090683323E+03  0.93041477082E+02 0.  0.
         23    2    4    4    0    0 -0.51708903233E+03  0.97888478215E+03  0.77788048983E+03  0.13561362857E+04  0.91711966991E+02 0.  0.
          3    1    3    3  502    0  0.19808408128E+03 -0.22160576465E+03  0.31845891099E+02  0.29893239865E+03  0.00000000000E+00 0. -1.
         -3    1    3    3    0  502  0.60364541093E+03 -0.77575859958E+03  0.25965737411E+03  0.10166666803E+04  0.00000000000E+00 0.  1.
         15    1    5    5    0    0 -0.57463307889E+02  0.38570212335E+02  0.19013217433E+02  0.71793824242E+02  0.17770000000E+01 0.  1.
        -15    1    5    5    0    0 -0.22717715199E+03 -0.20090630256E+02  0.14284803837E+03  0.26911300898E+03  0.17770000000E+01 0. -1.
          2    1    6    6  503    0 -0.44506551710E+03  0.84452983215E+03  0.70755639686E+03  0.11882550259E+04  0.00000000000E+00 0. -1.
         -2    1    6    6    0  503 -0.72023515233E+02  0.13435495000E+03  0.70324092972E+02  0.16788125979E+03  0.00000000000E+00 0.  1.
<mgrwt>
<rscale>  0 0.13422758E+04</rscale>
<asrwt>0</asrwt>
<pdfrwt beam="1">  1        1 0.32645286E+00 0.13422758E+04</pdfrwt>
<pdfrwt beam="2">  1       -1 0.13703055E+00 0.13422758E+04</pdfrwt>
<totfact> 0.10560062E+00</totfact>
</mgrwt>
</event>
<event>
12    1  0.8033771E-008  0.6818989E+03  0.7818608E-02  0.9748698E-01
          1   -1    0    0  501    0  0.00000000000E+00  0.00000000000E+00  0.49588208769E+03  0.49588208769E+03  0.00000000000E+00 0. -1.
         -1   -1    0    0    0  501 -0.00000000000E+00 -0.00000000000E+00 -0.13115564553E+04  0.13115564553E+04  0.00000000000E+00 0.  1.
         23    2    1    2    0    0  0.58719266531E+02  0.64231774355E+03 -0.62776915496E+03  0.90660787308E+03  0.10873678159E+03 0.  0.
    5000000    2    1    2    0    0 -0.58719266531E+02 -0.64231774355E+03 -0.18790521261E+03  0.90083066987E+03  0.60013955953E+03 0.  0.
         23    2    4    4    0    0 -0.16723424536E+03 -0.34628469084E+03  0.15665518647E+03  0.42513946068E+03  0.91226825286E+02 0.  0.
         23    2    4    4    0    0  0.10851497883E+03 -0.29603305271E+03 -0.34456039908E+03  0.47569120919E+03  0.90272858365E+02 0.  0.
          1    1    3    3  502    0  0.18134575452E-01  0.11155157293E+03 -0.16956251180E+03  0.20296600493E+03  0.00000000000E+00 0. -1.
         -1    1    3    3    0  502  0.58701131955E+02  0.53076617062E+03 -0.45820664316E+03  0.70364186815E+03  0.00000000000E+00 0.  1.
         15    1    5    5    0    0 -0.17345466818E+03 -0.31017662316E+03  0.12513058095E+03  0.37677165430E+03  0.17770000000E+01 0.  1.
        -15    1    5    5    0    0  0.62204228237E+01 -0.36108067680E+02  0.31524605522E+02  0.48367806380E+02  0.17770000000E+01 0. -1.
          3    1    6    6  503    0  0.45859107594E+02 -0.23236646902E+03 -0.22719418838E+03  0.32819877042E+03  0.00000000000E+00 0. -1.
         -3    1    6    6    0  503  0.62655871235E+02 -0.63666583695E+02 -0.11736621069E+03  0.14749243876E+03  0.00000000000E+00 0.  1.
<mgrwt>
<rscale>  0 0.68189893E+03</rscale>
<asrwt>0</asrwt>
<pdfrwt beam="1">  1        1 0.76289553E-01 0.68189893E+03</pdfrwt>
<pdfrwt beam="2">  1       -1 0.20177791E+00 0.68189893E+03</pdfrwt>
<totfact> 0.68494156E+00</totfact>
</mgrwt>
</event>
<event>
12    1  0.8033771E-008  0.1377828E+04  0.7818608E-02  0.8970026E-01
         -1   -1    0    0    0  501 -0.00000000000E+00  0.00000000000E+00  0.87352635236E+03  0.87352635236E+03  0.00000000000E+00 0.  1.
          1   -1    0    0  501    0  0.00000000000E+00 -0.00000000000E+00 -0.23219011321E+04  0.23219011321E+04  0.00000000000E+00 0. -1.
         23    2    1    2    0    0 -0.82954242125E+03  0.10684153362E+04 -0.54123353712E+03  0.14597246339E+04  0.90610737258E+02 0.  0.
    5000000    2    1    2    0    0  0.82954242125E+03 -0.10684153362E+04 -0.90714124259E+03  0.17357028506E+04  0.60008932016E+03 0.  0.
         23    2    4    4    0    0  0.23290811774E+03 -0.59534930813E+03 -0.15759974047E+03  0.66337505586E+03  0.80881373307E+02 0.  0.
         23    2    4    4    0    0  0.59663430351E+03 -0.47306602809E+03 -0.74954150212E+03  0.10723277947E+04  0.91161816829E+02 0.  0.
          4    1    3    3  502    0 -0.23379002681E+03  0.31744291763E+03 -0.20122448145E+03  0.44262746698E+03  0.00000000000E+00 0. -1.
         -4    1    3    3    0  502 -0.59575239444E+03  0.75097241858E+03 -0.34000905567E+03  0.10170971669E+04  0.00000000000E+00 0.  1.
         15    1    5    5    0    0  0.34807698236E+02 -0.11003912910E+03  0.19506832278E+01  0.11544327042E+03  0.17770000000E+01 0.  1.
        -15    1    5    5    0    0  0.19810041950E+03 -0.48531017902E+03 -0.15955042369E+03  0.54793178544E+03  0.17770000000E+01 0. -1.
          1    1    6    6  503    0  0.14269140575E+03 -0.14254118329E+03 -0.24585921885E+03  0.31800248694E+03  0.00000000000E+00 0. -1.
         -1    1    6    6    0  503  0.45394289776E+03 -0.33052484479E+03 -0.50368228327E+03  0.75432530776E+03  0.00000000000E+00 0.  1.
<mgrwt>
<rscale>  0 0.13778279E+04</rscale>
<asrwt>0</asrwt>
<pdfrwt beam="1">  1        1 0.35721555E+00 0.13778279E+04</pdfrwt>
<pdfrwt beam="2">  1       -1 0.13438867E+00 0.13778279E+04</pdfrwt>
<totfact> 0.80815515E-01</totfact>
</mgrwt>
</event>
<event>
12    1  0.8033771E-008  0.4709539E+03  0.7818608E-02  0.1021651E+00
          1   -1    0    0  501    0  0.00000000000E+00  0.00000000000E+00  0.97224574882E+03  0.97224574882E+03  0.00000000000E+00 0. -1.
         -1   -1    0    0    0  501 -0.00000000000E+00 -0.00000000000E+00 -0.83606832071E+03  0.83606832071E+03  0.00000000000E+00 0.  1.
         23    2    1    2    0    0 -0.39535278087E+03 -0.22773988434E+03 -0.59753845267E+03  0.75642444313E+03  0.83405392416E+02 0.  0.
    5000000    2    1    2    0    0  0.39535278087E+03  0.22773988434E+03  0.73371588078E+03  0.10518896264E+04  0.59996959604E+03 0.  0.
         23    2    4    4    0    0  0.25241657668E+03  0.90333029512E+02  0.78138923635E+03  0.83097997022E+03  0.89913223824E+02 0.  0.
         23    2    4    4    0    0  0.14293620419E+03  0.13740685483E+03 -0.47673355570E+02  0.22090965619E+03  0.84952487573E+02 0.  0.
          2    1    3    3  502    0 -0.25965142766E+03 -0.11347928110E+03 -0.32441232743E+03  0.43074327541E+03  0.00000000000E+00 0. -1.
         -2    1    3    3    0  502 -0.13570135320E+03 -0.11426060324E+03 -0.27312612524E+03  0.32568116772E+03  0.00000000000E+00 0.  1.
         15    1    5    5    0    0  0.11389314857E+03  0.84023091682E+02  0.45025691740E+03  0.47198090918E+03  0.17770000000E+01 0. -1.
        -15    1    5    5    0    0  0.13852342811E+03  0.63099378294E+01  0.33113231894E+03  0.35899906104E+03  0.17770000000E+01 0.  1.
          1    1    6    6  503    0  0.53889854027E+02  0.30999986891E+02 -0.53523686443E+02  0.82035971164E+02  0.00000000000E+00 0. -1.
         -1    1    6    6    0  503  0.89046350162E+02  0.10640686794E+03  0.58503308735E+01  0.13887368503E+03  0.00000000000E+00 0.  1.
<mgrwt>
<rscale>  0 0.47095394E+03</rscale>
<asrwt>0</asrwt>
<pdfrwt beam="1">  1        1 0.14957627E+00 0.47095394E+03</pdfrwt>
<pdfrwt beam="2">  1       -1 0.12862590E+00 0.47095394E+03</pdfrwt>
<totfact> 0.90022090E+00</totfact>
</mgrwt>
</event>
<event>
12    1  0.8033771E-008  0.8407003E+03  0.7818608E-02  0.9502904E-01
         -2   -1    0    0    0  501 -0.00000000000E+00  0.00000000000E+00  0.46323466503E+03  0.46323466503E+03  0.00000000000E+00 0.  1.
          2   -1    0    0  501    0  0.00000000000E+00 -0.00000000000E+00 -0.22001174346E+04  0.22001174346E+04  0.00000000000E+00 0. -1.
         23    2    1    2    0    0 -0.60650917603E+03  0.50287629730E+03 -0.14141685818E+04  0.16216412772E+04  0.95444765068E+02 0.  0.
    5000000    2    1    2    0    0  0.60650917603E+03 -0.50287629730E+03 -0.32271418773E+03  0.10417108224E+04  0.60023248791E+03 0.  0.
         23    2    4    4    0    0  0.47017220579E+03 -0.12899356246E+03 -0.38657856388E+03  0.62851496495E+03  0.88807842351E+02 0.  0.
         23    2    4    4    0    0  0.13633697024E+03 -0.37388273484E+03  0.63864376143E+02  0.41319585745E+03  0.90973013606E+02 0.  0.
          1    1    3    3  502    0 -0.20464684785E+03  0.22867562740E+03 -0.56717746645E+03  0.64487452528E+03  0.00000000000E+00 0. -1.
         -1    1    3    3    0  502 -0.40186232819E+03  0.27420066989E+03 -0.84699111538E+03  0.97676675195E+03  0.00000000000E+00 0.  1.
         15    1    5    5    0    0  0.39628160457E+03 -0.92962044009E+02 -0.35608863457E+03  0.54081727520E+03  0.17770000000E+01 0.  1.
        -15    1    5    5    0    0  0.73890601222E+02 -0.36031518448E+02 -0.30489929302E+02  0.87697689755E+02  0.17770000000E+01 0. -1.
          4    1    6    6  503    0  0.11160226356E+03 -0.33030361354E+03  0.24562349169E+02  0.34951230500E+03  0.00000000000E+00 0.  1.
         -4    1    6    6    0  503  0.24734706681E+02 -0.43579121296E+02  0.39302026973E+02  0.63683552443E+02  0.00000000000E+00 0. -1.
<mgrwt>
<rscale>  0 0.84070028E+03</rscale>
<asrwt>0</asrwt>
<pdfrwt beam="1">  1        2 0.33847960E+00 0.84070028E+03</pdfrwt>
<pdfrwt beam="2">  1       -2 0.71266873E-01 0.84070028E+03</pdfrwt>
<totfact> 0.94722971E+00</totfact>
</mgrwt>
</event>
<event>
12    1  0.8033771E-008  0.5595397E+03  0.7818608E-02  0.9993097E-01
         -2   -1    0    0    0  501 -0.00000000000E+00  0.00000000000E+00  0.93404696281E+03  0.93404696281E+03  0.00000000000E+00 0.  1.
          2   -1    0    0  501    0  0.00000000000E+00 -0.00000000000E+00 -0.48865304316E+03  0.48865304316E+03  0.00000000000E+00 0. -1.
         23    2    1    2    0    0  0.48607643252E+03  0.14523038447E+03 -0.81706282473E+01  0.51546749710E+03  0.90982517936E+02 0.  0.
    5000000    2    1    2    0    0 -0.48607643252E+03 -0.14523038447E+03  0.45356454789E+03  0.90723250887E+03  0.59998988593E+03 0.  0.
         23    2    4    4    0    0 -0.36839004665E+03 -0.24685004243E+03  0.54235700773E+03  0.70639947483E+03  0.90569996603E+02 0.  0.
         23    2    4    4    0    0 -0.11768638588E+03  0.10161965796E+03 -0.88792459843E+02  0.20083303404E+03  0.90956947687E+02 0.  0.
          2    1    3    3  502    0  0.21065046489E+03  0.72249491646E+02 -0.47872961398E+02  0.22778373040E+03  0.00000000000E+00 0. -1.
         -2    1    3    3    0  502  0.27542596764E+03  0.72980892825E+02  0.39702333151E+02  0.28768376670E+03  0.00000000000E+00 0.  1.
         15    1    5    5    0    0 -0.35685648522E+03 -0.21530999035E+03  0.48116346361E+03  0.63657393869E+03  0.17770000000E+01 0. -1.
        -15    1    5    5    0    0 -0.11533561428E+02 -0.31540052084E+02  0.61193544128E+02  0.69825536135E+02  0.17770000000E+01 0.  1.
          3    1    6    6  503    0 -0.98894671528E+02  0.60767872458E+02 -0.10140683017E+03  0.15413057966E+03  0.00000000000E+00 0. -1.
         -3    1    6    6    0  503 -0.18791714350E+02  0.40851785501E+02  0.12614370329E+02  0.46702454385E+02  0.00000000000E+00 0.  1.
<mgrwt>
<rscale>  0 0.55953967E+03</rscale>
<asrwt>0</asrwt>
<pdfrwt beam="1">  1        2 0.75177391E-01 0.55953967E+03</pdfrwt>
<pdfrwt beam="2">  1       -2 0.14369953E+00 0.55953967E+03</pdfrwt>
<totfact> 0.21902277E+01</totfact>
</mgrwt>
</event>
<event>
12    1  0.8033771E-008  0.1776994E+04  0.7818608E-02  0.8718630E-01
          1   -1    0    0  501    0  0.00000000000E+00  0.00000000000E+00  0.25196446655E+04  0.25196446655E+04  0.00000000000E+00 0. -1.
         -1   -1    0    0    0  501 -0.00000000000E+00 -0.00000000000E+00 -0.14309922891E+04  0.14309922891E+04  0.00000000000E+00 0.  1.
         23    2    1    2    0    0  0.12089235808E+04  0.12679481289E+04 -0.88183062460E+02  0.17565455567E+04  0.92126860135E+02 0.  0.
    5000000    2    1    2    0    0 -0.12089235808E+04 -0.12679481289E+04  0.11768354389E+04  0.21940913979E+04  0.59992227020E+03 0.  0.
         23    2    4    4    0    0 -0.24174584445E+03 -0.51359861669E+03  0.15541311181E+03  0.59564231245E+03  0.91716610737E+02 0.  0.
         23    2    4    4    0    0 -0.96717773637E+03 -0.75434951222E+03  0.10214223271E+04  0.15984490855E+04  0.85205329730E+02 0.  0.
          4    1    3    3  502    0  0.79456631487E+03  0.77611829257E+03 -0.35554763838E+02  0.11112872599E+04  0.00000000000E+00 0. -1.
         -4    1    3    3    0  502  0.41435726595E+03  0.49182983635E+03 -0.52628298622E+02  0.64525829679E+03  0.00000000000E+00 0.  1.
         15    1    5    5    0    0 -0.20367881529E+03 -0.47859500633E+03  0.15865890358E+03  0.54379595925E+03  0.17770000000E+01 0. -1.
        -15    1    5    5    0    0 -0.38067029157E+02 -0.35003610356E+02 -0.32457917650E+01  0.51846353198E+02  0.17770000000E+01 0.  1.
          4    1    6    6  503    0 -0.74177607883E+03 -0.61238529720E+03  0.76965102520E+03  0.12319132291E+04  0.00000000000E+00 0. -1.
         -4    1    6    6    0  503 -0.22540165754E+03 -0.14196421502E+03  0.25177130192E+03  0.36653585641E+03  0.00000000000E+00 0.  1.
<mgrwt>
<rscale>  0 0.17769940E+04</rscale>
<asrwt>0</asrwt>
<pdfrwt beam="1">  1        1 0.38763764E+00 0.17769940E+04</pdfrwt>
<pdfrwt beam="2">  1       -1 0.22015266E+00 0.17769940E+04</pdfrwt>
<totfact> 0.13183143E-01</totfact>
</mgrwt>
</event>
<event>
12    1  0.8033771E-008  0.4013493E+03  0.7818608E-02  0.1043313E+00
         -2   -1    0    0    0  501 -0.00000000000E+00  0.00000000000E+00  0.18596988995E+03  0.18596988995E+03  0.00000000000E+00 0.  1.
          2   -1    0    0  501    0  0.00000000000E+00 -0.00000000000E+00 -0.15143526706E+04  0.15143526706E+04  0.00000000000E+00 0. -1.
         23    2    1    2    0    0  0.70828030524E+02 -0.33525914436E+03 -0.31723179442E+03  0.47557584833E+03  0.90116992539E+02 0.  0.
    5000000    2    1    2    0    0 -0.70828030524E+02  0.33525914436E+03 -0.10111509862E+04  0.12247467122E+04  0.60013572493E+03 0.  0.
         23    2    4    4    0    0 -0.65713812424E+02  0.37096743476E+03 -0.26172165988E+03  0.46878720011E+03  0.96581928666E+02 0.  0.
         23    2    4    4    0    0 -0.51142181006E+01 -0.35708290397E+02 -0.74942932636E+03  0.75595951211E+03  0.92353838626E+02 0.  0.
          3    1    3    3  502    0  0.54373843403E+02 -0.15080104496E+03 -0.95167058772E+02  0.18642488858E+03  0.00000000000E+00 0. -1.
         -3    1    3    3    0  502  0.16454187121E+02 -0.18445809940E+03 -0.22206473565E+03  0.28915095975E+03  0.00000000000E+00 0.  1.
         15    1    5    5    0    0 -0.33781479995E+02  0.30518759219E+03 -0.24724537695E+03  0.39422593645E+03  0.17770000000E+01 0.  1.
        -15    1    5    5    0    0 -0.31932332429E+02  0.65779842564E+02 -0.14476282930E+02  0.74561263660E+02  0.17770000000E+01 0. -1.
          3    1    6    6  503    0 -0.18248551014E+01 -0.56210554132E+02 -0.25650903875E+03  0.26260206292E+03  0.00000000000E+00 0. -1.
         -3    1    6    6    0  503 -0.32893629993E+01  0.20502263735E+02 -0.49292028761E+03  0.49335744918E+03  0.00000000000E+00 0.  1.
<mgrwt>
<rscale>  0 0.40134930E+03</rscale>
<asrwt>0</asrwt>
<pdfrwt beam="1">  1        2 0.23297733E+00 0.40134930E+03</pdfrwt>
<pdfrwt beam="2">  1       -2 0.28610753E-01 0.40134930E+03</pdfrwt>
<totfact> 0.14742003E+02</totfact>
</mgrwt>
</event>
<event>
12    1  0.8033771E-008  0.5770155E+03  0.7818608E-02  0.9954273E-01
          1   -1    0    0  501    0  0.00000000000E+00  0.00000000000E+00  0.18564911637E+04  0.18564911637E+04  0.00000000000E+00 0. -1.
         -1   -1    0    0    0  501 -0.00000000000E+00 -0.00000000000E+00 -0.56190084531E+03  0.56190084531E+03  0.00000000000E+00 0.  1.
         23    2    1    2    0    0  0.20129591764E+02 -0.52650083998E+03 -0.31586743773E+03  0.62084251888E+03  0.89804565911E+02 0.  0.
    5000000    2    1    2    0    0 -0.20129591764E+02  0.52650083998E+03  0.16104577561E+04  0.17975494901E+04  0.60000137519E+03 0.  0.
         23    2    4    4    0    0  0.13147037078E+03  0.37977488651E+03  0.14702085984E+04  0.15268181150E+04  0.90259685486E+02 0.  0.
         23    2    4    4    0    0 -0.15159996254E+03  0.14672595347E+03  0.14024915776E+03  0.27073137511E+03  0.95470399344E+02 0.  0.
          1    1    3    3  502    0 -0.29212284675E+02 -0.30918286593E+03 -0.16438656253E+03  0.35138347158E+03  0.00000000000E+00 0. -1.
         -1    1    3    3    0  502  0.49341876439E+02 -0.21731797406E+03 -0.15148087520E+03  0.26945904730E+03  0.00000000000E+00 0.  1.
         15    1    5    5    0    0  0.25231627623E+02  0.17128370476E+03  0.74209212067E+03  0.76202271346E+03  0.17770000000E+01 0.  1.
        -15    1    5    5    0    0  0.10623874316E+03  0.20849118175E+03  0.72811647770E+03  0.76479540156E+03  0.17770000000E+01 0. -1.
          1    1    6    6  503    0 -0.11576747563E+03  0.12955026903E+03  0.64748377793E+02  0.18541233251E+03  0.00000000000E+00 0. -1.
         -1    1    6    6    0  503 -0.35832486915E+02  0.17175684436E+02  0.75500779965E+02  0.85319042597E+02  0.00000000000E+00 0.  1.
<mgrwt>
<rscale>  0 0.57701550E+03</rscale>
<asrwt>0</asrwt>
<pdfrwt beam="1">  1        1 0.28561402E+00 0.57701550E+03</pdfrwt>
<pdfrwt beam="2">  1       -1 0.86446285E-01 0.57701550E+03</pdfrwt>
<totfact> 0.53331225E+00</totfact>
</mgrwt>
</event>
<event>
12    1  0.8033771E-008  0.1516569E+04  0.7818608E-02  0.8873509E-01
          1   -1    0    0  501    0  0.00000000000E+00  0.00000000000E+00  0.25057030519E+04  0.25057030519E+04  0.00000000000E+00 0. -1.
         -1   -1    0    0    0  501 -0.00000000000E+00 -0.00000000000E+00 -0.94102456610E+03  0.94102456610E+03  0.00000000000E+00 0.  1.
         23    2    1    2    0    0  0.89290097678E+03  0.11582656213E+04  0.97218072597E+03  0.17585548665E+04  0.92349611941E+02 0.  0.
    5000000    2    1    2    0    0 -0.89290097678E+03 -0.11582656213E+04  0.59249775979E+03  0.16881727514E+04  0.60001853260E+03 0.  0.
         23    2    4    4    0    0 -0.78389545993E+02  0.35998343484E+02  0.10009867603E+03  0.15808689373E+03  0.86780869860E+02 0.  0.
         23    2    4    4    0    0 -0.81451143079E+03 -0.11942639648E+04  0.49239908376E+03  0.15300858577E+04  0.94924105121E+02 0.  0.
          4    1    3    3  502    0  0.25773452446E+03  0.40354608851E+03  0.30637167328E+03  0.56845416072E+03  0.00000000000E+00 0.  1.
         -4    1    3    3    0  502  0.63516645232E+03  0.75471953281E+03  0.66580905269E+03  0.11901007058E+04  0.00000000000E+00 0. -1.
         15    1    5    5    0    0 -0.49334951289E+02 -0.24418843199E+02  0.40450109265E+02  0.68334371955E+02  0.17770000000E+01 0.  1.
        -15    1    5    5    0    0 -0.29054594704E+02  0.60417186683E+02  0.59648566761E+02  0.89752521779E+02  0.17770000000E+01 0. -1.
          1    1    6    6  503    0 -0.62596455558E+03 -0.93394252651E+03  0.34176462455E+03  0.11751099209E+04  0.00000000000E+00 0. -1.
         -1    1    6    6    0  503 -0.18854687521E+03 -0.26032143829E+03  0.15063445922E+03  0.35497593677E+03  0.00000000000E+00 0.  1.
<mgrwt>
<rscale>  0 0.15165691E+04</rscale>
<asrwt>0</asrwt>
<pdfrwt beam="1">  1        1 0.38549277E+00 0.15165691E+04</pdfrwt>
<pdfrwt beam="2">  1       -1 0.14477301E+00 0.15165691E+04</pdfrwt>
<totfact> 0.48867898E-01</totfact>
</mgrwt>
</event>
<event>
12    1  0.8033771E-008  0.8171494E+03  0.7818608E-02  0.9535520E-01
          1   -1    0    0  501    0  0.00000000000E+00  0.00000000000E+00  0.43564912862E+03  0.43564912862E+03  0.00000000000E+00 0. -1.
         -1   -1    0    0    0  501 -0.00000000000E+00 -0.00000000000E+00 -0.17000847910E+04  0.17000847910E+04  0.00000000000E+00 0.  1.
         23    2    1    2    0    0  0.21913175322E+03  0.67298321235E+03 -0.87574962369E+03  0.11297658979E+04  0.92241266323E+02 0.  0.
    5000000    2    1    2    0    0 -0.21913175322E+03 -0.67298321235E+03 -0.38868603871E+03  0.10059680218E+04  0.59997474511E+03 0.  0.
         23    2    4    4    0    0 -0.41259308389E+03 -0.45850175749E+03 -0.28296817926E+03  0.68489578155E+03  0.92489602714E+02 0.  0.
         23    2    4    4    0    0  0.19346133066E+03 -0.21448145486E+03 -0.10571785945E+03  0.32107224023E+03  0.92095258834E+02 0.  0.
          4    1    3    3  502    0  0.19246440571E+03  0.52673533557E+03 -0.73968814923E+03  0.92824092740E+03  0.00000000000E+00 0. -1.
         -4    1    3    3    0  502  0.26667347513E+02  0.14624787678E+03 -0.13606147446E+03  0.20152497046E+03  0.00000000000E+00 0.  1.
         15    1    5    5    0    0 -0.16813920405E+03 -0.24477430380E+03 -0.16276597137E+03  0.33864608503E+03  0.17770000000E+01 0.  1.
        -15    1    5    5    0    0 -0.24445387983E+03 -0.21372745370E+03 -0.12020220789E+03  0.34624969652E+03  0.17770000000E+01 0. -1.
          2    1    6    6  503    0  0.61791832016E+02 -0.14080296058E+02 -0.21253623193E+02  0.66844608906E+02  0.00000000000E+00 0. -1.
         -2    1    6    6    0  503  0.13166949865E+03 -0.20040115880E+03 -0.84464236257E+02  0.25422763132E+03  0.00000000000E+00 0.  1.
<mgrwt>
<rscale>  0 0.81714943E+03</rscale>
<asrwt>0</asrwt>
<pdfrwt beam="1">  1        1 0.67022942E-01 0.81714943E+03</pdfrwt>
<pdfrwt beam="2">  1       -1 0.26155151E+00 0.81714943E+03</pdfrwt>
<totfact> 0.32414241E+00</totfact>
</mgrwt>
</event>
<event>
12    1  0.8033771E-008  0.5770763E+03  0.7818608E-02  0.9954141E-01
          1   -1    0    0  501    0  0.00000000000E+00  0.00000000000E+00  0.46806997336E+03  0.46806997336E+03  0.00000000000E+00 0. -1.
         -1   -1    0    0    0  501 -0.00000000000E+00 -0.00000000000E+00 -0.81271763721E+03  0.81271763721E+03  0.00000000000E+00 0.  1.
         23    2    1    2    0    0 -0.46055326565E+03 -0.24474447138E+02 -0.68686415964E+02  0.47530233991E+03  0.92120472904E+02 0.  0.
    5000000    2    1    2    0    0  0.46055326565E+03  0.24474447138E+02 -0.27596124788E+03  0.80548527066E+03  0.59995299971E+03 0.  0.
         23    2    4    4    0    0  0.54860343269E+03  0.88490760937E+02 -0.87408940807E+02  0.56960089273E+03  0.89490295187E+02 0.  0.
         23    2    4    4    0    0 -0.88050167040E+02 -0.64016313799E+02 -0.18855230708E+03  0.23588437794E+03  0.90766441502E+02 0.  0.
          1    1    3    3  502    0 -0.17293791823E+03  0.31638278128E+01 -0.69375733748E+02  0.18636127763E+03  0.00000000000E+00 0. -1.
         -1    1    3    3    0  502 -0.28761534742E+03 -0.27638274951E+02  0.68931778454E+00  0.28894106228E+03  0.00000000000E+00 0.  1.
         15    1    5    5    0    0  0.20013629138E+03  0.18114386177E+02 -0.72972074492E+02  0.21380071912E+03  0.17770000000E+01 0.  1.
        -15    1    5    5    0    0  0.34846714131E+03  0.70376374761E+02 -0.14436866314E+02  0.35580017360E+03  0.17770000000E+01 0. -1.
          3    1    6    6  503    0 -0.44671994388E+02  0.13740930794E+02 -0.99625822477E+02  0.11004410373E+03  0.00000000000E+00 0. -1.
         -3    1    6    6    0  503 -0.43378172653E+02 -0.77757244593E+02 -0.88926484601E+02  0.12584027421E+03  0.00000000000E+00 0.  1.
<mgrwt>
<rscale>  0 0.57707629E+03</rscale>
<asrwt>0</asrwt>
<pdfrwt beam="1">  1        1 0.72010766E-01 0.57707629E+03</pdfrwt>
<pdfrwt beam="2">  1       -1 0.12503348E+00 0.57707629E+03</pdfrwt>
<totfact> 0.28336224E+01</totfact>
</mgrwt>
</event>
<event>
12    1  0.8033771E-008  0.1123693E+04  0.7818608E-02  0.9182402E-01
          2   -1    0    0  501    0  0.00000000000E+00  0.00000000000E+00  0.12039109855E+04  0.12039109855E+04  0.00000000000E+00 0. -1.
         -2   -1    0    0    0  501 -0.00000000000E+00 -0.00000000000E+00 -0.11329540790E+04  0.11329540790E+04  0.00000000000E+00 0.  1.
         23    2    1    2    0    0  0.21364856736E+03 -0.10225389879E+04 -0.27365624327E+03  0.10837886099E+04  0.92077789533E+02 0.  0.
    5000000    2    1    2    0    0 -0.21364856736E+03  0.10225389879E+04  0.34461314972E+03  0.12530764545E+04  0.60017554576E+03 0.  0.
         23    2    4    4    0    0  0.18146405914E+03  0.51366233950E+03  0.15495744310E+03  0.57441969244E+03  0.95749517543E+02 0.  0.
         23    2    4    4    0    0 -0.39511262650E+03  0.50887664844E+03  0.18965570662E+03  0.67865676208E+03  0.97653892515E+02 0.  0.
          1    1    3    3  502    0  0.71990767773E+02 -0.34648241959E+03 -0.47988457477E+02  0.35712130962E+03  0.00000000000E+00 0. -1.
         -1    1    3    3    0  502  0.14165779959E+03 -0.67605656834E+03 -0.22566778579E+03  0.72666730030E+03  0.00000000000E+00 0.  1.
         15    1    5    5    0    0  0.12365957349E+03  0.20971161774E+03  0.59532056514E+02  0.25063494611E+03  0.17770000000E+01 0. -1.
        -15    1    5    5    0    0  0.57804485648E+02  0.30395072176E+03  0.95425386586E+02  0.32378474632E+03  0.17770000000E+01 0.  1.
          2    1    6    6  503    0 -0.13729905420E+03  0.11474498705E+03  0.74461292097E+02  0.19380899452E+03  0.00000000000E+00 0. -1.
         -2    1    6    6    0  503 -0.25781357230E+03  0.39413166139E+03  0.11519441453E+03  0.48484776757E+03  0.00000000000E+00 0.  1.
<mgrwt>
<rscale>  0 0.11236926E+04</rscale>
<asrwt>0</asrwt>
<pdfrwt beam="1">  1        2 0.18521707E+00 0.11236926E+04</pdfrwt>
<pdfrwt beam="2">  1       -2 0.17430063E+00 0.11236926E+04</pdfrwt>
<totfact> 0.36636782E+00</totfact>
</mgrwt>
</event>
<event>
12    1  0.8033771E-008  0.5799090E+03  0.7818608E-02  0.9947988E-01
         -1   -1    0    0    0  501 -0.00000000000E+00  0.00000000000E+00  0.63529219856E+03  0.63529219856E+03  0.00000000000E+00 0.  1.
          1   -1    0    0  501    0  0.00000000000E+00 -0.00000000000E+00 -0.11655959312E+04  0.11655959312E+04  0.00000000000E+00 0. -1.
         23    2    1    2    0    0  0.28600210113E+03 -0.49337523158E+03 -0.74798753861E+03  0.94492153840E+03  0.90415899239E+02 0.  0.
    5000000    2    1    2    0    0 -0.28600210113E+03  0.49337523158E+03  0.21768380601E+03  0.85596659132E+03  0.60006353419E+03 0.  0.
         23    2    4    4    0    0 -0.15181175651E+03  0.21534232161E+03 -0.18858578864E+03  0.33707583669E+03  0.92932207089E+02 0.  0.
         23    2    4    4    0    0 -0.13419034462E+03  0.27803290997E+03  0.40626959465E+03  0.51889075463E+03  0.94251175529E+02 0.  0.
          3    1    3    3  502    0  0.24165892044E+03 -0.41672645808E+03 -0.57133834976E+03  0.74732020219E+03  0.00000000000E+00 0. -1.
         -3    1    3    3    0  502  0.44343180692E+02 -0.76648773499E+02 -0.17664918885E+03  0.19760133621E+03  0.00000000000E+00 0.  1.
         15    1    5    5    0    0 -0.10942435330E+03  0.19084499432E+03 -0.11383870748E+03  0.24770528860E+03  0.17770000000E+01 0.  1.
        -15    1    5    5    0    0 -0.42387403214E+02  0.24497327293E+02 -0.74747081159E+02  0.89370548094E+02  0.17770000000E+01 0. -1.
          4    1    6    6  503    0 -0.79454403356E+02  0.71492651505E+02  0.10763833029E+03  0.15169117173E+03  0.00000000000E+00 0. -1.
         -4    1    6    6    0  503 -0.54735941267E+02  0.20654025846E+03  0.29863126436E+03  0.36719958290E+03  0.00000000000E+00 0.  1.
<mgrwt>
<rscale>  0 0.57990900E+03</rscale>
<asrwt>0</asrwt>
<pdfrwt beam="1">  1        1 0.17932245E+00 0.57990900E+03</pdfrwt>
<pdfrwt beam="2">  1       -1 0.97737262E-01 0.57990900E+03</pdfrwt>
<totfact> 0.12073818E+01</totfact>
</mgrwt>
</event>
<event>
12    1  0.8033771E-008  0.8540646E+03  0.7818608E-02  0.9484898E-01
          2   -1    0    0  501    0  0.00000000000E+00  0.00000000000E+00  0.57874463297E+03  0.57874463297E+03  0.00000000000E+00 0.  1.
         -2   -1    0    0    0  501 -0.00000000000E+00 -0.00000000000E+00 -0.15828695531E+04  0.15828695531E+04  0.00000000000E+00 0. -1.
         23    2    1    2    0    0  0.38896930827E+03  0.72233829643E+03 -0.16101678823E+03  0.84109839342E+03  0.91925861682E+02 0.  0.
    5000000    2    1    2    0    0 -0.38896930827E+03 -0.72233829643E+03 -0.84310813186E+03  0.13205157926E+04  0.59988407151E+03 0.  0.
         23    2    4    4    0    0 -0.10099669351E+03 -0.50080543466E+03 -0.16517713831E+03  0.54606700113E+03  0.99495061297E+02 0.  0.
         23    2    4    4    0    0 -0.28797261476E+03 -0.22153286178E+03 -0.67793099355E+03  0.77444879148E+03  0.90418266417E+02 0.  0.
          1    1    3    3  502    0  0.27954757159E+03  0.59659827305E+03 -0.13041777040E+03  0.67162872112E+03  0.00000000000E+00 0. -1.
         -1    1    3    3    0  502  0.10942173668E+03  0.12574002338E+03 -0.30599017827E+02  0.16946967230E+03  0.00000000000E+00 0.  1.
         15    1    5    5    0    0 -0.11265871883E+03 -0.47188970244E+03 -0.17078699962E+03  0.51433766649E+03  0.17770000000E+01 0.  1.
        -15    1    5    5    0    0  0.11662025317E+02 -0.28915732215E+02  0.56098613118E+01  0.31729334644E+02  0.17770000000E+01 0. -1.
          3    1    6    6  503    0 -0.20920877393E+02 -0.29773320781E+01 -0.92480321158E+02  0.94863888907E+02  0.00000000000E+00 0. -1.
         -3    1    6    6    0  503 -0.26705173737E+03 -0.21855552970E+03 -0.58545067240E+03  0.67958490257E+03  0.00000000000E+00 0.  1.
<mgrwt>
<rscale>  0 0.85406456E+03</rscale>
<asrwt>0</asrwt>
<pdfrwt beam="1">  1        2 0.89037634E-01 0.85406456E+03</pdfrwt>
<pdfrwt beam="2">  1       -2 0.24351840E+00 0.85406456E+03</pdfrwt>
<totfact> 0.37032308E+00</totfact>
</mgrwt>
</event>
<event>
12    1  0.8033771E-008  0.9481228E+03  0.7818608E-02  0.9367347E-01
         -2   -1    0    0    0  501 -0.00000000000E+00  0.00000000000E+00  0.40415914865E+03  0.40415914865E+03  0.00000000000E+00 0. -1.
          2   -1    0    0  501    0  0.00000000000E+00 -0.00000000000E+00 -0.26710431122E+04  0.26710431122E+04  0.00000000000E+00 0.  1.
         23    2    1    2    0    0  0.63022578503E+03  0.70138030406E+03 -0.86952344596E+03  0.12858730060E+04  0.90991722260E+02 0.  0.
    5000000    2    1    2    0    0 -0.63022578503E+03 -0.70138030406E+03 -0.13973605176E+04  0.17893292549E+04  0.59996991178E+03 0.  0.
         23    2    4    4    0    0 -0.28968929903E+03 -0.39467734847E+03 -0.26519557793E+03  0.56459682568E+03  0.93545612643E+02 0.  0.
         23    2    4    4    0    0 -0.34053648599E+03 -0.30670295559E+03 -0.11321649397E+04  0.12247324292E+04  0.90223451203E+02 0.  0.
          2    1    3    3  502    0  0.27654162246E+03  0.28045919113E+03 -0.41912711770E+03  0.57515229951E+03  0.00000000000E+00 0. -1.
         -2    1    3    3    0  502  0.35368416256E+03  0.42092111293E+03 -0.45039632826E+03  0.71072070651E+03  0.00000000000E+00 0.  1.
         15    1    5    5    0    0 -0.10934071621E+03 -0.20593595465E+03 -0.88689014953E+02  0.24946724984E+03  0.17770000000E+01 0.  1.
        -15    1    5    5    0    0 -0.18034858283E+03 -0.18874139382E+03 -0.17650656297E+03  0.31512957584E+03  0.17770000000E+01 0. -1.
          1    1    6    6  503    0 -0.22988724164E+03 -0.20207793346E+03 -0.63772335938E+03  0.70737169732E+03  0.00000000000E+00 0. -1.
         -1    1    6    6    0  503 -0.11064924435E+03 -0.10462502212E+03 -0.49444158031E+03  0.51736073186E+03  0.00000000000E+00 0.  1.
<mgrwt>
<rscale>  0 0.94812284E+03</rscale>
<asrwt>0</asrwt>
<pdfrwt beam="1">  1        2 0.41092971E+00 0.94812284E+03</pdfrwt>
<pdfrwt beam="2">  1       -2 0.62178331E-01 0.94812284E+03</pdfrwt>
<totfact> 0.67811662E+00</totfact>
</mgrwt>
</event>
<event>
12    1  0.8033771E-008  0.7920858E+03  0.7818608E-02  0.9571544E-01
          2   -1    0    0  501    0  0.00000000000E+00  0.00000000000E+00  0.81776919390E+03  0.81776919390E+03  0.00000000000E+00 0. -1.
         -2   -1    0    0    0  501 -0.00000000000E+00 -0.00000000000E+00 -0.17156072427E+04  0.17156072427E+04  0.00000000000E+00 0.  1.
         23    2    1    2    0    0  0.66289220021E+02 -0.69809957419E+03  0.49439657530E+03  0.86307976546E+03  0.93495623981E+02 0.  0.
    5000000    2    1    2    0    0 -0.66289220021E+02  0.69809957419E+03 -0.13922346241E+04  0.16702966711E+04  0.59986368862E+03 0.  0.
         23    2    4    4    0    0 -0.61423429952E+02  0.76220856655E+03 -0.13426461341E+04  0.15480423626E+04  0.94877701998E+02 0.  0.
         23    2    4    4    0    0 -0.48657900685E+01 -0.64108992363E+02 -0.49588489932E+02  0.12225430848E+03  0.91397258131E+02 0.  0.
          1    1    3    3  502    0 -0.70297884764E+01 -0.21076956428E+03  0.18987214520E+03  0.28376867106E+03  0.00000000000E+00 0. -1.
         -1    1    3    3    0  502  0.73319008497E+02 -0.48733000991E+03  0.30452443010E+03  0.57931109440E+03  0.00000000000E+00 0.  1.
         15    1    5    5    0    0 -0.59908669449E+02  0.21177065373E+03 -0.37969460864E+03  0.43887015394E+03  0.17770000000E+01 0. -1.
        -15    1    5    5    0    0 -0.15147605031E+01  0.55043791282E+03 -0.96295152550E+03  0.11091722087E+04  0.17770000000E+01 0.  1.
          1    1    6    6  503    0 -0.43750640065E+02 -0.54492534598E+02 -0.41856098371E+02  0.81458503569E+02  0.00000000000E+00 0. -1.
         -1    1    6    6    0  503  0.38884849996E+02 -0.96164577654E+01 -0.77323915614E+01  0.40795804912E+02  0.00000000000E+00 0.  1.
<mgrwt>
<rscale>  0 0.79208581E+03</rscale>
<asrwt>0</asrwt>
<pdfrwt beam="1">  1        2 0.12581065E+00 0.79208581E+03</pdfrwt>
<pdfrwt beam="2">  1       -2 0.26393957E+00 0.79208581E+03</pdfrwt>
<totfact> 0.18152784E+00</totfact>
</mgrwt>
</event>
<event>
12    1  0.8033771E-008  0.9702411E+03  0.7818608E-02  0.9341800E-01
          2   -1    0    0  501    0  0.00000000000E+00  0.00000000000E+00  0.16022985263E+04  0.16022985263E+04  0.00000000000E+00 0. -1.
         -2   -1    0    0    0  501 -0.00000000000E+00 -0.00000000000E+00 -0.17862037483E+04  0.17862037483E+04  0.00000000000E+00 0.  1.
         23    2    1    2    0    0  0.26640697302E+03 -0.84415760567E+03  0.12902375004E+04  0.15673411102E+04  0.90942891631E+02 0.  0.
    5000000    2    1    2    0    0 -0.26640697302E+03  0.84415760567E+03 -0.14741427224E+04  0.18211611644E+04  0.59996373405E+03 0.  0.
         23    2    4    4    0    0 -0.43356460730E+03  0.70339717455E+03 -0.11056404451E+04  0.13832436307E+04  0.90422862154E+02 0.  0.
         23    2    4    4    0    0  0.16715763428E+03  0.14076043112E+03 -0.36850227728E+03  0.43791753373E+03  0.90678907800E+02 0.  0.
          2    1    3    3  502    0  0.11003427672E+03 -0.28936054088E+03  0.38287945679E+03  0.49237561180E+03  0.00000000000E+00 0. -1.
         -2    1    3    3    0  502  0.15637269630E+03 -0.55479706479E+03  0.90735804366E+03  0.10749654983E+04  0.00000000000E+00 0.  1.
         15    1    5    5    0    0 -0.33251399234E+03  0.54133680781E+03 -0.91006908402E+03  0.11098828722E+04  0.17770000000E+01 0. -1.
        -15    1    5    5    0    0 -0.10105061496E+03  0.16206036674E+03 -0.19557136111E+03  0.27336075847E+03  0.17770000000E+01 0.  1.
          2    1    6    6  503    0  0.86309595787E+02  0.30649138810E+02 -0.93665413656E+02  0.13100353335E+03  0.00000000000E+00 0. -1.
         -2    1    6    6    0  503  0.80848038493E+02  0.11011129231E+03 -0.27483686362E+03  0.30691400038E+03  0.00000000000E+00 0.  1.
<mgrwt>
<rscale>  0 0.97024106E+03</rscale>
<asrwt>0</asrwt>
<pdfrwt beam="1">  1        2 0.24650747E+00 0.97024106E+03</pdfrwt>
<pdfrwt beam="2">  1       -2 0.27480058E+00 0.97024106E+03</pdfrwt>
<totfact> 0.50738585E-01</totfact>
</mgrwt>
</event>
<event>
12    1  0.8033771E-008  0.4229991E+03  0.7818608E-02  0.1036095E+00
          2   -1    0    0  501    0  0.00000000000E+00  0.00000000000E+00  0.31270447983E+03  0.31270447983E+03  0.00000000000E+00 0.  1.
         -2   -1    0    0    0  501 -0.00000000000E+00 -0.00000000000E+00 -0.72126121908E+03  0.72126121908E+03  0.00000000000E+00 0. -1.
         23    2    1    2    0    0 -0.25754552394E+03 -0.10120273320E+03 -0.10195324738E+03  0.30564434745E+03  0.80326286898E+02 0.  0.
    5000000    2    1    2    0    0  0.25754552394E+03  0.10120273320E+03 -0.30660349186E+03  0.72832135147E+03  0.59989549062E+03 0.  0.
         23    2    4    4    0    0  0.27085542445E+03 -0.14237578059E+03  0.64505641273E+01  0.32113445952E+03  0.97222463737E+02 0.  0.
         23    2    4    4    0    0 -0.13309900516E+02  0.24357851379E+03 -0.31305405599E+03  0.40718689195E+03  0.91053155748E+02 0.  0.
          4    1    3    3  502    0 -0.11221507685E+03 -0.83839953683E+02 -0.66436382431E+02  0.15503275207E+03  0.00000000000E+00 0.  1.
         -4    1    3    3    0  502 -0.14533044709E+03 -0.17362779513E+02 -0.35516864953E+02  0.15061159537E+03  0.00000000000E+00 0. -1.
         15    1    5    5    0    0  0.76850607862E+02 -0.59588135396E+02 -0.39960457199E+02  0.10515111829E+03  0.17770000000E+01 0. -1.
        -15    1    5    5    0    0  0.19400481659E+03 -0.82787645199E+02  0.46411021326E+02  0.21598334123E+03  0.17770000000E+01 0.  1.
          2    1    6    6  503    0 -0.20440250229E+02  0.23425982033E+02 -0.83252845957E+02  0.88868536747E+02  0.00000000000E+00 0. -1.
         -2    1    6    6    0  503  0.71303497129E+01  0.22015253176E+03 -0.22980121003E+03  0.31831835520E+03  0.00000000000E+00 0.  1.
<mgrwt>
<rscale>  0 0.42299907E+03</rscale>
<asrwt>0</asrwt>
<pdfrwt beam="1">  1        2 0.48108382E-01 0.42299907E+03</pdfrwt>
<pdfrwt beam="2">  1       -2 0.11096326E+00 0.42299907E+03</pdfrwt>
<totfact> 0.69629786E+01</totfact>
</mgrwt>
</event>
<event>
12    1  0.8033771E-008  0.9837795E+03  0.7818608E-02  0.9326516E-01
         -1   -1    0    0    0  501 -0.00000000000E+00  0.00000000000E+00  0.88303242126E+03  0.88303242126E+03  0.00000000000E+00 0.  1.
          1   -1    0    0  501    0  0.00000000000E+00 -0.00000000000E+00 -0.12342564462E+04  0.12342564462E+04  0.00000000000E+00 0. -1.
         23    2    1    2    0    0 -0.17308389481E+03  0.88500133410E+03 -0.48184414010E+03  0.10263596976E+04  0.89749972299E+02 0.  0.
    5000000    2    1    2    0    0  0.17308389481E+03 -0.88500133410E+03  0.13062011520E+03  0.10909291698E+04  0.59989952745E+03 0.  0.
         23    2    4    4    0    0 -0.90488823931E+02 -0.77052257886E+03  0.84396224678E+02  0.78574075592E+03  0.91501590072E+02 0.  0.
         23    2    4    4    0    0  0.26357271874E+03 -0.11447875525E+03  0.46223890521E+02  0.30518841389E+03  0.91800634251E+02 0.  0.
          2    1    3    3  502    0 -0.10798235742E+03  0.50458556135E+03 -0.22611293720E+03  0.56337717260E+03  0.00000000000E+00 0. -1.
         -2    1    3    3    0  502 -0.65101537394E+02  0.38041577275E+03 -0.25573120291E+03  0.46298252501E+03  0.00000000000E+00 0.  1.
         15    1    5    5    0    0 -0.56730991138E+02 -0.54516667409E+03  0.10067647181E+03  0.55728270887E+03  0.17770000000E+01 0. -1.
        -15    1    5    5    0    0 -0.33757832793E+02 -0.22535590476E+03 -0.16280247130E+02  0.22845804705E+03  0.17770000000E+01 0.  1.
          1    1    6    6  503    0  0.10616971368E+02 -0.13670054720E+02  0.27175890103E+02  0.32219861576E+02  0.00000000000E+00 0. -1.
         -1    1    6    6    0  503  0.25295574737E+03 -0.10080870053E+03  0.19048000418E+02  0.27296855231E+03  0.00000000000E+00 0.  1.
<mgrwt>
<rscale>  0 0.98377947E+03</rscale>
<asrwt>0</asrwt>
<pdfrwt beam="1">  1        1 0.18988561E+00 0.98377947E+03</pdfrwt>
<pdfrwt beam="2">  1       -1 0.13585114E+00 0.98377947E+03</pdfrwt>
<totfact> 0.45976273E+00</totfact>
</mgrwt>
</event>
<event>
12    1  0.8033771E-008  0.1508681E+04  0.7818608E-02  0.8878700E-01
          1   -1    0    0  501    0  0.00000000000E+00  0.00000000000E+00  0.44295927794E+04  0.44295927794E+04  0.00000000000E+00 0. -1.
         -1   -1    0    0    0  501 -0.00000000000E+00 -0.00000000000E+00 -0.61360904739E+03  0.61360904739E+03  0.00000000000E+00 0.  1.
         23    2    1    2    0    0 -0.65379813564E+03 -0.13104836953E+04  0.28035015088E+04  0.31643853280E+04  0.94309471506E+02 0.  0.
    5000000    2    1    2    0    0  0.65379813564E+03  0.13104836953E+04  0.10124822232E+04  0.18788164988E+04  0.60000972159E+03 0.  0.
         23    2    4    4    0    0  0.73688293637E+03  0.11753319362E+04  0.95827504711E+03  0.16888431578E+04  0.97460369358E+02 0.  0.
         23    2    4    4    0    0 -0.83084800729E+02  0.13515175906E+03  0.54207176101E+02  0.18997334096E+03  0.89344111417E+02 0.  0.
          2    1    3    3  502    0 -0.31948951891E+03 -0.61958463844E+03  0.14341836282E+04  0.15946289086E+04  0.00000000000E+00 0. -1.
         -2    1    3    3    0  502 -0.33430861672E+03 -0.69089905686E+03  0.13693178807E+04  0.15697564194E+04  0.00000000000E+00 0.  1.
         15    1    5    5    0    0  0.70339996518E+03  0.10734509361E+04  0.88285271942E+03  0.15577228589E+04  0.17770000000E+01 0. -1.
        -15    1    5    5    0    0  0.33482971186E+02  0.10188100013E+03  0.75422327689E+02  0.13112029893E+03  0.17770000000E+01 0.  1.
          2    1    6    6  503    0 -0.44047107430E+02  0.41061768225E+02 -0.20539825500E+02  0.63624687931E+02  0.00000000000E+00 0. -1.
         -2    1    6    6    0  503 -0.39037693298E+02  0.94089990832E+02  0.74747001602E+02  0.12634865303E+03  0.00000000000E+00 0.  1.
<mgrwt>
<rscale>  0 0.15086814E+04</rscale>
<asrwt>0</asrwt>
<pdfrwt beam="1">  1        1 0.68147579E+00 0.15086814E+04</pdfrwt>
<pdfrwt beam="2">  1       -1 0.94401395E-01 0.15086814E+04</pdfrwt>
<totfact> 0.40282634E-02</totfact>
</mgrwt>
</event>
<event>
12    1  0.8033771E-008  0.9747313E+03  0.7818608E-02  0.9336702E-01
         -1   -1    0    0    0  501 -0.00000000000E+00  0.00000000000E+00  0.23021924023E+04  0.23021924023E+04  0.00000000000E+00 0.  1.
          1   -1    0    0  501    0  0.00000000000E+00 -0.00000000000E+00 -0.80597692000E+03  0.80597692000E+03  0.00000000000E+00 0. -1.
         23    2    1    2    0    0 -0.74864709941E+03  0.50554772329E+03 -0.34503326878E+03  0.97128543134E+03  0.91084864724E+02 0.  0.
    5000000    2    1    2    0    0  0.74864709941E+03 -0.50554772329E+03  0.18412487511E+04  0.21368838910E+04  0.60002068309E+03 0.  0.
         23    2    4    4    0    0  0.20026904079E+03 -0.43492628558E+03  0.58705315988E+03  0.76309383632E+03  0.91718198445E+02 0.  0.
         23    2    4    4    0    0  0.54837805862E+03 -0.70621437717E+02  0.12541955912E+04  0.13737900546E+04  0.92664181885E+02 0.  0.
          4    1    3    3  502    0 -0.16461415739E+03  0.86369957093E+02 -0.10430428860E+03  0.21315950582E+03  0.00000000000E+00 0. -1.
         -4    1    3    3    0  502 -0.58403294202E+03  0.41917776620E+03 -0.24072898018E+03  0.75812592552E+03  0.00000000000E+00 0.  1.
         15    1    5    5    0    0 -0.31839212219E+01 -0.36619363124E+02  0.23663055126E+02  0.43751720159E+02  0.17770000000E+01 0.  1.
        -15    1    5    5    0    0  0.20345296201E+03 -0.39830692245E+03  0.56339010475E+03  0.71934211616E+03  0.17770000000E+01 0. -1.
          3    1    6    6  503    0  0.27676241557E+03 -0.82313263683E+02  0.64944379473E+03  0.71073915789E+03  0.00000000000E+00 0. -1.
         -3    1    6    6    0  503  0.27161564305E+03  0.11691825966E+02  0.60475179648E+03  0.66305089675E+03  0.00000000000E+00 0.  1.
<mgrwt>
<rscale>  0 0.97473134E+03</rscale>
<asrwt>0</asrwt>
<pdfrwt beam="1">  1        1 0.12399645E+00 0.97473134E+03</pdfrwt>
<pdfrwt beam="2">  1       -1 0.35418344E+00 0.97473134E+03</pdfrwt>
<totfact> 0.32643077E-01</totfact>
</mgrwt>
</event>
<event>
12    1  0.8033771E-008  0.1606287E+04  0.7818608E-02  0.8816695E-01
         -1   -1    0    0    0  501 -0.00000000000E+00  0.00000000000E+00  0.87651648953E+03  0.87651648953E+03  0.00000000000E+00 0.  1.
          1   -1    0    0  501    0  0.00000000000E+00 -0.00000000000E+00 -0.31048759374E+04  0.31048759374E+04  0.00000000000E+00 0. -1.
         23    2    1    2    0    0  0.73126641154E+03 -0.13826031309E+04 -0.70518824289E+03  0.17172609422E+04  0.73162172767E+02 0.  0.
    5000000    2    1    2    0    0 -0.73126641154E+03  0.13826031309E+04 -0.15231712049E+04  0.22641314847E+04  0.59991572573E+03 0.  0.
         23    2    4    4    0    0 -0.81014667957E+03  0.12299742813E+04 -0.13959970708E+04  0.20313670299E+04  0.92031589704E+02 0.  0.
         23    2    4    4    0    0  0.78880268039E+02  0.15262884965E+03 -0.12717413412E+03  0.23276445473E+03  0.92132342672E+02 0.  0.
          3    1    3    3  502    0  0.23326470519E+03 -0.49582174756E+03 -0.27300751177E+03  0.61219664286E+03  0.00000000000E+00 0. -1.
         -3    1    3    3    0  502  0.49800170635E+03 -0.88678138336E+03 -0.43218073112E+03  0.11050642994E+04  0.00000000000E+00 0.  1.
         15    1    5    5    0    0 -0.21068512695E+03  0.38760329565E+03 -0.39080509454E+03  0.58936942334E+03  0.17770000000E+01 0.  1.
        -15    1    5    5    0    0 -0.59946155263E+03  0.84237098562E+03 -0.10051919763E+04  0.14419976066E+04  0.17770000000E+01 0. -1.
          2    1    6    6  503    0  0.67915036420E+02  0.11758671179E+03 -0.45490579953E+02  0.14320782041E+03  0.00000000000E+00 0.  1.
         -2    1    6    6    0  503  0.10965231619E+02  0.35042137857E+02 -0.81683554163E+02  0.89556634320E+02  0.00000000000E+00 0. -1.
<mgrwt>
<rscale>  0 0.16062867E+04</rscale>
<asrwt>0</asrwt>
<pdfrwt beam="1">  1        1 0.47767321E+00 0.16062867E+04</pdfrwt>
<pdfrwt beam="2">  1       -1 0.13484869E+00 0.16062867E+04</pdfrwt>
<totfact> 0.21794828E-01</totfact>
</mgrwt>
</event>
<event>
12    1  0.8033771E-008  0.6510469E+03  0.7818608E-02  0.9804817E-01
         -2   -1    0    0    0  501 -0.00000000000E+00  0.00000000000E+00  0.37791845617E+03  0.37791845617E+03  0.00000000000E+00 0. -1.
          2   -1    0    0  501    0  0.00000000000E+00 -0.00000000000E+00 -0.22876426106E+04  0.22876426106E+04  0.00000000000E+00 0.  1.
         23    2    1    2    0    0 -0.40152468821E+03 -0.33192788939E+03  0.69038755972E+02  0.53321717971E+03  0.90310641238E+02 0.  0.
    5000000    2    1    2    0    0  0.40152468821E+03  0.33192788939E+03 -0.19787629104E+04  0.21323438870E+04  0.59999133165E+03 0.  0.
         23    2    4    4    0    0 -0.10047738308E+03  0.24278154051E+03 -0.68187897340E+03  0.73583249537E+03  0.86324654350E+02 0.  0.
         23    2    4    4    0    0  0.50200207129E+03  0.89146348882E+02 -0.12968839370E+04  0.13965113916E+04  0.91558560260E+02 0.  0.
          4    1    3    3  502    0 -0.15166919891E+03 -0.86795375288E+02 -0.75473079527E+01  0.17491124872E+03  0.00000000000E+00 0. -1.
         -4    1    3    3    0  502 -0.24985548930E+03 -0.24513251410E+03  0.76586063925E+02  0.35830593100E+03  0.00000000000E+00 0.  1.
         15    1    5    5    0    0 -0.87093156849E+02  0.20965151029E+03 -0.64777115424E+03  0.68640337975E+03  0.17770000000E+01 0. -1.
        -15    1    5    5    0    0 -0.13384226228E+02  0.33130030215E+02 -0.34107819167E+02  0.49429115621E+02  0.17770000000E+01 0.  1.
          3    1    6    6  503    0  0.40551506147E+03  0.43704395376E+02 -0.10888379705E+04  0.11627212328E+04  0.00000000000E+00 0. -1.
         -3    1    6    6    0  503  0.96487009813E+02  0.45441953506E+02 -0.20804596643E+03  0.23379015879E+03  0.00000000000E+00 0.  1.
<mgrwt>
<rscale>  0 0.65104693E+03</rscale>
<asrwt>0</asrwt>
<pdfrwt beam="1">  1        2 0.35194501E+00 0.65104693E+03</pdfrwt>
<pdfrwt beam="2">  1       -2 0.58141302E-01 0.65104693E+03</pdfrwt>
<totfact> 0.13509605E+01</totfact>
</mgrwt>
</event>
<event>
12    1  0.8033771E-008  0.1029852E+04  0.7818608E-02  0.9276397E-01
         -2   -1    0    0    0  501 -0.00000000000E+00  0.00000000000E+00  0.15493550140E+04  0.15493550140E+04  0.00000000000E+00 0.  1.
          2   -1    0    0  501    0  0.00000000000E+00 -0.00000000000E+00 -0.13238067561E+04  0.13238067561E+04  0.00000000000E+00 0. -1.
         23    2    1    2    0    0 -0.88125318772E+02  0.97310094476E+03 -0.85203006304E+03  0.12997175781E+04  0.92838753149E+02 0.  0.
    5000000    2    1    2    0    0  0.88125318772E+02 -0.97310094476E+03  0.10775783209E+04  0.15734441920E+04  0.59988337787E+03 0.  0.
         23    2    4    4    0    0  0.51429816511E+02  0.11740496255E+02 -0.50378593429E+01  0.10656924131E+03  0.92459493226E+02 0.  0.
         23    2    4    4    0    0  0.36695502261E+02 -0.98484144101E+03  0.10826161803E+04  0.14668749507E+04  0.91679350460E+02 0.  0.
          3    1    3    3  502    0 -0.50871521325E+02  0.51961086841E+03 -0.39388067261E+03  0.65400714867E+03  0.00000000000E+00 0. -1.
         -3    1    3    3    0  502 -0.37253797447E+02  0.45349007635E+03 -0.45814939043E+03  0.64571042946E+03  0.00000000000E+00 0.  1.
         15    1    5    5    0    0  0.19226855660E+02  0.43768795653E+02 -0.28223816347E+02  0.55543865454E+02  0.17770000000E+01 0.  1.
        -15    1    5    5    0    0  0.32202960851E+02 -0.32028299397E+02  0.23185957004E+02  0.51025375854E+02  0.17770000000E+01 0. -1.
          1    1    6    6  503    0  0.24065341159E+02 -0.64075444605E+02  0.63727305309E+02  0.93519905306E+02  0.00000000000E+00 0. -1.
         -1    1    6    6    0  503  0.12630161102E+02 -0.92076599641E+03  0.10188888750E+04  0.13733550454E+04  0.00000000000E+00 0.  1.
<mgrwt>
<rscale>  0 0.10298515E+04</rscale>
<asrwt>0</asrwt>
<pdfrwt beam="1">  1        2 0.20366258E+00 0.10298515E+04</pdfrwt>
<pdfrwt beam="2">  1       -2 0.23836231E+00 0.10298515E+04</pdfrwt>
<totfact> 0.12043238E+00</totfact>
</mgrwt>
</event>
<event>
12    1  0.8033771E-008  0.1321355E+04  0.7818608E-02  0.9012800E-01
          1   -1    0    0  501    0  0.00000000000E+00  0.00000000000E+00  0.35248304553E+04  0.35248304553E+04  0.00000000000E+00 0. -1.
         -1   -1    0    0    0  501 -0.00000000000E+00 -0.00000000000E+00 -0.58229451105E+03  0.58229451105E+03  0.00000000000E+00 0.  1.
         23    2    1    2    0    0 -0.11082837109E+04 -0.58515228145E+03  0.21951276441E+04  0.25293486304E+04  0.91231267410E+02 0.  0.
    5000000    2    1    2    0    0  0.11082837109E+04  0.58515228145E+03  0.74740830015E+03  0.15777763359E+04  0.60005251656E+03 0.  0.
         23    2    4    4    0    0 -0.46370491875E+02  0.77712655510E+02  0.70082032513E+02  0.14320880270E+03  0.86068522388E+02 0.  0.
         23    2    4    4    0    0  0.11546542028E+04  0.50743962594E+03  0.67732626763E+03  0.14345675332E+04  0.92151139434E+02 0.  0.
          4    1    3    3  502    0 -0.81373553894E+03 -0.45179072961E+03  0.15570184309E+04  0.18139974600E+04  0.00000000000E+00 0. -1.
         -4    1    3    3    0  502 -0.29454817196E+03 -0.13336155184E+03  0.63810921311E+03  0.71535117038E+03  0.00000000000E+00 0.  1.
         15    1    5    5    0    0 -0.68426653138E+02  0.35778777594E+02  0.47688022916E+02  0.90772424471E+02  0.17770000000E+01 0.  1.
        -15    1    5    5    0    0  0.22056161263E+02  0.41933877916E+02  0.22394009598E+02  0.52436378228E+02  0.17770000000E+01 0. -1.
          3    1    6    6  503    0  0.43179993789E+03  0.23410887559E+03  0.28507404704E+03  0.56791316615E+03  0.00000000000E+00 0. -1.
         -3    1    6    6    0  503  0.72285426489E+03  0.27333075035E+03  0.39225222060E+03  0.86665436704E+03  0.00000000000E+00 0.  1.
<mgrwt>
<rscale>  0 0.13213553E+04</rscale>
<asrwt>0</asrwt>
<pdfrwt beam="1">  1        1 0.54228160E+00 0.13213553E+04</pdfrwt>
<pdfrwt beam="2">  1       -1 0.89583773E-01 0.13213553E+04</pdfrwt>
<totfact> 0.28796263E-01</totfact>
</mgrwt>
</event>
<event>
12    1  0.8033771E-008  0.5424451E+03  0.7818608E-02  0.1003258E+00
          1   -1    0    0  501    0  0.00000000000E+00  0.00000000000E+00  0.63532394292E+03  0.63532394292E+03  0.00000000000E+00 0. -1.
         -1   -1    0    0    0  501 -0.00000000000E+00 -0.00000000000E+00 -0.46904112056E+03  0.46904112056E+03  0.00000000000E+00 0.  1.
         23    2    1    2    0    0  0.34678844623E+03 -0.13685186146E+03  0.30959762317E+02  0.38535764258E+03  0.92473495609E+02 0.  0.
    5000000    2    1    2    0    0 -0.34678844623E+03  0.13685186146E+03  0.13532306004E+03  0.71900742090E+03  0.59972383837E+03 0.  0.
         23    2    4    4    0    0 -0.50078018346E+03  0.12848263800E+03  0.81018556445E+02  0.53114908505E+03  0.90921744666E+02 0.  0.
         23    2    4    4    0    0  0.15399173723E+03  0.83692234634E+01  0.54304503596E+02  0.18785833585E+03  0.92510951785E+02 0.  0.
          3    1    3    3  502    0  0.51913851435E+02 -0.58118714702E+02  0.17426009094E+02  0.79852982176E+02  0.00000000000E+00 0. -1.
         -3    1    3    3    0  502  0.29487459479E+03 -0.78733146760E+02  0.13533753222E+02  0.30550466041E+03  0.00000000000E+00 0.  1.
         15    1    5    5    0    0 -0.12250761837E+03 -0.63629097452E+01  0.30252470530E+02  0.12636048781E+03  0.17770000000E+01 0. -1.
        -15    1    5    5    0    0 -0.37827256509E+03  0.13484554774E+03  0.50766085914E+02  0.40478859724E+03  0.17770000000E+01 0.  1.
          1    1    6    6  503    0  0.42728197325E+02 -0.37769391204E+02  0.35117894012E+01  0.57136314401E+02  0.00000000000E+00 0. -1.
         -1    1    6    6    0  503  0.11126353991E+03  0.46138614668E+02  0.50792714195E+02  0.13072202145E+03  0.00000000000E+00 0.  1.
<mgrwt>
<rscale>  0 0.54244511E+03</rscale>
<asrwt>0</asrwt>
<pdfrwt beam="1">  1        1 0.97742145E-01 0.54244511E+03</pdfrwt>
<pdfrwt beam="2">  1       -1 0.72160173E-01 0.54244511E+03</pdfrwt>
<totfact> 0.63577917E+01</totfact>
</mgrwt>
</event>
<event>
12    1  0.1357426E-007  0.1283947E+04  0.7818608E-02  0.9042393E-01
          2   -1    0    0  501    0  0.00000000000E+00  0.00000000000E+00  0.12179546745E+04  0.12179546745E+04  0.00000000000E+00 0.  1.
         -2   -1    0    0    0  501 -0.00000000000E+00 -0.00000000000E+00 -0.14759646134E+04  0.14759646134E+04  0.00000000000E+00 0. -1.
         23    2    1    2    0    0  0.64377102865E+03  0.10942141785E+04 -0.20162457655E+03  0.12886213289E+04  0.90258815127E+02 0.  0.
    5000000    2    1    2    0    0 -0.64377102865E+03 -0.10942141785E+04 -0.56385362385E+02  0.14052979590E+04  0.59994769661E+03 0.  0.
         23    2    4    4    0    0 -0.48996512053E+03 -0.99574216591E+03  0.14028916290E+03  0.11223608300E+04  0.91893977487E+02 0.  0.
         23    2    4    4    0    0 -0.15380590813E+03 -0.98472012578E+02 -0.19667452529E+03  0.28293712901E+03  0.89551970614E+02 0.  0.
          3    1    3    3  502    0  0.40763659850E+03  0.62318164069E+03 -0.90716808816E+02  0.75016830987E+03  0.00000000000E+00 0. -1.
         -3    1    3    3    0  502  0.23613443016E+03  0.47103253779E+03 -0.11090776774E+03  0.53845301904E+03  0.00000000000E+00 0.  1.
         15    1    5    5    0    0 -0.19355052209E+03 -0.29770019555E+03  0.51577440122E+02  0.35881833996E+03  0.17770000000E+01 0. -1.
        -15    1    5    5    0    0 -0.29641459843E+03 -0.69804197036E+03  0.88711722781E+02  0.76354249000E+03  0.17770000000E+01 0.  1.
          2    1    6    6  503    0 -0.54014134421E+02 -0.39862529053E+02 -0.13737262982E+03  0.15289796389E+03  0.00000000000E+00 0. -1.
         -2    1    6    6    0  503 -0.99791773707E+02 -0.58609483525E+02 -0.59301895470E+02  0.13003916512E+03  0.00000000000E+00 0.  1.
<mgrwt>
<rscale>  0 0.12839473E+04</rscale>
<asrwt>0</asrwt>
<pdfrwt beam="1">  1        2 0.18737764E+00 0.12839473E+04</pdfrwt>
<pdfrwt beam="2">  1       -2 0.22707148E+00 0.12839473E+04</pdfrwt>
<totfact> 0.15873323E+00</totfact>
</mgrwt>
</event>
<event>
12    1  0.8033771E-008  0.7985070E+03  0.7818608E-02  0.9562181E-01
         -1   -1    0    0    0  501 -0.00000000000E+00  0.00000000000E+00  0.29094981131E+03  0.29094981131E+03  0.00000000000E+00 0.  1.
          1   -1    0    0  501    0  0.00000000000E+00 -0.00000000000E+00 -0.29444440563E+04  0.29444440563E+04  0.00000000000E+00 0. -1.
         23    2    1    2    0    0  0.29126570193E+01  0.73020173282E+03 -0.18644414133E+04  0.20043226416E+04  0.89243565714E+02 0.  0.
    5000000    2    1    2    0    0 -0.29126570193E+01 -0.73020173282E+03 -0.78905283169E+03  0.12310712260E+04  0.59977407249E+03 0.  0.
         23    2    4    4    0    0 -0.21309960157E+03 -0.21895927542E+03 -0.76514877458E+02  0.32496333233E+03  0.79950212043E+02 0.  0.
         23    2    4    4    0    0  0.21018694455E+03 -0.51124245740E+03 -0.71253795423E+03  0.90610789363E+03  0.88169023953E+02 0.  0.
          2    1    3    3  502    0  0.45542452483E+01  0.61764974160E+03 -0.16557927904E+04  0.17672469293E+04  0.00000000000E+00 0. -1.
         -2    1    3    3    0  502 -0.16415882290E+01  0.11255199121E+03 -0.20864862289E+03  0.23707571232E+03  0.00000000000E+00 0.  1.
         15    1    5    5    0    0 -0.14412528258E+03 -0.18865041125E+03 -0.38347676660E+02  0.24048862089E+03  0.17770000000E+01 0.  1.
        -15    1    5    5    0    0 -0.68974318989E+02 -0.30308864171E+02 -0.38167200798E+02  0.84474711441E+02  0.17770000000E+01 0. -1.
          4    1    6    6  503    0  0.10202800802E+03 -0.29659948728E+03 -0.46660334711E+03  0.56222740401E+03  0.00000000000E+00 0. -1.
         -4    1    6    6    0  503  0.10815893653E+03 -0.21464297011E+03 -0.24593460712E+03  0.34388048963E+03  0.00000000000E+00 0.  1.
<mgrwt>
<rscale>  0 0.79850700E+03</rscale>
<asrwt>0</asrwt>
<pdfrwt beam="1">  1        1 0.45299138E+00 0.79850700E+03</pdfrwt>
<pdfrwt beam="2">  1       -1 0.44761510E-01 0.79850700E+03</pdfrwt>
<totfact> 0.34398538E+00</totfact>
</mgrwt>
</event>
<event>
12    1  0.8033771E-008  0.4650877E+03  0.7818608E-02  0.1023316E+00
          1   -1    0    0  501    0  0.00000000000E+00  0.00000000000E+00  0.72126694729E+03  0.72126694729E+03  0.00000000000E+00 0. -1.
         -1   -1    0    0    0  501 -0.00000000000E+00 -0.00000000000E+00 -0.64873852067E+03  0.64873852067E+03  0.00000000000E+00 0.  1.
         23    2    1    2    0    0 -0.20927167418E+03 -0.27071519295E+03 -0.39894987176E+03  0.53353998789E+03  0.91774556372E+02 0.  0.
    5000000    2    1    2    0    0  0.20927167418E+03  0.27071519295E+03  0.47147829838E+03  0.83646548006E+03  0.60025108429E+03 0.  0.
         23    2    4    4    0    0  0.31484240167E+03  0.32819360962E+03  0.16064378397E+03  0.49058460796E+03  0.89610540396E+02 0.  0.
         23    2    4    4    0    0 -0.10557072750E+03 -0.57478416667E+02  0.31083451441E+03  0.34588087211E+03  0.92555580348E+02 0.  0.
          3    1    3    3  502    0 -0.10037280013E+03 -0.11631112344E+03 -0.24787304094E+03  0.29162308013E+03  0.00000000000E+00 0. -1.
         -3    1    3    3    0  502 -0.10889887405E+03 -0.15440406951E+03 -0.15107683083E+03  0.24191690777E+03  0.00000000000E+00 0.  1.
         15    1    5    5    0    0  0.23393864516E+03  0.19754307472E+03  0.77477002323E+02  0.31584236525E+03  0.17770000000E+01 0.  1.
        -15    1    5    5    0    0  0.80903756510E+02  0.13065053490E+03  0.83166781644E+02  0.17474224270E+03  0.17770000000E+01 0. -1.
          2    1    6    6  503    0 -0.59232895065E+01  0.68975414251E+01  0.12550166121E+03  0.12583055433E+03  0.00000000000E+00 0.  1.
         -2    1    6    6    0  503 -0.99647437989E+02 -0.64375958092E+02  0.18533285320E+03  0.22005031777E+03  0.00000000000E+00 0. -1.
<mgrwt>
<rscale>  0 0.46508768E+03</rscale>
<asrwt>0</asrwt>
<pdfrwt beam="1">  1        1 0.11096415E+00 0.46508768E+03</pdfrwt>
<pdfrwt beam="2">  1       -1 0.99805926E-01 0.46508768E+03</pdfrwt>
<totfact> 0.26565049E+01</totfact>
</mgrwt>
</event>
<event>
12    1  0.8033771E-008  0.2142679E+04  0.7818608E-02  0.8542673E-01
          2   -1    0    0  501    0  0.00000000000E+00  0.00000000000E+00  0.23534201148E+04  0.23534201148E+04  0.00000000000E+00 0. -1.
         -2   -1    0    0    0  501 -0.00000000000E+00 -0.00000000000E+00 -0.20158387884E+04  0.20158387884E+04  0.00000000000E+00 0.  1.
         23    2    1    2    0    0  0.12655537174E+04 -0.17181166023E+04  0.25944994764E+03  0.21512325504E+04  0.83284691606E+02 0.  0.
    5000000    2    1    2    0    0 -0.12655537174E+04  0.17181166023E+04  0.78131378756E+02  0.22180263527E+04  0.59998793199E+03 0.  0.
         23    2    4    4    0    0 -0.76471024782E+03  0.12264551694E+04 -0.19101035880E+03  0.14607435584E+04  0.91174232477E+02 0.  0.
         23    2    4    4    0    0 -0.50084346954E+03  0.49166143291E+03  0.26914173756E+03  0.75728279432E+03  0.92004402591E+02 0.  0.
          2    1    3    3  502    0  0.74693944822E+03 -0.10778599367E+04  0.17397354568E+03  0.13228633252E+04  0.00000000000E+00 0. -1.
         -2    1    3    3    0  502  0.51861426913E+03 -0.64025666558E+03  0.85476401954E+02  0.82836922520E+03  0.00000000000E+00 0.  1.
         15    1    5    5    0    0 -0.27455385002E+03  0.50318057510E+03 -0.10562143337E+03  0.58286323665E+03  0.17770000000E+01 0. -1.
        -15    1    5    5    0    0 -0.49015639780E+03  0.72327459428E+03 -0.85388925430E+02  0.87788032177E+03  0.17770000000E+01 0.  1.
          3    1    6    6  503    0 -0.32344554649E+03  0.28875471215E+03  0.20809036322E+03  0.48093440779E+03  0.00000000000E+00 0. -1.
         -3    1    6    6    0  503 -0.17739792305E+03  0.20290672076E+03  0.61051374338E+02  0.27634838653E+03  0.00000000000E+00 0.  1.
<mgrwt>
<rscale>  0 0.21426789E+04</rscale>
<asrwt>0</asrwt>
<pdfrwt beam="1">  1        2 0.36206463E+00 0.21426789E+04</pdfrwt>
<pdfrwt beam="2">  1       -2 0.31012905E+00 0.21426789E+04</pdfrwt>
<totfact> 0.10191833E-01</totfact>
</mgrwt>
</event>
<event>
12    1  0.8033771E-008  0.1534723E+04  0.7818608E-02  0.8861685E-01
         -2   -1    0    0    0  501 -0.00000000000E+00  0.00000000000E+00  0.13587521670E+04  0.13587521670E+04  0.00000000000E+00 0.  1.
          2   -1    0    0  501    0  0.00000000000E+00 -0.00000000000E+00 -0.19857631332E+04  0.19857631332E+04  0.00000000000E+00 0. -1.
         23    2    1    2    0    0  0.36055834515E+02 -0.15058438774E+04  0.20374546158E+03  0.15227406103E+04  0.91438213269E+02 0.  0.
    5000000    2    1    2    0    0 -0.36055834515E+02  0.15058438774E+04 -0.83075642782E+03  0.18217746899E+04  0.59986746201E+03 0.  0.
         23    2    4    4    0    0  0.11689305962E+03  0.12150697017E+04 -0.83370385282E+03  0.14810226214E+04  0.91145617469E+02 0.  0.
         23    2    4    4    0    0 -0.15294889414E+03  0.29077417576E+03  0.29474250018E+01  0.34075206850E+03  0.90334375318E+02 0.  0.
          3    1    3    3  502    0 -0.12179718719E+02 -0.11300823529E+04  0.14692699178E+03  0.11396587256E+04  0.00000000000E+00 0. -1.
         -3    1    3    3    0  502  0.48235553234E+02 -0.37576152454E+03  0.56818469802E+02  0.38308188476E+03  0.00000000000E+00 0.  1.
         15    1    5    5    0    0  0.47524821590E+02  0.89201678711E+03 -0.59225121850E+03  0.10717822637E+04  0.17770000000E+01 0. -1.
        -15    1    5    5    0    0  0.69368238031E+02  0.32305291457E+03 -0.24145263432E+03  0.40924035775E+03  0.17770000000E+01 0.  1.
          1    1    6    6  503    0 -0.12013294199E+03  0.27549723726E+03 -0.13801408863E+02  0.30086729695E+03  0.00000000000E+00 0. -1.
         -1    1    6    6    0  503 -0.32815952146E+02  0.15276938498E+02  0.16748833865E+02  0.39884771542E+02  0.00000000000E+00 0.  1.
<mgrwt>
<rscale>  0 0.15347231E+04</rscale>
<asrwt>0</asrwt>
<pdfrwt beam="1">  1        2 0.30550202E+00 0.15347231E+04</pdfrwt>
<pdfrwt beam="2">  1       -2 0.20903879E+00 0.15347231E+04</pdfrwt>
<totfact> 0.73944841E-01</totfact>
</mgrwt>
</event>
<event>
12    1  0.8033771E-008  0.5646849E+03  0.7818608E-02  0.9981510E-01
         -2   -1    0    0    0  501 -0.00000000000E+00  0.00000000000E+00  0.17734119774E+03  0.17734119774E+03  0.00000000000E+00 0. -1.
          2   -1    0    0  501    0  0.00000000000E+00 -0.00000000000E+00 -0.25510652119E+04  0.25510652119E+04  0.00000000000E+00 0.  1.
         23    2    1    2    0    0  0.77173242080E+02  0.52092430039E+03 -0.11380666674E+04  0.12573551832E+04  0.91806760303E+02 0.  0.
    5000000    2    1    2    0    0 -0.77173242080E+02 -0.52092430039E+03 -0.12356573468E+04  0.14710512265E+04  0.59985397906E+03 0.  0.
         23    2    4    4    0    0 -0.97228665723E+02 -0.49551452089E+03 -0.12691917924E+04  0.13691233995E+04  0.93075363609E+02 0.  0.
         23    2    4    4    0    0  0.20055423643E+02 -0.25409779508E+02  0.33534445605E+02  0.10192782697E+03  0.90646819898E+02 0.  0.
          1    1    3    3  502    0  0.23053535227E+02  0.84916413390E+02 -0.27759415180E+03  0.29120572773E+03  0.00000000000E+00 0. -1.
         -1    1    3    3    0  502  0.54119706852E+02  0.43600788700E+03 -0.86047251559E+03  0.96614945546E+03  0.00000000000E+00 0.  1.
         15    1    5    5    0    0  0.58680790634E+01 -0.20533764993E+03 -0.49548926150E+03  0.53638675489E+03  0.17770000000E+01 0.  1.
        -15    1    5    5    0    0 -0.10309674479E+03 -0.29017687096E+03 -0.77370253091E+03  0.83273664462E+03  0.17770000000E+01 0. -1.
          3    1    6    6  503    0 -0.30468921609E+02  0.31082891185E+01  0.31412173338E+02  0.43871873439E+02  0.00000000000E+00 0. -1.
         -3    1    6    6    0  503  0.50524345252E+02 -0.28518068626E+02  0.21222722665E+01  0.58055953535E+02  0.00000000000E+00 0.  1.
<mgrwt>
<rscale>  0 0.56468491E+03</rscale>
<asrwt>0</asrwt>
<pdfrwt beam="1">  1        2 0.39247155E+00 0.56468491E+03</pdfrwt>
<pdfrwt beam="2">  1       -2 0.27283262E-01 0.56468491E+03</pdfrwt>
<totfact> 0.42684379E+01</totfact>
</mgrwt>
</event>
<event>
12    1  0.8033771E-008  0.5712598E+03  0.7818608E-02  0.9966895E-01
         -2   -1    0    0    0  501 -0.00000000000E+00  0.00000000000E+00  0.14775459056E+03  0.14775459056E+03  0.00000000000E+00 0.  1.
          2   -1    0    0  501    0  0.00000000000E+00 -0.00000000000E+00 -0.37774341718E+04  0.37774341718E+04  0.00000000000E+00 0. -1.
         23    2    1    2    0    0 -0.51859027119E+03 -0.96409869100E+02 -0.23982245438E+04  0.24573210789E+04  0.93355181717E+02 0.  0.
    5000000    2    1    2    0    0  0.51859027119E+03  0.96409869100E+02 -0.12314550374E+04  0.14678676835E+04  0.59993607554E+03 0.  0.
         23    2    4    4    0    0  0.50358515078E+03  0.95411985641E+01 -0.46652485480E+03  0.69240675485E+03  0.89959076614E+02 0.  0.
         23    2    4    4    0    0  0.15005120413E+02  0.86868670536E+02 -0.76493018265E+03  0.77546092864E+03  0.91924686292E+02 0.  0.
          1    1    3    3  502    0 -0.26997492701E+03 -0.45100722215E+01 -0.12685128689E+04  0.12969316484E+04  0.00000000000E+00 0. -1.
         -1    1    3    3    0  502 -0.24861534418E+03 -0.91899796879E+02 -0.11297116749E+04  0.11603894305E+04  0.00000000000E+00 0.  1.
         15    1    5    5    0    0  0.82612209669E+02 -0.72279507992E+01 -0.37254719655E+02  0.90929051050E+02  0.17770000000E+01 0. -1.
        -15    1    5    5    0    0  0.42097294111E+03  0.16769149363E+02 -0.42927013514E+03  0.60147770380E+03  0.17770000000E+01 0.  1.
          3    1    6    6  503    0 -0.17479369796E+02  0.54902036621E+02 -0.18552407465E+03  0.19426513910E+03  0.00000000000E+00 0. -1.
         -3    1    6    6    0  503  0.32484490209E+02  0.31966633915E+02 -0.57940610800E+03  0.58119578954E+03  0.00000000000E+00 0.  1.
<mgrwt>
<rscale>  0 0.57125978E+03</rscale>
<asrwt>0</asrwt>
<pdfrwt beam="1">  1        2 0.58114363E+00 0.57125978E+03</pdfrwt>
<pdfrwt beam="2">  1       -2 0.22731479E-01 0.57125978E+03</pdfrwt>
<totfact> 0.98796124E+00</totfact>
</mgrwt>
</event>
<event>
12    1  0.8033771E-008  0.9082958E+03  0.7818608E-02  0.9415270E-01
          1   -1    0    0  501    0  0.00000000000E+00  0.00000000000E+00  0.64418726066E+03  0.64418726066E+03  0.00000000000E+00 0. -1.
         -1   -1    0    0    0  501 -0.00000000000E+00 -0.00000000000E+00 -0.17503532656E+04  0.17503532656E+04  0.00000000000E+00 0.  1.
         23    2    1    2    0    0 -0.74955272312E+03 -0.44596208475E+03 -0.18422488087E+02  0.87673154504E+03  0.87220113710E+02 0.  0.
    5000000    2    1    2    0    0  0.74955272312E+03  0.44596208475E+03 -0.10877435168E+04  0.15178089812E+04  0.59987221909E+03 0.  0.
         23    2    4    4    0    0  0.65363888587E+02 -0.35184026275E+02 -0.44024266285E+03  0.45600146200E+03  0.92808283629E+02 0.  0.
         23    2    4    4    0    0  0.68418883453E+03  0.48114611102E+03 -0.64750085395E+03  0.10618075192E+04  0.92530592119E+02 0.  0.
          1    1    3    3  502    0 -0.47936767777E+03 -0.31389671259E+03  0.21259546285E+02  0.57339034259E+03  0.00000000000E+00 0. -1.
         -1    1    3    3    0  502 -0.27018504535E+03 -0.13206537215E+03 -0.39682034372E+02  0.30334120245E+03  0.00000000000E+00 0.  1.
         15    1    5    5    0    0 -0.15446487390E+02  0.13526047406E+01 -0.18742929245E+03  0.18807796498E+03  0.17770000000E+01 0. -1.
        -15    1    5    5    0    0  0.80810375977E+02 -0.36536631016E+02 -0.25281337040E+03  0.26792349702E+03  0.17770000000E+01 0.  1.
          3    1    6    6  503    0  0.39482308090E+03  0.24143201313E+03 -0.31268990383E+03  0.55852453673E+03  0.00000000000E+00 0. -1.
         -3    1    6    6    0  503  0.28936575363E+03  0.23971409789E+03 -0.33481095012E+03  0.50328298245E+03  0.00000000000E+00 0.  1.
<mgrwt>
<rscale>  0 0.90829575E+03</rscale>
<asrwt>0</asrwt>
<pdfrwt beam="1">  1        1 0.99105732E-01 0.90829575E+03</pdfrwt>
<pdfrwt beam="2">  1       -1 0.26928512E+00 0.90829575E+03</pdfrwt>
<totfact> 0.16489746E+00</totfact>
</mgrwt>
</event>
<event>
12    1  0.8033771E-008  0.5278082E+03  0.7818608E-02  0.1006765E+00
          2   -1    0    0  501    0  0.00000000000E+00  0.00000000000E+00  0.30239026346E+04  0.30239026346E+04  0.00000000000E+00 0.  1.
         -2   -1    0    0    0  501 -0.00000000000E+00 -0.00000000000E+00 -0.14648694170E+03  0.14648694170E+03  0.00000000000E+00 0. -1.
         23    2    1    2    0    0 -0.37160330522E+03 -0.80713348375E+02  0.28841487082E+03  0.48570566866E+03  0.90128784516E+02 0.  0.
    5000000    2    1    2    0    0  0.37160330522E+03  0.80713348375E+02  0.25890008221E+04  0.26846839076E+04  0.59999897179E+03 0.  0.
         23    2    4    4    0    0  0.40148181036E+01  0.25353896540E+03  0.13958278525E+04  0.14209642278E+04  0.80658644902E+02 0.  0.
         23    2    4    4    0    0  0.36758848712E+03 -0.17282561703E+03  0.11931729696E+04  0.12637196799E+04  0.91300077933E+02 0.  0.
          1    1    3    3  502    0 -0.90041853478E+01 -0.16435455590E+02  0.31628423951E+02  0.36763524802E+02  0.00000000000E+00 0. -1.
         -1    1    3    3    0  502 -0.36259911987E+03 -0.64277892786E+02  0.25678644687E+03  0.44894214385E+03  0.00000000000E+00 0.  1.
         15    1    5    5    0    0  0.29460505708E+01  0.15035869569E+03  0.10276087583E+04  0.10385563704E+04  0.17770000000E+01 0. -1.
        -15    1    5    5    0    0  0.10687675328E+01  0.10318026971E+03  0.36821909420E+03  0.38240785738E+03  0.17770000000E+01 0.  1.
          2    1    6    6  503    0  0.14029798274E+03 -0.21422226291E+02  0.45653988955E+03  0.47809110690E+03  0.00000000000E+00 0. -1.
         -2    1    6    6    0  503  0.22729050438E+03 -0.15140339073E+03  0.73663308001E+03  0.78562857297E+03  0.00000000000E+00 0.  1.
<mgrwt>
<rscale>  0 0.52780824E+03</rscale>
<asrwt>0</asrwt>
<pdfrwt beam="1">  1        2 0.46521574E+00 0.52780824E+03</pdfrwt>
<pdfrwt beam="2">  1       -2 0.22536455E-01 0.52780824E+03</pdfrwt>
<totfact> 0.32040757E+01</totfact>
</mgrwt>
</event>
<event>
12    1  0.8033771E-008  0.6671725E+03  0.7818608E-02  0.9775079E-01
          1   -1    0    0  501    0  0.00000000000E+00  0.00000000000E+00  0.46270410040E+03  0.46270410040E+03  0.00000000000E+00 0. -1.
         -1   -1    0    0    0  501 -0.00000000000E+00 -0.00000000000E+00 -0.12878018204E+04  0.12878018204E+04  0.00000000000E+00 0.  1.
         23    2    1    2    0    0  0.11629251619E+03 -0.63537271638E+03 -0.25648127075E+03  0.70156575576E+03  0.95861511428E+02 0.  0.
    5000000    2    1    2    0    0 -0.11629251619E+03  0.63537271638E+03 -0.56861644928E+03  0.10489401651E+04  0.59977359518E+03 0.  0.
         23    2    4    4    0    0 -0.15073013100E+03  0.28579261202E+03  0.42486106604E+02  0.33832031508E+03  0.90876712422E+02 0.  0.
         23    2    4    4    0    0  0.34437614813E+02  0.34958010435E+03 -0.61110255589E+03  0.71061985000E+03  0.90233246231E+02 0.  0.
          3    1    3    3  502    0  0.10172824295E+03 -0.56797989503E+03 -0.19468296224E+03  0.60897557616E+03  0.00000000000E+00 0. -1.
         -3    1    3    3    0  502  0.14564273244E+02 -0.67392821344E+02 -0.61798308507E+02  0.92590179599E+02  0.00000000000E+00 0.  1.
         15    1    5    5    0    0 -0.97416331186E+02  0.23187391945E+03  0.26286383356E+00  0.25151278880E+03  0.17770000000E+01 0. -1.
        -15    1    5    5    0    0 -0.53313799816E+02  0.53918692574E+02  0.42223242770E+02  0.86807526280E+02  0.17770000000E+01 0.  1.
          2    1    6    6  503    0  0.43955969521E+02  0.34870038531E+03 -0.58096329350E+03  0.67900105623E+03  0.00000000000E+00 0. -1.
         -2    1    6    6    0  503 -0.95183547085E+01  0.87971904638E+00 -0.30139262388E+02  0.31618793767E+02  0.00000000000E+00 0.  1.
<mgrwt>
<rscale>  0 0.66717249E+03</rscale>
<asrwt>0</asrwt>
<pdfrwt beam="1">  1        1 0.71185246E-01 0.66717249E+03</pdfrwt>
<pdfrwt beam="2">  1       -1 0.19812336E+00 0.66717249E+03</pdfrwt>
<totfact> 0.79879871E+00</totfact>
</mgrwt>
</event>
<event>
12    1  0.8033771E-008  0.1034292E+04  0.7818608E-02  0.9271714E-01
          2   -1    0    0  501    0  0.00000000000E+00  0.00000000000E+00  0.17776640334E+04  0.17776640334E+04  0.00000000000E+00 0. -1.
         -2   -1    0    0    0  501 -0.00000000000E+00 -0.00000000000E+00 -0.69551121746E+03  0.69551121746E+03  0.00000000000E+00 0.  1.
         23    2    1    2    0    0  0.93636424921E+03 -0.23632730608E+03  0.11201278483E+03  0.97854602808E+03  0.11125134748E+03 0.  0.
    5000000    2    1    2    0    0 -0.93636424921E+03  0.23632730608E+03  0.97014003109E+03  0.14946292228E+04  0.60009685119E+03 0.  0.
         23    2    4    4    0    0 -0.88160638831E+03  0.25268791281E+02  0.66265951064E+03  0.11071576266E+04  0.93872505531E+02 0.  0.
         23    2    4    4    0    0 -0.54757860895E+02  0.21105851480E+03  0.30748052046E+03  0.38747159620E+03  0.89698647695E+02 0.  0.
          4    1    3    3  502    0  0.65989439710E+03 -0.13546399974E+03  0.36114138606E+02  0.67462236959E+03  0.00000000000E+00 0. -1.
         -4    1    3    3    0  502  0.27646985211E+03 -0.10086330634E+03  0.75898646221E+02  0.30392365849E+03  0.00000000000E+00 0.  1.
         15    1    5    5    0    0 -0.18292456352E+03 -0.64253003299E+01  0.18470751313E+03  0.26004365702E+03  0.17770000000E+01 0.  1.
        -15    1    5    5    0    0 -0.69868182479E+03  0.31694091611E+02  0.47795199751E+03  0.84711396954E+03  0.17770000000E+01 0. -1.
          2    1    6    6  503    0 -0.27824475234E+02  0.91807179661E+02  0.64889895903E+02  0.11581648522E+03  0.00000000000E+00 0. -1.
         -2    1    6    6    0  503 -0.26933385660E+02  0.11925133514E+03  0.24259062455E+03  0.27165511097E+03  0.00000000000E+00 0.  1.
<mgrwt>
<rscale>  0 0.10342918E+04</rscale>
<asrwt>0</asrwt>
<pdfrwt beam="1">  1        2 0.27348677E+00 0.10342918E+04</pdfrwt>
<pdfrwt beam="2">  1       -2 0.10700173E+00 0.10342918E+04</pdfrwt>
<totfact> 0.61960858E+00</totfact>
</mgrwt>
</event>
<event>
12    1  0.8033771E-008  0.5711584E+03  0.7818608E-02  0.9967118E-01
         -1   -1    0    0    0  501 -0.00000000000E+00  0.00000000000E+00  0.43435202834E+03  0.43435202834E+03  0.00000000000E+00 0.  1.
          1   -1    0    0  501    0  0.00000000000E+00 -0.00000000000E+00 -0.10306548122E+04  0.10306548122E+04  0.00000000000E+00 0. -1.
         23    2    1    2    0    0 -0.14620225370E+03  0.48275064454E+03 -0.60413112070E+02  0.51545033593E+03  0.87269816719E+02 0.  0.
    5000000    2    1    2    0    0  0.14620225370E+03 -0.48275064454E+03 -0.53588967175E+03  0.94955650457E+03  0.60004710756E+03 0.  0.
         23    2    4    4    0    0  0.24517199618E+03 -0.20156088904E+03 -0.40823366762E+00  0.33016631833E+03  0.90958954508E+02 0.  0.
         23    2    4    4    0    0 -0.98969742478E+02 -0.28118975550E+03 -0.53548143809E+03  0.61939018624E+03  0.89672424703E+02 0.  0.
          2    1    3    3  502    0 -0.60000391376E+02  0.10857253816E+03  0.12265499743E+02  0.12465346161E+03  0.00000000000E+00 0. -1.
         -2    1    3    3    0  502 -0.86201862321E+02  0.37417810638E+03 -0.72678611813E+02  0.39079687432E+03  0.00000000000E+00 0.  1.
         15    1    5    5    0    0  0.18138137916E+01 -0.32638399499E+02  0.83739269902E+01  0.33791055393E+02  0.17770000000E+01 0.  1.
        -15    1    5    5    0    0  0.24335818238E+03 -0.16892248954E+03 -0.87821606578E+01  0.29637526293E+03  0.17770000000E+01 0. -1.
          1    1    6    6  503    0 -0.57583535718E+02 -0.72665314398E+02 -0.22240283161E+03  0.24095462438E+03  0.00000000000E+00 0. -1.
         -1    1    6    6    0  503 -0.41386206760E+02 -0.20852444110E+03 -0.31307860648E+03  0.37843556186E+03  0.00000000000E+00 0.  1.
<mgrwt>
<rscale>  0 0.57115843E+03</rscale>
<asrwt>0</asrwt>
<pdfrwt beam="1">  1        1 0.15856228E+00 0.57115843E+03</pdfrwt>
<pdfrwt beam="2">  1       -1 0.66823389E-01 0.57115843E+03</pdfrwt>
<totfact> 0.34116446E+01</totfact>
</mgrwt>
</event>
<event>
12    1  0.8033771E-008  0.2547589E+03  0.7818608E-02  0.1110334E+00
          1   -1    0    0  501    0  0.00000000000E+00  0.00000000000E+00  0.88292865674E+03  0.88292865674E+03  0.00000000000E+00 0.  1.
         -1   -1    0    0    0  501 -0.00000000000E+00 -0.00000000000E+00 -0.15792762354E+03  0.15792762354E+03  0.00000000000E+00 0. -1.
         23    2    1    2    0    0  0.69339689604E+02 -0.66318776485E+02  0.78525982685E+02  0.15371479727E+03  0.90861082292E+02 0.  0.
    5000000    2    1    2    0    0 -0.69339689604E+02  0.66318776485E+02  0.64647505052E+03  0.88714148301E+03  0.59990319824E+03 0.  0.
         23    2    4    4    0    0  0.36840542126E+01 -0.16042985771E+03 -0.73444982358E+01  0.18534922543E+03  0.92461247078E+02 0.  0.
         23    2    4    4    0    0 -0.73023743817E+02  0.22674863420E+03  0.65381954875E+03  0.70179225758E+03  0.91021756707E+02 0.  0.
          4    1    3    3  502    0  0.33501805768E+01 -0.14805215070E+02 -0.19561141390E+02  0.24759974872E+02  0.00000000000E+00 0. -1.
         -4    1    3    3    0  502  0.65989509027E+02 -0.51513561415E+02  0.98087124075E+02  0.12895482240E+03  0.00000000000E+00 0.  1.
         15    1    5    5    0    0 -0.16657444907E+02 -0.60800708362E+02  0.38397579486E+02  0.73835820897E+02  0.17770000000E+01 0. -1.
        -15    1    5    5    0    0  0.20341499119E+02 -0.99629149349E+02 -0.45742077722E+02  0.11151340453E+03  0.17770000000E+01 0.  1.
          1    1    6    6  503    0  0.47662116394E+01  0.76647286410E+02  0.29975703453E+03  0.30943788236E+03  0.00000000000E+00 0. -1.
         -1    1    6    6    0  503 -0.77789955456E+02  0.15010134779E+03  0.35406251422E+03  0.39235437522E+03  0.00000000000E+00 0.  1.
<mgrwt>
<rscale>  0 0.25475888E+03</rscale>
<asrwt>0</asrwt>
<pdfrwt beam="1">  1        1 0.13583518E+00 0.25475888E+03</pdfrwt>
<pdfrwt beam="2">  1       -1 0.24296558E-01 0.25475888E+03</pdfrwt>
<totfact> 0.29072955E+02</totfact>
</mgrwt>
</event>
<event>
12    1  0.8033771E-008  0.5485541E+03  0.7818608E-02  0.1001829E+00
          2   -1    0    0  501    0  0.00000000000E+00  0.00000000000E+00  0.86655090850E+03  0.86655090850E+03  0.00000000000E+00 0. -1.
         -2   -1    0    0    0  501 -0.00000000000E+00 -0.00000000000E+00 -0.42397473334E+03  0.42397473334E+03  0.00000000000E+00 0.  1.
         23    2    1    2    0    0  0.33985489287E+02  0.44502432264E+03  0.23824676638E+03  0.51531308247E+03  0.97899898090E+02 0.  0.
    5000000    2    1    2    0    0 -0.33985489287E+02 -0.44502432264E+03  0.20432940878E+03  0.77521255937E+03  0.60000195308E+03 0.  0.
         23    2    4    4    0    0  0.20030923033E+03 -0.13016900709E+03 -0.93659203691E+02  0.27388395222E+03  0.95773768241E+02 0.  0.
         23    2    4    4    0    0 -0.23429471962E+03 -0.31485531555E+03  0.29798861247E+03  0.50132860716E+03  0.92224041470E+02 0.  0.
          1    1    3    3  502    0  0.17280896633E+02  0.19715754533E+02  0.34754235582E+02  0.43533863326E+02  0.00000000000E+00 0. -1.
         -1    1    3    3    0  502  0.16704592654E+02  0.42530856811E+03  0.20349253080E+03  0.47177921914E+03  0.00000000000E+00 0.  1.
         15    1    5    5    0    0  0.12143192580E+03 -0.11855167428E+03 -0.31135206637E+02  0.17254788002E+03  0.17770000000E+01 0.  1.
        -15    1    5    5    0    0  0.78877304527E+02 -0.11617332813E+02 -0.62523997055E+02  0.10133607219E+03  0.17770000000E+01 0. -1.
          1    1    6    6  503    0 -0.13538458990E+03 -0.13905211924E+03  0.19390025416E+03  0.27433881900E+03  0.00000000000E+00 0. -1.
         -1    1    6    6    0  503 -0.98910129717E+02 -0.17580319630E+03  0.10408835831E+03  0.22698978815E+03  0.00000000000E+00 0.  1.
<mgrwt>
<rscale>  0 0.54855411E+03</rscale>
<asrwt>0</asrwt>
<pdfrwt beam="1">  1        2 0.13331552E+00 0.54855411E+03</pdfrwt>
<pdfrwt beam="2">  1       -2 0.65226882E-01 0.54855411E+03</pdfrwt>
<totfact> 0.69107581E+01</totfact>
</mgrwt>
</event>
<event>
12    1  0.8033771E-008  0.3906758E+03  0.7818608E-02  0.1047057E+00
         -1   -1    0    0    0  501 -0.00000000000E+00  0.00000000000E+00  0.47457804679E+03  0.47457804679E+03  0.00000000000E+00 0.  1.
          1   -1    0    0  501    0  0.00000000000E+00 -0.00000000000E+00 -0.64403033778E+03  0.64403033778E+03  0.00000000000E+00 0. -1.
         23    2    1    2    0    0 -0.28835473627E+03 -0.24180669890E+03  0.10642713954E+02  0.38774168144E+03  0.92797686386E+02 0.  0.
    5000000    2    1    2    0    0  0.28835473627E+03  0.24180669890E+03 -0.18009500495E+03  0.73086670313E+03  0.60009415375E+03 0.  0.
         23    2    4    4    0    0  0.15107715931E+03  0.15714406233E+03  0.20011218681E+03  0.30766650186E+03  0.84233156577E+02 0.  0.
         23    2    4    4    0    0  0.13727757696E+03  0.84662636575E+02 -0.38020719175E+03  0.42320020127E+03  0.92347206352E+02 0.  0.
          2    1    3    3  502    0 -0.15425187236E+03 -0.77675783282E+02 -0.18927460444E+02  0.17373950671E+03  0.00000000000E+00 0. -1.
         -2    1    3    3    0  502 -0.13410286392E+03 -0.16413091562E+03  0.29570174397E+02  0.21400217472E+03  0.00000000000E+00 0.  1.
         15    1    5    5    0    0  0.11710624943E+03  0.10031431091E+03  0.88270121102E+02  0.17768400783E+03  0.17770000000E+01 0. -1.
        -15    1    5    5    0    0  0.33970909881E+02  0.56829751417E+02  0.11184206571E+03  0.12998249403E+03  0.17770000000E+01 0.  1.
          1    1    6    6  503    0  0.39651666573E+02  0.65801554995E+02 -0.10156016421E+03  0.12734428239E+03  0.00000000000E+00 0. -1.
         -1    1    6    6    0  503  0.97625910387E+02  0.18861081580E+02 -0.27864702754E+03  0.29585591888E+03  0.00000000000E+00 0.  1.
<mgrwt>
<rscale>  0 0.39067583E+03</rscale>
<asrwt>0</asrwt>
<pdfrwt beam="1">  1        1 0.99081590E-01 0.39067583E+03</pdfrwt>
<pdfrwt beam="2">  1       -1 0.73012007E-01 0.39067583E+03</pdfrwt>
<totfact> 0.62118820E+01</totfact>
</mgrwt>
</event>
<event>
12    1  0.8033771E-008  0.4694844E+03  0.7818608E-02  0.1022066E+00
          2   -1    0    0  501    0  0.00000000000E+00  0.00000000000E+00  0.19337849644E+04  0.19337849644E+04  0.00000000000E+00 0. -1.
         -2   -1    0    0    0  501 -0.00000000000E+00 -0.00000000000E+00 -0.20547433373E+03  0.20547433373E+03  0.00000000000E+00 0.  1.
         23    2    1    2    0    0  0.96043292274E+02  0.28020854604E+03  0.13191226275E+04  0.13549588654E+04  0.89932625919E+02 0.  0.
    5000000    2    1    2    0    0 -0.96043292274E+02 -0.28020854604E+03  0.40918800313E+03  0.78430043271E+03  0.59995933494E+03 0.  0.
         23    2    4    4    0    0  0.17992548499E+03  0.31994619546E+02  0.25862294645E+03  0.33203915864E+03  0.99836559496E+02 0.  0.
         23    2    4    4    0    0 -0.27596877726E+03 -0.31220316559E+03  0.15056505668E+03  0.45226127407E+03  0.90779078565E+02 0.  0.
          1    1    3    3  502    0 -0.13975693989E+02  0.31148906943E+02  0.21888022196E+03  0.22152680649E+03  0.00000000000E+00 0. -1.
         -1    1    3    3    0  502  0.11001898626E+03  0.24905963910E+03  0.11002424055E+04  0.11334320589E+04  0.00000000000E+00 0.  1.
         15    1    5    5    0    0  0.10429346220E+03 -0.29992631490E+02  0.15826484216E+03  0.19190519064E+03  0.17770000000E+01 0. -1.
        -15    1    5    5    0    0  0.75632022782E+02  0.61987251036E+02  0.10035810429E+03  0.14013396800E+03  0.17770000000E+01 0.  1.
          3    1    6    6  503    0 -0.22206966289E+02 -0.77261616376E+02  0.34529897229E+02  0.87491831158E+02  0.00000000000E+00 0. -1.
         -3    1    6    6    0  503 -0.25376181097E+03 -0.23494154921E+03  0.11603515945E+03  0.36476944291E+03  0.00000000000E+00 0.  1.
<mgrwt>
<rscale>  0 0.46948442E+03</rscale>
<asrwt>0</asrwt>
<pdfrwt beam="1">  1        2 0.29750537E+00 0.46948442E+03</pdfrwt>
<pdfrwt beam="2">  1       -2 0.31611437E-01 0.46948442E+03</pdfrwt>
<totfact> 0.72178542E+01</totfact>
</mgrwt>
</event>
<event>
12    1  0.8033771E-008  0.6293965E+03  0.7818608E-02  0.9846227E-01
         -2   -1    0    0    0  501 -0.00000000000E+00  0.00000000000E+00  0.86209817955E+03  0.86209817955E+03  0.00000000000E+00 0.  1.
          2   -1    0    0  501    0  0.00000000000E+00 -0.00000000000E+00 -0.83941779848E+03  0.83941779848E+03  0.00000000000E+00 0. -1.
         23    2    1    2    0    0  0.52144491507E+03 -0.26117498991E+03  0.46831242090E+03  0.75354686622E+03  0.91647046905E+02 0.  0.
    5000000    2    1    2    0    0 -0.52144491507E+03  0.26117498991E+03 -0.44563203984E+03  0.94796911182E+03  0.59995028729E+03 0.  0.
         23    2    4    4    0    0 -0.31281388012E+02 -0.37421936028E+02 -0.34305965263E+03  0.35773476168E+03  0.88911798544E+02 0.  0.
         23    2    4    4    0    0 -0.49016352706E+03  0.29859692594E+03 -0.10257238721E+03  0.59023435014E+03  0.91842724408E+02 0.  0.
          3    1    3    3  502    0  0.38603170844E+03 -0.19793354072E+03  0.29460473408E+03  0.52439499979E+03  0.00000000000E+00 0. -1.
         -3    1    3    3    0  502  0.13541320663E+03 -0.63241449194E+02  0.17370768682E+03  0.22915186643E+03  0.00000000000E+00 0.  1.
         15    1    5    5    0    0 -0.52285493745E+02 -0.53126829510E+02 -0.23617007322E+03  0.24766044110E+03  0.17770000000E+01 0. -1.
        -15    1    5    5    0    0  0.21004105732E+02  0.15704893483E+02 -0.10688957940E+03  0.11007432058E+03  0.17770000000E+01 0.  1.
          1    1    6    6  503    0 -0.18060269123E+03  0.93886671535E+02 -0.79064768626E+02  0.21836500821E+03  0.00000000000E+00 0. -1.
         -1    1    6    6    0  503 -0.30956083582E+03  0.20471025440E+03 -0.23507618585E+02  0.37186934193E+03  0.00000000000E+00 0.  1.
<mgrwt>
<rscale>  0 0.62939655E+03</rscale>
<asrwt>0</asrwt>
<pdfrwt beam="1">  1        2 0.12914120E+00 0.62939655E+03</pdfrwt>
<pdfrwt beam="2">  1       -2 0.13263049E+00 0.62939655E+03</pdfrwt>
<totfact> 0.13726013E+01</totfact>
</mgrwt>
</event>
<event>
12    1  0.8033771E-008  0.5521015E+03  0.7818608E-02  0.1001009E+00
          1   -1    0    0  501    0  0.00000000000E+00  0.00000000000E+00  0.95889717039E+03  0.95889717039E+03  0.00000000000E+00 0. -1.
         -1   -1    0    0    0  501 -0.00000000000E+00 -0.00000000000E+00 -0.34281584344E+03  0.34281584344E+03  0.00000000000E+00 0.  1.
         23    2    1    2    0    0 -0.35261659084E+03 -0.18530251789E+03  0.33779887414E+03  0.52998150387E+03  0.89982397187E+02 0.  0.
    5000000    2    1    2    0    0  0.35261659084E+03  0.18530251789E+03  0.27828245281E+03  0.77173150996E+03  0.59954392387E+03 0.  0.
         23    2    4    4    0    0 -0.10511712576E+03 -0.96880318854E+02  0.10136117792E+03  0.19771422445E+03  0.91550094773E+02 0.  0.
         23    2    4    4    0    0  0.45773371660E+03  0.28218283674E+03  0.17692127488E+03  0.57401728550E+03  0.95117810567E+02 0.  0.
          3    1    3    3  502    0 -0.26648052983E+03 -0.12678149557E+03  0.19683398232E+03  0.35472388839E+03  0.00000000000E+00 0. -1.
         -3    1    3    3    0  502 -0.86136061015E+02 -0.58521022319E+02  0.14096489182E+03  0.17525761548E+03  0.00000000000E+00 0.  1.
         15    1    5    5    0    0 -0.10998289463E+02 -0.60054345041E+02  0.67684973561E+02  0.91169622706E+02  0.17770000000E+01 0. -1.
        -15    1    5    5    0    0 -0.94118836293E+02 -0.36825973813E+02  0.33676204364E+02  0.10654460175E+03  0.17770000000E+01 0.  1.
          4    1    6    6  503    0  0.86446464103E+02  0.89750963954E+02  0.67623754983E+02  0.14177869701E+03  0.00000000000E+00 0. -1.
         -4    1    6    6    0  503  0.37128725249E+03  0.19243187279E+03  0.10929751990E+03  0.43223858850E+03  0.00000000000E+00 0.  1.
<mgrwt>
<rscale>  0 0.55210148E+03</rscale>
<asrwt>0</asrwt>
<pdfrwt beam="1">  1        1 0.14752264E+00 0.55210148E+03</pdfrwt>
<pdfrwt beam="2">  1       -1 0.52740899E-01 0.55210148E+03</pdfrwt>
<totfact> 0.61716108E+01</totfact>
</mgrwt>
</event>
<event>
12    1  0.8033771E-008  0.4181611E+03  0.7818608E-02  0.1037666E+00
          2   -1    0    0  501    0  0.00000000000E+00  0.00000000000E+00  0.51391477824E+03  0.51391477824E+03  0.00000000000E+00 0. -1.
         -2   -1    0    0    0  501 -0.00000000000E+00 -0.00000000000E+00 -0.37908996676E+03  0.37908996676E+03  0.00000000000E+00 0.  1.
         23    2    1    2    0    0 -0.19295021934E+02  0.21423074390E+03  0.10050633205E+03  0.25451799935E+03  0.91710303147E+02 0.  0.
    5000000    2    1    2    0    0  0.19295021934E+02 -0.21423074390E+03  0.34318479431E+02  0.63848674566E+03  0.60018368593E+03 0.  0.
         23    2    4    4    0    0 -0.18864745185E+03  0.87100951715E+02 -0.86899721914E+02  0.24284535771E+03  0.90817780269E+02 0.  0.
         23    2    4    4    0    0  0.20794247379E+03 -0.30133169562E+03  0.12121820134E+03  0.39564138795E+03  0.88302844415E+02 0.  0.
          2    1    3    3  502    0 -0.82329591904E+01 -0.77871195406E+01  0.26438391669E+01  0.11636611762E+02  0.00000000000E+00 0. -1.
         -2    1    3    3    0  502 -0.11062062743E+02  0.22201786345E+03  0.97862492883E+02  0.24288138758E+03  0.00000000000E+00 0.  1.
         15    1    5    5    0    0 -0.11517849228E+03  0.39673540776E+01 -0.52681653352E+02  0.12672939403E+03  0.17770000000E+01 0. -1.
        -15    1    5    5    0    0 -0.73468959578E+02  0.83133597637E+02 -0.34218068562E+02  0.11611596369E+03  0.17770000000E+01 0.  1.
          2    1    6    6  503    0  0.15016926203E+03 -0.27424729921E+03  0.10465791229E+03  0.32972058927E+03  0.00000000000E+00 0. -1.
         -2    1    6    6    0  503  0.57773211754E+02 -0.27084396413E+02  0.16560289055E+02  0.65920798683E+02  0.00000000000E+00 0.  1.
<mgrwt>
<rscale>  0 0.41816114E+03</rscale>
<asrwt>0</asrwt>
<pdfrwt beam="1">  1        2 0.79063813E-01 0.41816114E+03</pdfrwt>
<pdfrwt beam="2">  1       -2 0.58321533E-01 0.41816114E+03</pdfrwt>
<totfact> 0.16875888E+02</totfact>
</mgrwt>
</event>
<event>
12    1  0.8033771E-008  0.6133678E+03  0.7818608E-02  0.9878054E-01
          1   -1    0    0  501    0  0.00000000000E+00  0.00000000000E+00  0.16910308407E+04  0.16910308407E+04  0.00000000000E+00 0. -1.
         -1   -1    0    0    0  501 -0.00000000000E+00 -0.00000000000E+00 -0.32469416141E+03  0.32469416141E+03  0.00000000000E+00 0.  1.
         23    2    1    2    0    0 -0.33402298249E+03 -0.32679052549E+03  0.28641978085E+02  0.47689545751E+03  0.90804813224E+02 0.  0.
    5000000    2    1    2    0    0  0.33402298249E+03  0.32679052549E+03  0.13376947012E+04  0.15388295446E+04  0.60017151992E+03 0.  0.
         23    2    4    4    0    0  0.41255589253E+03  0.10890223313E+02  0.73448574921E+03  0.84737946102E+03  0.90893749700E+02 0.  0.
         23    2    4    4    0    0 -0.78532910048E+02  0.31590030218E+03  0.60320895200E+03  0.69145008359E+03  0.91004172661E+02 0.  0.
          3    1    3    3  502    0 -0.23335551015E+03 -0.16664157066E+03  0.22638426014E+02  0.28763988862E+03  0.00000000000E+00 0. -1.
         -3    1    3    3    0  502 -0.10066747233E+03 -0.16014895483E+03  0.60035520704E+01  0.18925556889E+03  0.00000000000E+00 0.  1.
         15    1    5    5    0    0  0.12255439448E+03  0.14058452030E+02  0.14478776546E+03  0.19022059414E+03  0.17770000000E+01 0.  1.
        -15    1    5    5    0    0  0.29000149806E+03 -0.31682287175E+01  0.58969798375E+03  0.65715886688E+03  0.17770000000E+01 0. -1.
          1    1    6    6  503    0 -0.67843133475E+02  0.97558404693E+02  0.19363259841E+03  0.22718696321E+03  0.00000000000E+00 0. -1.
         -1    1    6    6    0  503 -0.10689776573E+02  0.21834189749E+03  0.40957635359E+03  0.46426312038E+03  0.00000000000E+00 0.  1.
<mgrwt>
<rscale>  0 0.61336776E+03</rscale>
<asrwt>0</asrwt>
<pdfrwt beam="1">  1        1 0.26015859E+00 0.61336776E+03</pdfrwt>
<pdfrwt beam="2">  1       -1 0.49952949E-01 0.61336776E+03</pdfrwt>
<totfact> 0.20570669E+01</totfact>
</mgrwt>
</event>
<event>
12    1  0.8033771E-008  0.4247896E+03  0.7818608E-02  0.1035519E+00
         -1   -1    0    0    0  501 -0.00000000000E+00  0.00000000000E+00  0.15963000690E+04  0.15963000690E+04  0.00000000000E+00 0. -1.
          1   -1    0    0  501    0  0.00000000000E+00 -0.00000000000E+00 -0.31984858027E+03  0.31984858027E+03  0.00000000000E+00 0.  1.
         23    2    1    2    0    0 -0.27680481001E+03  0.11266659766E+03  0.12016631292E+04  0.12415871162E+04  0.90717286426E+02 0.  0.
    5000000    2    1    2    0    0  0.27680481001E+03 -0.11266659766E+03  0.74788359557E+02  0.67456153305E+03  0.60010440597E+03 0.  0.
         23    2    4    4    0    0  0.23280181414E+03  0.14998378208E+03  0.21174047578E+03  0.36031797408E+03  0.91121862384E+02 0.  0.
         23    2    4    4    0    0  0.44002995876E+02 -0.26265037974E+03 -0.13695211623E+03  0.31424355897E+03  0.95245191958E+02 0.  0.
          4    1    3    3  502    0 -0.15442027485E+03  0.79706847746E+02  0.85497943120E+03  0.87246124879E+03  0.00000000000E+00 0. -1.
         -4    1    3    3    0  502 -0.12238453516E+03  0.32959749915E+02  0.34668369797E+03  0.36912586742E+03  0.00000000000E+00 0.  1.
         15    1    5    5    0    0  0.78268077593E+01  0.95443551000E+01  0.45796741152E+02  0.47464227194E+02  0.17770000000E+01 0.  1.
        -15    1    5    5    0    0  0.22497500638E+03  0.14043942698E+03  0.16594373463E+03  0.31285374688E+03  0.17770000000E+01 0. -1.
          4    1    6    6  503    0 -0.11639554647E+02 -0.65057597602E+02 -0.74687121202E+02  0.99730317916E+02  0.00000000000E+00 0. -1.
         -4    1    6    6    0  503  0.55642550523E+02 -0.19759278214E+03 -0.62264995023E+02  0.21451324106E+03  0.00000000000E+00 0.  1.
<mgrwt>
<rscale>  0 0.42478960E+03</rscale>
<asrwt>0</asrwt>
<pdfrwt beam="1">  1        1 0.49207475E-01 0.42478960E+03</pdfrwt>
<pdfrwt beam="2">  1       -1 0.24558462E+00 0.42478960E+03</pdfrwt>
<totfact> 0.66033025E+00</totfact>
</mgrwt>
</event>
<event>
12    1  0.8033771E-008  0.4802017E+03  0.7818608E-02  0.1019080E+00
          2   -1    0    0  501    0  0.00000000000E+00  0.00000000000E+00  0.21163045626E+04  0.21163045626E+04  0.00000000000E+00 0. -1.
         -2   -1    0    0    0  501 -0.00000000000E+00 -0.00000000000E+00 -0.12283487015E+03  0.12283487015E+03  0.00000000000E+00 0.  1.
         23    2    1    2    0    0 -0.23190192135E+03  0.20866300070E+03  0.86163571360E+03  0.92058980208E+03  0.88038240254E+02 0.  0.
    5000000    2    1    2    0    0  0.23190192135E+03 -0.20866300070E+03  0.11318339788E+04  0.13185496306E+04  0.60017182862E+03 0.  0.
         23    2    4    4    0    0 -0.14954067367E+03 -0.18655746137E+03  0.63896883857E+03  0.68832760196E+03  0.91365264079E+02 0.  0.
         23    2    4    4    0    0  0.38144259502E+03 -0.22105539334E+02  0.49286514023E+03  0.63022202867E+03  0.90976100145E+02 0.  0.
          1    1    3    3  502    0 -0.47849940060E+02  0.98085433193E+02  0.27206938501E+03  0.29314180737E+03  0.00000000000E+00 0. -1.
         -1    1    3    3    0  502 -0.18405198129E+03  0.11057756751E+03  0.58956632859E+03  0.62744799470E+03  0.00000000000E+00 0.  1.
         15    1    5    5    0    0 -0.53794526353E+02 -0.12846438967E+02  0.10467583357E+03  0.11840215337E+03  0.17770000000E+01 0. -1.
        -15    1    5    5    0    0 -0.95746147318E+02 -0.17371102240E+03  0.53429300501E+03  0.56992544860E+03  0.17770000000E+01 0.  1.
          3    1    6    6  503    0  0.34344359659E+03 -0.12526056238E+02  0.38823917678E+03  0.51849789248E+03  0.00000000000E+00 0. -1.
         -3    1    6    6    0  503  0.37998998435E+02 -0.95794830960E+01  0.10462596345E+03  0.11172413619E+03  0.00000000000E+00 0.  1.
<mgrwt>
<rscale>  0 0.48020172E+03</rscale>
<asrwt>0</asrwt>
<pdfrwt beam="1">  1        2 0.32558529E+00 0.48020172E+03</pdfrwt>
<pdfrwt beam="2">  1       -2 0.18897674E-01 0.48020172E+03</pdfrwt>
<totfact> 0.14408075E+02</totfact>
</mgrwt>
</event>
<event>
12    1  0.8033771E-008  0.7628673E+03  0.7818608E-02  0.9615377E-01
         -2   -1    0    0    0  501 -0.00000000000E+00  0.00000000000E+00  0.95058391265E+03  0.95058391265E+03  0.00000000000E+00 0.  1.
          2   -1    0    0  501    0  0.00000000000E+00 -0.00000000000E+00 -0.68639859895E+03  0.68639859895E+03  0.00000000000E+00 0. -1.
         23    2    1    2    0    0  0.66620893579E+02  0.66940481533E+03  0.28470399888E+03  0.73539824949E+03  0.84929783474E+02 0.  0.
    5000000    2    1    2    0    0 -0.66620893579E+02 -0.66940481533E+03 -0.20518685182E+02  0.90158426212E+03  0.59991000576E+03 0.  0.
         23    2    4    4    0    0  0.71055543326E+02 -0.68893353333E+03 -0.12176508630E+03  0.70901049944E+03  0.90503306545E+02 0.  0.
         23    2    4    4    0    0 -0.13767643690E+03  0.19528718000E+02  0.10124640112E+03  0.19257376267E+03  0.86588961330E+02 0.  0.
          2    1    3    3  502    0  0.75908711819E+01  0.63882505038E+02  0.56481127239E+02  0.85607905648E+02  0.00000000000E+00 0. -1.
         -2    1    3    3    0  502  0.59030022397E+02  0.60552231029E+03  0.22822287165E+03  0.64979034384E+03  0.00000000000E+00 0.  1.
         15    1    5    5    0    0  0.71267649599E+02 -0.26192471421E+03 -0.45417014264E+02  0.27522626456E+03  0.17770000000E+01 0. -1.
        -15    1    5    5    0    0 -0.21210627361E+00 -0.42700881912E+03 -0.76348072041E+02  0.43378423488E+03  0.17770000000E+01 0.  1.
          4    1    6    6  503    0 -0.30529068543E+02  0.34823362951E+02  0.62125349439E+02  0.77487093611E+02  0.00000000000E+00 0. -1.
         -4    1    6    6    0  503 -0.10714736836E+03 -0.15294644951E+02  0.39121051683E+02  0.11508666906E+03  0.00000000000E+00 0.  1.
<mgrwt>
<rscale>  0 0.76286734E+03</rscale>
<asrwt>0</asrwt>
<pdfrwt beam="1">  1        2 0.10559978E+00 0.76286734E+03</pdfrwt>
<pdfrwt beam="2">  1       -2 0.14624368E+00 0.76286734E+03</pdfrwt>
<totfact> 0.13639958E+01</totfact>
</mgrwt>
</event>
<event>
12    1  0.8033771E-008  0.1038738E+04  0.7818608E-02  0.9267049E-01
         -2   -1    0    0    0  501 -0.00000000000E+00  0.00000000000E+00  0.20759918810E+04  0.20759918810E+04  0.00000000000E+00 0.  1.
          2   -1    0    0  501    0  0.00000000000E+00 -0.00000000000E+00 -0.92697713625E+03  0.92697713625E+03  0.00000000000E+00 0. -1.
         23    2    1    2    0    0  0.93115247101E+03  0.38370053822E+03  0.14729616054E+04  0.17867520459E+04  0.92714373959E+02 0.  0.
    5000000    2    1    2    0    0 -0.93115247101E+03 -0.38370053822E+03 -0.32394686066E+03  0.12162169714E+04  0.59997593752E+03 0.  0.
         23    2    4    4    0    0 -0.63769823439E+03 -0.42678969445E+03 -0.43554919026E+03  0.88621513219E+03  0.82859410826E+02 0.  0.
         23    2    4    4    0    0 -0.29345423662E+03  0.43089156228E+02  0.11160232961E+03  0.33000183917E+03  0.92054709304E+02 0.  0.
          4    1    3    3  502    0  0.24123821927E+03  0.13097781494E+03  0.35052580917E+03  0.44521838387E+03  0.00000000000E+00 0. -1.
         -4    1    3    3    0  502  0.68991425174E+03  0.25272272328E+03  0.11224357962E+04  0.13415336620E+04  0.00000000000E+00 0.  1.
         15    1    5    5    0    0 -0.20712235000E+03 -0.12560421352E+03 -0.95861366854E+02  0.26051611410E+03  0.17770000000E+01 0.  1.
        -15    1    5    5    0    0 -0.43057588439E+03 -0.30118548092E+03 -0.33968782341E+03  0.62569901809E+03  0.17770000000E+01 0. -1.
          4    1    6    6  503    0 -0.87594830314E+02 -0.93557426062E+01  0.72296613870E+02  0.11396132938E+03  0.00000000000E+00 0.  1.
         -4    1    6    6    0  503 -0.20585940631E+03  0.52444898834E+02  0.39305715737E+02  0.21604050979E+03  0.00000000000E+00 0. -1.
<mgrwt>
<rscale>  0 0.10387378E+04</rscale>
<asrwt>0</asrwt>
<pdfrwt beam="1">  1        2 0.14261187E+00 0.10387378E+04</pdfrwt>
<pdfrwt beam="2">  1       -2 0.31938337E+00 0.10387378E+04</pdfrwt>
<totfact> 0.68023442E-01</totfact>
</mgrwt>
</event>
<event>
12    1  0.8033771E-008  0.9002100E+03  0.7818608E-02  0.9425319E-01
          1   -1    0    0  501    0  0.00000000000E+00  0.00000000000E+00  0.99037074109E+03  0.99037074109E+03  0.00000000000E+00 0. -1.
         -1   -1    0    0    0  501 -0.00000000000E+00 -0.00000000000E+00 -0.10354146939E+04  0.10354146939E+04  0.00000000000E+00 0.  1.
         23    2    1    2    0    0 -0.80215674286E+03 -0.34945847071E+03  0.26762489721E+03  0.91953116459E+03  0.91311632141E+02 0.  0.
    5000000    2    1    2    0    0  0.80215674286E+03  0.34945847071E+03 -0.31266884998E+03  0.11062542704E+04  0.60038324269E+03 0.  0.
         23    2    4    4    0    0  0.59886860538E+03  0.13897931107E+03 -0.45320697986E+03  0.76915067815E+03  0.90759813201E+02 0.  0.
         23    2    4    4    0    0  0.20328813748E+03  0.21047915965E+03  0.14053812988E+03  0.33710359222E+03  0.90886316086E+02 0.  0.
          4    1    3    3  502    0 -0.54503777905E+02 -0.53136969006E+00  0.12514760308E+02  0.55924622352E+02  0.00000000000E+00 0. -1.
         -4    1    3    3    0  502 -0.74765296496E+03 -0.34892710102E+03  0.25511013690E+03  0.86360654223E+03  0.00000000000E+00 0.  1.
         15    1    5    5    0    0  0.36175399355E+03  0.81597420652E+02 -0.21751025438E+03  0.42992785372E+03  0.17770000000E+01 0.  1.
        -15    1    5    5    0    0  0.23711461183E+03  0.57381890414E+02 -0.23569672548E+03  0.33922282444E+03  0.17770000000E+01 0. -1.
          1    1    6    6  503    0  0.71469050972E+02  0.13847846716E+03  0.63206807215E+02  0.16816423993E+03  0.00000000000E+00 0. -1.
         -1    1    6    6    0  503  0.13181908651E+03  0.72000692489E+02  0.77331322664E+02  0.16893935229E+03  0.00000000000E+00 0.  1.
<mgrwt>
<rscale>  0 0.90020999E+03</rscale>
<asrwt>0</asrwt>
<pdfrwt beam="1">  1        1 0.15236473E+00 0.90020999E+03</pdfrwt>
<pdfrwt beam="2">  1       -1 0.15929457E+00 0.90020999E+03</pdfrwt>
<totfact> 0.46237695E+00</totfact>
</mgrwt>
</event>
<event>
12    1  0.8033771E-008  0.1150783E+04  0.7818608E-02  0.9157062E-01
          2   -1    0    0  501    0  0.00000000000E+00  0.00000000000E+00  0.17635531602E+04  0.17635531602E+04  0.00000000000E+00 0. -1.
         -2   -1    0    0    0  501 -0.00000000000E+00 -0.00000000000E+00 -0.85597497100E+03  0.85597497100E+03  0.00000000000E+00 0.  1.
         23    2    1    2    0    0  0.11391133238E+04  0.12891265863E+02  0.23422865661E+03  0.11667185610E+04  0.92864350719E+02 0.  0.
    5000000    2    1    2    0    0 -0.11391133238E+04 -0.12891265863E+02  0.67334953254E+03  0.14528095702E+04  0.59959211556E+03 0.  0.
         23    2    4    4    0    0 -0.36872690936E+03 -0.66911188796E+02  0.53949560599E+03  0.66384996073E+03  0.95940714019E+02 0.  0.
         23    2    4    4    0    0 -0.77038641447E+03  0.54019922933E+02  0.13385392655E+03  0.78895960947E+03  0.90149942055E+02 0.  0.
          2    1    3    3  502    0  0.76510441920E+03  0.45611540755E+02  0.13348730753E+03  0.77800002969E+03  0.00000000000E+00 0.  1.
         -2    1    3    3    0  502  0.37400890463E+03 -0.32720274892E+02  0.10074134908E+03  0.38871853126E+03  0.00000000000E+00 0. -1.
         15    1    5    5    0    0 -0.12089655643E+03  0.22227364897E+02  0.18797257575E+03  0.22460382915E+03  0.17770000000E+01 0. -1.
        -15    1    5    5    0    0 -0.24783035293E+03 -0.89138553693E+02  0.35152303025E+03  0.43924613158E+03  0.17770000000E+01 0.  1.
          3    1    6    6  503    0 -0.21649963090E+03 -0.31375140617E+01  0.74483275674E+02  0.22897530987E+03  0.00000000000E+00 0. -1.
         -3    1    6    6    0  503 -0.55388678356E+03  0.57157436994E+02  0.59370650872E+02  0.55998429960E+03  0.00000000000E+00 0.  1.
<mgrwt>
<rscale>  0 0.11507829E+04</rscale>
<asrwt>0</asrwt>
<pdfrwt beam="1">  1        2 0.27131587E+00 0.11507829E+04</pdfrwt>
<pdfrwt beam="2">  1       -2 0.13168846E+00 0.11507829E+04</pdfrwt>
<totfact> 0.37195846E+00</totfact>
</mgrwt>
</event>
<event>
12    1  0.8033771E-008  0.1975524E+04  0.7818608E-02  0.8618150E-01
          2   -1    0    0  501    0  0.00000000000E+00  0.00000000000E+00  0.21235637886E+04  0.21235637886E+04  0.00000000000E+00 0. -1.
         -2   -1    0    0    0  501 -0.00000000000E+00 -0.00000000000E+00 -0.22054464834E+04  0.22054464834E+04  0.00000000000E+00 0.  1.
         23    2    1    2    0    0  0.19139762862E+04  0.32051244964E+03 -0.89740179525E+03  0.21401524135E+04  0.94281051473E+02 0.  0.
    5000000    2    1    2    0    0 -0.19139762862E+04 -0.32051244964E+03  0.81551910047E+03  0.21888578584E+04  0.59999488884E+03 0.  0.
         23    2    4    4    0    0 -0.10806999457E+03  0.84053783055E+02  0.40502913088E+01  0.16600178448E+03  0.93787128200E+02 0.  0.
         23    2    4    4    0    0 -0.18059062916E+04 -0.40456623269E+03  0.81146880916E+03  0.20228560739E+04  0.92161254851E+02 0.  0.
          2    1    3    3  502    0  0.54240660856E+03  0.57764176081E+02 -0.28205102016E+03  0.61408013079E+03  0.00000000000E+00 0. -1.
         -2    1    3    3    0  502  0.13715696776E+04  0.26274827356E+03 -0.61535077509E+03  0.15260722828E+04  0.00000000000E+00 0.  1.
         15    1    5    5    0    0 -0.94385995666E+02  0.24883778163E+02  0.26613617522E+02  0.10118972754E+03  0.17770000000E+01 0.  1.
        -15    1    5    5    0    0 -0.13683998909E+02  0.59170004892E+02 -0.22563326213E+02  0.64812056933E+02  0.17770000000E+01 0. -1.
          3    1    6    6  503    0 -0.14130246805E+04 -0.31923896917E+03  0.59320690314E+03  0.15653902699E+04  0.00000000000E+00 0. -1.
         -3    1    6    6    0  503 -0.39288161114E+03 -0.85327263518E+02  0.21826190602E+03  0.45746580407E+03  0.00000000000E+00 0.  1.
<mgrwt>
<rscale>  0 0.19755237E+04</rscale>
<asrwt>0</asrwt>
<pdfrwt beam="1">  1        2 0.32670212E+00 0.19755237E+04</pdfrwt>
<pdfrwt beam="2">  1       -2 0.33929946E+00 0.19755237E+04</pdfrwt>
<totfact> 0.92129070E-02</totfact>
</mgrwt>
</event>
<event>
12    1  0.8033771E-008  0.1277341E+04  0.7818608E-02  0.9047729E-01
         -2   -1    0    0    0  501 -0.00000000000E+00  0.00000000000E+00  0.11187246099E+04  0.11187246099E+04  0.00000000000E+00 0.  1.
          2   -1    0    0  501    0  0.00000000000E+00 -0.00000000000E+00 -0.16111147484E+04  0.16111147484E+04  0.00000000000E+00 0. -1.
         23    2    1    2    0    0 -0.50726972804E+03 -0.11131480652E+04 -0.59500464420E+03  0.13634831769E+04  0.92922845633E+02 0.  0.
    5000000    2    1    2    0    0  0.50726972804E+03  0.11131480652E+04  0.10261450578E+03  0.13663561814E+04  0.59998190440E+03 0.  0.
         23    2    4    4    0    0  0.19596358767E+03  0.95984558054E+03 -0.25626113868E+02  0.98409965912E+03  0.89945401245E+02 0.  0.
         23    2    4    4    0    0  0.31130614037E+03  0.15330248462E+03  0.12824061965E+03  0.38225652224E+03  0.96235271317E+02 0.  0.
          4    1    3    3  502    0 -0.18553211658E+03 -0.37401169343E+03 -0.25004238813E+03  0.48664988335E+03  0.00000000000E+00 0. -1.
         -4    1    3    3    0  502 -0.32173761146E+03 -0.73913637173E+03 -0.34496225607E+03  0.87683329359E+03  0.00000000000E+00 0.  1.
         15    1    5    5    0    0  0.11261661784E+03  0.50461731197E+03  0.30371833366E+02  0.51792541948E+03  0.17770000000E+01 0. -1.
        -15    1    5    5    0    0  0.83346969828E+02  0.45522826856E+03 -0.55997947234E+02  0.46617423964E+03  0.17770000000E+01 0.  1.
          2    1    6    6  503    0  0.22654836747E+03  0.83582543238E+02  0.12625607917E+03  0.27249000324E+03  0.00000000000E+00 0. -1.
         -2    1    6    6    0  503  0.84757772902E+02  0.69719941385E+02  0.19845404818E+01  0.10976651901E+03  0.00000000000E+00 0.  1.
<mgrwt>
<rscale>  0 0.12773412E+04</rscale>
<asrwt>0</asrwt>
<pdfrwt beam="1">  1        2 0.24786381E+00 0.12773412E+04</pdfrwt>
<pdfrwt beam="2">  1       -2 0.17211148E+00 0.12773412E+04</pdfrwt>
<totfact> 0.21799216E+00</totfact>
</mgrwt>
</event>
<event>
12    1  0.8033771E-008  0.1635739E+04  0.7818608E-02  0.8798888E-01
         -2   -1    0    0    0  501 -0.00000000000E+00  0.00000000000E+00  0.23260416703E+04  0.23260416703E+04  0.00000000000E+00 0.  1.
          2   -1    0    0  501    0  0.00000000000E+00 -0.00000000000E+00 -0.14239977088E+04  0.14239977088E+04  0.00000000000E+00 0. -1.
         23    2    1    2    0    0 -0.91007660213E+02 -0.16314882398E+04 -0.26017955617E+03  0.16570507600E+04  0.89930800757E+02 0.  0.
    5000000    2    1    2    0    0  0.91007660213E+02  0.16314882398E+04  0.11622235176E+04  0.20929886191E+04  0.59983463060E+03 0.  0.
         23    2    4    4    0    0  0.12292914185E+01  0.27744506306E+03  0.50331477052E+03  0.58187608746E+03  0.90976638553E+02 0.  0.
         23    2    4    4    0    0  0.89778368795E+02  0.13540431767E+04  0.65890874708E+03  0.15111125317E+04  0.88358736870E+02 0.  0.
          4    1    3    3  502    0 -0.57805935216E+02 -0.14762230705E+04 -0.22448321864E+03  0.14943121480E+04  0.00000000000E+00 0. -1.
         -4    1    3    3    0  502 -0.33201724997E+02 -0.15526516926E+03 -0.35696337533E+02  0.16273861202E+03  0.00000000000E+00 0.  1.
         15    1    5    5    0    0 -0.56515300951E+01  0.80175919994E+02  0.23780648848E+03  0.25102828851E+03  0.17770000000E+01 0.  1.
        -15    1    5    5    0    0  0.68808215136E+01  0.19726914307E+03  0.26550828204E+03  0.33084779895E+03  0.17770000000E+01 0. -1.
          3    1    6    6  503    0  0.40705530443E+02  0.88918209240E+03  0.47371917788E+03  0.10083211756E+04  0.00000000000E+00 0. -1.
         -3    1    6    6    0  503  0.49072838351E+02  0.46486108433E+03  0.18518956920E+03  0.50279135606E+03  0.00000000000E+00 0.  1.
<mgrwt>
<rscale>  0 0.16357394E+04</rscale>
<asrwt>0</asrwt>
<pdfrwt beam="1">  1        2 0.21907657E+00 0.16357394E+04</pdfrwt>
<pdfrwt beam="2">  1       -2 0.35785257E+00 0.16357394E+04</pdfrwt>
<totfact> 0.18076492E-01</totfact>
</mgrwt>
</event>
<event>
12    1  0.8033771E-008  0.4994703E+03  0.7818608E-02  0.1013917E+00
          1   -1    0    0  501    0  0.00000000000E+00  0.00000000000E+00  0.10083581639E+04  0.10083581639E+04  0.00000000000E+00 0. -1.
         -1   -1    0    0    0  501 -0.00000000000E+00 -0.00000000000E+00 -0.45466216000E+03  0.45466216000E+03  0.00000000000E+00 0.  1.
         23    2    1    2    0    0 -0.29746756404E+03  0.19158546893E+03 -0.21604791973E+03  0.42491963083E+03  0.93209685545E+02 0.  0.
    5000000    2    1    2    0    0  0.29746756404E+03 -0.19158546893E+03  0.76974392360E+03  0.10381006930E+04  0.59996283003E+03 0.  0.
         23    2    4    4    0    0  0.13267943060E+03  0.17728659419E+03  0.12133016646E+03  0.26855700483E+03  0.91473973178E+02 0.  0.
         23    2    4    4    0    0  0.16478813345E+03 -0.36887206312E+03  0.64841375715E+03  0.76954368822E+03  0.92387010690E+02 0.  0.
          2    1    3    3  502    0 -0.17674560537E+03  0.69614948734E+02 -0.14589962026E+03  0.23952442317E+03  0.00000000000E+00 0. -1.
         -2    1    3    3    0  502 -0.12072195868E+03  0.12197052019E+03 -0.70148299474E+02  0.18539520766E+03  0.00000000000E+00 0.  1.
         15    1    5    5    0    0  0.89763408323E+02  0.59211135725E+02  0.86930384660E+02  0.13828766241E+03  0.17770000000E+01 0. -1.
        -15    1    5    5    0    0  0.42916022273E+02  0.11807545846E+03  0.34399781799E+02  0.13026934243E+03  0.17770000000E+01 0.  1.
          1    1    6    6  503    0  0.65010854093E+02 -0.15961315991E+03  0.19461337357E+03  0.25995602924E+03  0.00000000000E+00 0. -1.
         -1    1    6    6    0  503  0.99777279354E+02 -0.20925890321E+03  0.45380038357E+03  0.50958765897E+03  0.00000000000E+00 0.  1.
<mgrwt>
<rscale>  0 0.49947026E+03</rscale>
<asrwt>0</asrwt>
<pdfrwt beam="1">  1        1 0.15513202E+00 0.49947026E+03</pdfrwt>
<pdfrwt beam="2">  1       -1 0.69948025E-01 0.49947026E+03</pdfrwt>
<totfact> 0.32707062E+01</totfact>
</mgrwt>
</event>
<event>
12    1  0.8033771E-008  0.3562270E+03  0.7818608E-02  0.1060088E+00
          2   -1    0    0  501    0  0.00000000000E+00  0.00000000000E+00  0.23955067620E+04  0.23955067620E+04  0.00000000000E+00 0. -1.
         -2   -1    0    0    0  501 -0.00000000000E+00 -0.00000000000E+00 -0.96828896472E+02  0.96828896472E+02  0.00000000000E+00 0.  1.
         23    2    1    2    0    0  0.20689181278E+03 -0.55718188557E+02  0.22879995931E+03  0.32671439476E+03  0.92109367776E+02 0.  0.
    5000000    2    1    2    0    0 -0.20689181278E+03  0.55718188557E+02  0.20698779062E+04  0.21656212637E+04  0.59967672329E+03 0.  0.
         23    2    4    4    0    0 -0.32443865017E+03 -0.25822432718E+02  0.18826077774E+04  0.19126885566E+04  0.90764725313E+02 0.  0.
         23    2    4    4    0    0  0.11754683739E+03  0.81540621275E+02  0.18727012886E+03  0.25293270712E+03  0.91862512888E+02 0.  0.
          4    1    3    3  502    0  0.13889776601E+03  0.63062290837E+01  0.11557869789E+03  0.18080595492E+03  0.00000000000E+00 0. -1.
         -4    1    3    3    0  502  0.67994046772E+02 -0.62024417641E+02  0.11322126142E+03  0.14590843985E+03  0.00000000000E+00 0.  1.
         15    1    5    5    0    0 -0.39236277824E+02  0.14891006418E+02  0.41131358045E+03  0.41345283499E+03  0.17770000000E+01 0.  1.
        -15    1    5    5    0    0 -0.28520237234E+03 -0.40713439136E+02  0.14712941969E+04  0.14992357216E+04  0.17770000000E+01 0. -1.
          3    1    6    6  503    0  0.54418315885E+02  0.67322189085E+02  0.16158391823E+03  0.18331119136E+03  0.00000000000E+00 0.  1.
         -3    1    6    6    0  503  0.63128521501E+02  0.14218432189E+02  0.25686210623E+02  0.69621515762E+02  0.00000000000E+00 0. -1.
<mgrwt>
<rscale>  0 0.35622704E+03</rscale>
<asrwt>0</asrwt>
<pdfrwt beam="1">  1        2 0.36853946E+00 0.35622704E+03</pdfrwt>
<pdfrwt beam="2">  1       -2 0.14896755E-01 0.35622704E+03</pdfrwt>
<totfact> 0.15565051E+02</totfact>
</mgrwt>
</event>
<event>
12    1  0.8033771E-008  0.7110066E+03  0.7818608E-02  0.9698592E-01
         -2   -1    0    0    0  501 -0.00000000000E+00  0.00000000000E+00  0.38360700623E+03  0.38360700623E+03  0.00000000000E+00 0.  1.
          2   -1    0    0  501    0  0.00000000000E+00 -0.00000000000E+00 -0.22121998816E+04  0.22121998816E+04  0.00000000000E+00 0. -1.
         23    2    1    2    0    0  0.64657335304E+03  0.19107402896E+03 -0.16126621725E+03  0.69988640088E+03  0.96269392381E+02 0.  0.
    5000000    2    1    2    0    0 -0.64657335304E+03 -0.19107402896E+03 -0.16673266582E+04  0.18959204870E+04  0.59997493498E+03 0.  0.
         23    2    4    4    0    0 -0.36522240467E+03 -0.24998127906E+03 -0.14596614933E+04  0.15280438032E+04  0.91804927711E+02 0.  0.
         23    2    4    4    0    0 -0.28135094836E+03  0.58907250099E+02 -0.20766516488E+03  0.36787668381E+03  0.97877543519E+02 0.  0.
          3    1    3    3  502    0  0.41899097920E+03  0.13783124342E+03 -0.59913259867E+02  0.44512974628E+03  0.00000000000E+00 0. -1.
         -3    1    3    3    0  502  0.22758237384E+03  0.53242785539E+02 -0.10135295738E+03  0.25475665460E+03  0.00000000000E+00 0.  1.
         15    1    5    5    0    0 -0.35915272895E+03 -0.23378941730E+03 -0.13329466005E+04  0.14001421256E+04  0.17770000000E+01 0. -1.
        -15    1    5    5    0    0 -0.60696757185E+01 -0.16191861760E+02 -0.12671489275E+03  0.12790167757E+03  0.17770000000E+01 0.  1.
          3    1    6    6  503    0 -0.13485614875E+03 -0.17613709896E+02 -0.11678187971E+03  0.17926079064E+03  0.00000000000E+00 0. -1.
         -3    1    6    6    0  503 -0.14649479961E+03  0.76520959994E+02 -0.90883285170E+02  0.18861589317E+03  0.00000000000E+00 0.  1.
<mgrwt>
<rscale>  0 0.71100657E+03</rscale>
<asrwt>0</asrwt>
<pdfrwt beam="1">  1        2 0.34033846E+00 0.71100657E+03</pdfrwt>
<pdfrwt beam="2">  1       -2 0.59016460E-01 0.71100657E+03</pdfrwt>
<totfact> 0.14262665E+01</totfact>
</mgrwt>
</event>
<event>
12    1  0.8033771E-008  0.6503661E+03  0.7818608E-02  0.9806092E-01
          2   -1    0    0  501    0  0.00000000000E+00  0.00000000000E+00  0.19627953699E+04  0.19627953699E+04  0.00000000000E+00 0. -1.
         -2   -1    0    0    0  501 -0.00000000000E+00 -0.00000000000E+00 -0.37171286119E+03  0.37171286119E+03  0.00000000000E+00 0.  1.
         23    2    1    2    0    0  0.44333088910E+03 -0.46173287380E+03  0.12220392101E+04  0.13826077332E+04  0.92112914828E+02 0.  0.
    5000000    2    1    2    0    0 -0.44333088910E+03  0.46173287380E+03  0.36904329868E+03  0.95190049789E+03  0.60015171215E+03 0.  0.
         23    2    4    4    0    0 -0.23268880783E+03  0.32509713923E+03 -0.90648891294E+02  0.42009019523E+03  0.91794985775E+02 0.  0.
         23    2    4    4    0    0 -0.21064208128E+03  0.13663573458E+03  0.45969218997E+03  0.53181030266E+03  0.92010206631E+02 0.  0.
          3    1    3    3  502    0  0.15553335974E+02 -0.48291003017E+02  0.11897666509E+03  0.12934208158E+03  0.00000000000E+00 0. -1.
         -3    1    3    3    0  502  0.42777755313E+03 -0.41344187079E+03  0.11030625450E+04  0.12532656517E+04  0.00000000000E+00 0.  1.
         15    1    5    5    0    0 -0.22743833643E+03  0.29539851815E+03 -0.61023404055E+02  0.37777704400E+03  0.17770000000E+01 0.  1.
        -15    1    5    5    0    0 -0.52504713990E+01  0.29698621079E+02 -0.29625487239E+02  0.42313151230E+02  0.17770000000E+01 0. -1.
          4    1    6    6  503    0 -0.10374272825E+02  0.15627213512E+01  0.87325746631E+02  0.87953701795E+02  0.00000000000E+00 0. -1.
         -4    1    6    6    0  503 -0.20026780845E+03  0.13507301323E+03  0.37236644334E+03  0.44385660087E+03  0.00000000000E+00 0.  1.
<mgrwt>
<rscale>  0 0.65036612E+03</rscale>
<asrwt>0</asrwt>
<pdfrwt beam="1">  1        2 0.30196851E+00 0.65036612E+03</pdfrwt>
<pdfrwt beam="2">  1       -2 0.57186595E-01 0.65036612E+03</pdfrwt>
<totfact> 0.21051980E+01</totfact>
</mgrwt>
</event>
<event>
12    1  0.8033771E-008  0.6809963E+03  0.7818608E-02  0.9750294E-01
         -2   -1    0    0    0  501 -0.00000000000E+00  0.00000000000E+00  0.42075413674E+03  0.42075413674E+03  0.00000000000E+00 0.  1.
          2   -1    0    0  501    0  0.00000000000E+00 -0.00000000000E+00 -0.13366363975E+04  0.13366363975E+04  0.00000000000E+00 0. -1.
         23    2    1    2    0    0  0.16251511365E+03  0.59385671469E+03 -0.52207768170E+03  0.81186296396E+03  0.86483563657E+02 0.  0.
    5000000    2    1    2    0    0 -0.16251511365E+03 -0.59385671469E+03 -0.39380457902E+03  0.94552757024E+03  0.59988613910E+03 0.  0.
         23    2    4    4    0    0  0.11980412154E+03 -0.21660996849E+03  0.75354103472E+02  0.27444381106E+03  0.91478186082E+02 0.  0.
         23    2    4    4    0    0 -0.28231923519E+03 -0.37724674619E+03 -0.46915868250E+03  0.67108375918E+03  0.90687840458E+02 0.  0.
          4    1    3    3  502    0  0.89139469820E+02  0.21530911359E+03 -0.23662504128E+03  0.33210731644E+03  0.00000000000E+00 0. -1.
         -4    1    3    3    0  502  0.73375643828E+02  0.37854760110E+03 -0.28545264042E+03  0.47975564752E+03  0.00000000000E+00 0.  1.
         15    1    5    5    0    0 -0.10719609482E+02 -0.53914102635E+02  0.21168410841E+02  0.58931314570E+02  0.17770000000E+01 0.  1.
        -15    1    5    5    0    0  0.13052373102E+03 -0.16269586586E+03  0.54185692630E+02  0.21551249649E+03  0.17770000000E+01 0. -1.
          1    1    6    6  503    0 -0.19908186870E+03 -0.19149858855E+03 -0.26498983115E+03  0.38278572397E+03  0.00000000000E+00 0. -1.
         -1    1    6    6    0  503 -0.83237366487E+02 -0.18574815765E+03 -0.20416885134E+03  0.28829803521E+03  0.00000000000E+00 0.  1.
<mgrwt>
<rscale>  0 0.68099634E+03</rscale>
<asrwt>0</asrwt>
<pdfrwt beam="1">  1        2 0.20563637E+00 0.68099634E+03</pdfrwt>
<pdfrwt beam="2">  1       -2 0.64731406E-01 0.68099634E+03</pdfrwt>
<totfact> 0.35647429E+01</totfact>
</mgrwt>
</event>
<event>
12    1  0.8033771E-008  0.8771567E+03  0.7818608E-02  0.9454596E-01
         -2   -1    0    0    0  501 -0.00000000000E+00  0.00000000000E+00  0.52517866128E+03  0.52517866128E+03  0.00000000000E+00 0.  1.
          2   -1    0    0  501    0  0.00000000000E+00 -0.00000000000E+00 -0.24276330659E+04  0.24276330659E+04  0.00000000000E+00 0. -1.
         23    2    1    2    0    0  0.13743751478E+02 -0.82477426612E+03 -0.42237524640E+02  0.83130392820E+03  0.94025165792E+02 0.  0.
    5000000    2    1    2    0    0 -0.13743751478E+02  0.82477426612E+03 -0.18602168799E+04  0.21215077989E+04  0.59995584822E+03 0.  0.
         23    2    4    4    0    0  0.16413990193E+02  0.52315982908E+00 -0.62474540909E+03  0.63333070416E+03  0.10262193661E+03 0.  0.
         23    2    4    4    0    0 -0.30157741671E+02  0.82425110629E+03 -0.12354714708E+04  0.14881770948E+04  0.89341673218E+02 0.  0.
          1    1    3    3  502    0  0.79218181261E+01 -0.97705296671E+02 -0.35270848341E+02  0.10417827481E+03  0.00000000000E+00 0. -1.
         -1    1    3    3    0  502  0.58219333514E+01 -0.72706896945E+03 -0.69666762985E+01  0.72712565339E+03  0.00000000000E+00 0.  1.
         15    1    5    5    0    0  0.41624584770E+02 -0.36351775363E+02 -0.25717105695E+03  0.26304784335E+03  0.17770000000E+01 0. -1.
        -15    1    5    5    0    0 -0.25210594576E+02  0.36874935192E+02 -0.36757435214E+03  0.37028286080E+03  0.17770000000E+01 0.  1.
          3    1    6    6  503    0  0.29848504042E+02  0.23101570362E+03 -0.36884608685E+03  0.43624147476E+03  0.00000000000E+00 0. -1.
         -3    1    6    6    0  503 -0.60006245713E+02  0.59323540267E+03 -0.86662538399E+03  0.10519356200E+04  0.00000000000E+00 0.  1.
<mgrwt>
<rscale>  0 0.87715666E+03</rscale>
<asrwt>0</asrwt>
<pdfrwt beam="1">  1        2 0.37348201E+00 0.87715666E+03</pdfrwt>
<pdfrwt beam="2">  1       -2 0.80796717E-01 0.87715666E+03</pdfrwt>
<totfact> 0.53168185E+00</totfact>
</mgrwt>
</event>
<event>
12    1  0.8398400E-008  0.6207440E+03  0.7818608E-02  0.9863279E-01
         -1   -1    0    0    0  501 -0.00000000000E+00  0.00000000000E+00  0.44525248788E+03  0.44525248788E+03  0.00000000000E+00 0.  1.
          1   -1    0    0  501    0  0.00000000000E+00 -0.00000000000E+00 -0.13227902797E+04  0.13227902797E+04  0.00000000000E+00 0. -1.
         23    2    1    2    0    0 -0.29426031466E+01 -0.60229798038E+03 -0.10264956692E+03  0.61768708537E+03  0.90713206088E+02 0.  0.
    5000000    2    1    2    0    0  0.29426031466E+01  0.60229798038E+03 -0.77488822486E+03  0.11503556822E+04  0.60007909344E+03 0.  0.
         23    2    4    4    0    0 -0.79167281584E+02  0.30822362347E+03 -0.19164427926E+02  0.33043137197E+03  0.86881273847E+02 0.  0.
         23    2    4    4    0    0  0.82109884731E+02  0.29407435691E+03 -0.75572379693E+03  0.81992431019E+03  0.89082302594E+02 0.  0.
          3    1    3    3  502    0  0.38349157692E+02 -0.38284343393E+03 -0.47567873641E+02  0.38768860623E+03  0.00000000000E+00 0. -1.
         -3    1    3    3    0  502 -0.41291760838E+02 -0.21945454645E+03 -0.55081693282E+02  0.22999847914E+03  0.00000000000E+00 0.  1.
         15    1    5    5    0    0 -0.84072472793E+02  0.20492738237E+03 -0.39552129177E+02  0.22501320268E+03  0.17770000000E+01 0. -1.
        -15    1    5    5    0    0  0.49051912085E+01  0.10329624110E+03  0.20387701250E+02  0.10541816929E+03  0.17770000000E+01 0.  1.
          1    1    6    6  503    0  0.60432071268E+02  0.13458976633E+03 -0.46210684718E+03  0.48508677435E+03  0.00000000000E+00 0. -1.
         -1    1    6    6    0  503  0.21677813463E+02  0.15948459058E+03 -0.29361694975E+03  0.33483753585E+03  0.00000000000E+00 0.  1.
<mgrwt>
<rscale>  0 0.62074404E+03</rscale>
<asrwt>0</asrwt>
<pdfrwt beam="1">  1        1 0.20350620E+00 0.62074404E+03</pdfrwt>
<pdfrwt beam="2">  1       -1 0.68500383E-01 0.62074404E+03</pdfrwt>
<totfact> 0.19767448E+01</totfact>
</mgrwt>
</event>
<event>
12    1  0.8033771E-008  0.9264054E+03  0.7818608E-02  0.9393162E-01
         -1   -1    0    0    0  501 -0.00000000000E+00  0.00000000000E+00  0.12973563730E+04  0.12973563730E+04  0.00000000000E+00 0.  1.
          1   -1    0    0  501    0  0.00000000000E+00 -0.00000000000E+00 -0.12513213908E+04  0.12513213908E+04  0.00000000000E+00 0. -1.
         23    2    1    2    0    0  0.59586156134E+03 -0.65479873451E+03  0.83429557729E+03  0.12201002108E+04  0.93717827114E+02 0.  0.
    5000000    2    1    2    0    0 -0.59586156134E+03  0.65479873451E+03 -0.78826059506E+03  0.13285775530E+04  0.59995930335E+03 0.  0.
         23    2    4    4    0    0 -0.15962732066E+03  0.14205800968E+02 -0.43334869693E+03  0.47092952398E+03  0.91108930110E+02 0.  0.
         23    2    4    4    0    0 -0.43623424068E+03  0.64059293354E+03 -0.35491189814E+03  0.85764802905E+03  0.94541350955E+02 0.  0.
          3    1    3    3  502    0  0.36094964245E+03 -0.32767736193E+03  0.46308739913E+03  0.67238905192E+03  0.00000000000E+00 0. -1.
         -3    1    3    3    0  502  0.23491191889E+03 -0.32712137258E+03  0.37120817816E+03  0.54771115888E+03  0.00000000000E+00 0.  1.
         15    1    5    5    0    0 -0.14148423754E+03 -0.20193015681E+02 -0.36908513018E+03  0.39579355528E+03  0.17770000000E+01 0.  1.
        -15    1    5    5    0    0 -0.18143083115E+02  0.34398816649E+02 -0.64263566748E+02  0.75135968696E+02  0.17770000000E+01 0. -1.
          1    1    6    6  503    0 -0.45005872528E+01  0.44368510745E+02 -0.22497360479E+02  0.49949487083E+02  0.00000000000E+00 0. -1.
         -1    1    6    6    0  503 -0.43173365343E+03  0.59622442280E+03 -0.33241453766E+03  0.80769854196E+03  0.00000000000E+00 0.  1.
<mgrwt>
<rscale>  0 0.92640543E+03</rscale>
<asrwt>0</asrwt>
<pdfrwt beam="1">  1        1 0.19251098E+00 0.92640543E+03</pdfrwt>
<pdfrwt beam="2">  1       -1 0.19959329E+00 0.92640543E+03</pdfrwt>
<totfact> 0.15095134E+00</totfact>
</mgrwt>
</event>
<event>
12    1  0.8033771E-008  0.3201072E+03  0.7818608E-02  0.1075600E+00
         -2   -1    0    0    0  501 -0.00000000000E+00  0.00000000000E+00  0.14677084366E+03  0.14677084366E+03  0.00000000000E+00 0. -1.
          2   -1    0    0  501    0  0.00000000000E+00 -0.00000000000E+00 -0.11236050761E+04  0.11236050761E+04  0.00000000000E+00 0.  1.
         23    2    1    2    0    0 -0.48798955932E+02 -0.18248514045E+02  0.15489345460E+02  0.10956313672E+03  0.95130514246E+02 0.  0.
    5000000    2    1    2    0    0  0.48798955932E+02  0.18248514045E+02 -0.99232357793E+03  0.11608127831E+04  0.60005490387E+03 0.  0.
         23    2    4    4    0    0  0.23542114412E+02  0.26904121912E+03 -0.73685579586E+03  0.79013722780E+03  0.91776718830E+02 0.  0.
         23    2    4    4    0    0  0.25256841520E+02 -0.25079270507E+03 -0.25546778207E+03  0.37067555527E+03  0.92745299829E+02 0.  0.
          4    1    3    3  502    0 -0.67195730560E+01  0.35727075143E+02  0.19026990239E+02  0.41031730622E+02  0.00000000000E+00 0. -1.
         -4    1    3    3    0  502 -0.42079382876E+02 -0.53975589188E+02 -0.35376447789E+01  0.68531406099E+02  0.00000000000E+00 0.  1.
         15    1    5    5    0    0 -0.13867986264E+01  0.10130478581E+03 -0.40469925085E+03  0.41719207112E+03  0.17770000000E+01 0. -1.
        -15    1    5    5    0    0  0.24928913038E+02  0.16773643331E+03 -0.33215654501E+03  0.37294515668E+03  0.17770000000E+01 0.  1.
          1    1    6    6  503    0  0.47551348499E+02 -0.22687927615E+03 -0.24258865258E+03  0.33553627383E+03  0.00000000000E+00 0. -1.
         -1    1    6    6    0  503 -0.22294506979E+02 -0.23913428922E+02 -0.12879129484E+02  0.35139281446E+02  0.00000000000E+00 0.  1.
<mgrwt>
<rscale>  0 0.32010715E+03</rscale>
<asrwt>0</asrwt>
<pdfrwt beam="1">  1        2 0.17286232E+00 0.32010715E+03</pdfrwt>
<pdfrwt beam="2">  1       -2 0.22580129E-01 0.32010715E+03</pdfrwt>
<totfact> 0.37689938E+02</totfact>
</mgrwt>
</event>
<event>
12    1  0.1159368E-007  0.1357926E+04  0.7818608E-02  0.8984850E-01
         -1   -1    0    0    0  501 -0.00000000000E+00  0.00000000000E+00  0.15059521048E+04  0.15059521048E+04  0.00000000000E+00 0.  1.
          1   -1    0    0  501    0  0.00000000000E+00 -0.00000000000E+00 -0.13801471220E+04  0.13801471220E+04  0.00000000000E+00 0. -1.
         23    2    1    2    0    0 -0.13147799734E+04  0.11285080333E+03 -0.33596821048E+03  0.13647126707E+04  0.90467413395E+02 0.  0.
    5000000    2    1    2    0    0  0.13147799734E+04 -0.11285080333E+03  0.46177319324E+03  0.15213865562E+04  0.60000074090E+03 0.  0.
         23    2    4    4    0    0  0.11616647599E+04 -0.22926479882E+03  0.23578485013E+03  0.12114727528E+04  0.10022161865E+03 0.  0.
         23    2    4    4    0    0  0.15311521353E+03  0.11641399549E+03  0.22598834311E+03  0.30991380342E+03  0.89327192770E+02 0.  0.
          4    1    3    3  502    0 -0.73672630692E+03  0.23727548135E+02 -0.20966121497E+03  0.76634618346E+03  0.00000000000E+00 0.  1.
         -4    1    3    3    0  502 -0.57805366646E+03  0.89123255194E+02 -0.12630699551E+03  0.59836648723E+03  0.00000000000E+00 0. -1.
         15    1    5    5    0    0  0.68333406817E+03 -0.13630708921E+03  0.88370731033E+02  0.70237996492E+03  0.17770000000E+01 0. -1.
        -15    1    5    5    0    0  0.47833069168E+03 -0.92957709615E+02  0.14741411910E+03  0.50909278783E+03  0.17770000000E+01 0.  1.
          3    1    6    6  503    0  0.93249722311E+01  0.50935521221E+02  0.76697386651E+02  0.92541188388E+02  0.00000000000E+00 0. -1.
         -3    1    6    6    0  503  0.14379024130E+03  0.65478474273E+02  0.14929095646E+03  0.21737261503E+03  0.00000000000E+00 0.  1.
<mgrwt>
<rscale>  0 0.13579263E+04</rscale>
<asrwt>0</asrwt>
<pdfrwt beam="1">  1        1 0.21233033E+00 0.13579263E+04</pdfrwt>
<pdfrwt beam="2">  1       -1 0.23168494E+00 0.13579263E+04</pdfrwt>
<totfact> 0.70206690E-01</totfact>
</mgrwt>
</event>
<event>
12    1  0.8033771E-008  0.4628461E+03  0.7818608E-02  0.1023959E+00
         -2   -1    0    0    0  501 -0.00000000000E+00  0.00000000000E+00  0.14664824093E+03  0.14664824093E+03  0.00000000000E+00 0.  1.
          2   -1    0    0  501    0  0.00000000000E+00 -0.00000000000E+00 -0.20474373062E+04  0.20474373062E+04  0.00000000000E+00 0. -1.
         23    2    1    2    0    0 -0.30680976975E+03 -0.21841995248E+03 -0.69743431734E+03  0.79717114146E+03  0.85015829830E+02 0.  0.
    5000000    2    1    2    0    0  0.30680976975E+03  0.21841995248E+03 -0.12033547479E+04  0.13969144056E+04  0.60122183670E+03 0.  0.
         23    2    4    4    0    0  0.16789895533E+03  0.31991723589E+03 -0.11286903057E+04  0.11885339610E+04  0.90189097427E+02 0.  0.
         23    2    4    4    0    0  0.13891081442E+03 -0.10149728341E+03 -0.74664442191E+02  0.20838044461E+03  0.90827957507E+02 0.  0.
          1    1    3    3  502    0 -0.21469637836E+03 -0.10462547628E+03 -0.40626046454E+03  0.47126276133E+03  0.00000000000E+00 0. -1.
         -1    1    3    3    0  502 -0.92113391395E+02 -0.11379447620E+03 -0.29117385280E+03  0.32590838014E+03  0.00000000000E+00 0.  1.
         15    1    5    5    0    0  0.99820354288E+02  0.15277138611E+03 -0.69998616906E+03  0.72338578515E+03  0.17770000000E+01 0.  1.
        -15    1    5    5    0    0  0.68078601038E+02  0.16714584978E+03 -0.42870413664E+03  0.46514817587E+03  0.17770000000E+01 0. -1.
          2    1    6    6  503    0  0.94974475233E+01 -0.25914321149E+02  0.17272910268E+02  0.32559284070E+02  0.00000000000E+00 0. -1.
         -2    1    6    6    0  503  0.12941336690E+03 -0.75582962262E+02 -0.91937352458E+02  0.17582116054E+03  0.00000000000E+00 0.  1.
<mgrwt>
<rscale>  0 0.46284614E+03</rscale>
<asrwt>0</asrwt>
<pdfrwt beam="1">  1        2 0.31499033E+00 0.46284614E+03</pdfrwt>
<pdfrwt beam="2">  1       -2 0.22561270E-01 0.46284614E+03</pdfrwt>
<totfact> 0.11555822E+02</totfact>
</mgrwt>
</event>
<event>
12    1  0.8313540E-008  0.1664476E+04  0.7818608E-02  0.8781889E-01
         -2   -1    0    0    0  501 -0.00000000000E+00  0.00000000000E+00  0.15513649491E+04  0.15513649491E+04  0.00000000000E+00 0.  1.
          2   -1    0    0  501    0  0.00000000000E+00 -0.00000000000E+00 -0.19624506406E+04  0.19624506406E+04  0.00000000000E+00 0. -1.
         23    2    1    2    0    0  0.11506371827E+03  0.16139835378E+04  0.29893230131E+03  0.16476104939E+04  0.84126685643E+02 0.  0.
    5000000    2    1    2    0    0 -0.11506371827E+03 -0.16139835378E+04 -0.71001799280E+03  0.18662050957E+04  0.60034439252E+03 0.  0.
         23    2    4    4    0    0 -0.28248070564E+03 -0.45508506393E+03 -0.14118400461E+03  0.56135906054E+03  0.91067596987E+02 0.  0.
         23    2    4    4    0    0  0.16741698737E+03 -0.11588984739E+04 -0.56883398819E+03  0.13048460352E+04  0.89313767156E+02 0.  0.
          4    1    3    3  502    0  0.42420772104E+02  0.10097319857E+04  0.15793595426E+03  0.10228890314E+04  0.00000000000E+00 0. -1.
         -4    1    3    3    0  502  0.72642946167E+02  0.60425155213E+03  0.14099634705E+03  0.62472146254E+03  0.00000000000E+00 0.  1.
         15    1    5    5    0    0 -0.60414452712E+02 -0.74329599339E+02  0.76957066808E+01  0.96110233923E+02  0.17770000000E+01 0. -1.
        -15    1    5    5    0    0 -0.22206625293E+03 -0.38075546460E+03 -0.14887971129E+03  0.46524882662E+03  0.17770000000E+01 0.  1.
          4    1    6    6  503    0  0.10061358036E+03 -0.45053248619E+03 -0.19525968371E+03  0.50122745112E+03  0.00000000000E+00 0. -1.
         -4    1    6    6    0  503  0.66803407004E+02 -0.70836598769E+03 -0.37357430448E+03  0.80361858407E+03  0.00000000000E+00 0.  1.
<mgrwt>
<rscale>  0 0.16644755E+04</rscale>
<asrwt>0</asrwt>
<pdfrwt beam="1">  1        2 0.30191548E+00 0.16644755E+04</pdfrwt>
<pdfrwt beam="2">  1       -2 0.23867153E+00 0.16644755E+04</pdfrwt>
<totfact> 0.48821444E-01</totfact>
</mgrwt>
</event>
<event>
12    1  0.8033771E-008  0.7963633E+03  0.7818608E-02  0.9565296E-01
         -1   -1    0    0    0  501 -0.00000000000E+00  0.00000000000E+00  0.73689154662E+03  0.73689154662E+03  0.00000000000E+00 0.  1.
          1   -1    0    0  501    0  0.00000000000E+00 -0.00000000000E+00 -0.95748889718E+03  0.95748889718E+03  0.00000000000E+00 0. -1.
         23    2    1    2    0    0 -0.61116594629E+03  0.31752292522E+03 -0.33828417012E+03  0.77328435633E+03  0.95853503072E+02 0.  0.
    5000000    2    1    2    0    0  0.61116594629E+03 -0.31752292522E+03  0.11768681956E+03  0.92109608747E+03  0.60018596528E+03 0.  0.
         23    2    4    4    0    0 -0.94502944365E+02 -0.39707868904E+01 -0.20619334311E+02  0.13144548286E+03  0.88916727199E+02 0.  0.
         23    2    4    4    0    0  0.70566889065E+03 -0.31355213833E+03  0.13830615387E+03  0.78965060460E+03  0.90199548072E+02 0.  0.
          1    1    3    3  502    0 -0.22829750860E+03  0.13045399741E+03 -0.18027968795E+03  0.31880834958E+03  0.00000000000E+00 0. -1.
         -1    1    3    3    0  502 -0.38286843769E+03  0.18706892780E+03 -0.15800448218E+03  0.45447600675E+03  0.00000000000E+00 0.  1.
         15    1    5    5    0    0 -0.52331141072E+02  0.40086957065E+02  0.30165152075E+01  0.66013404288E+02  0.17770000000E+01 0.  1.
        -15    1    5    5    0    0 -0.42171803293E+02 -0.44057743955E+02 -0.23635849518E+02  0.65432078577E+02  0.17770000000E+01 0. -1.
          4    1    6    6  503    0  0.64819742773E+03 -0.26081987240E+03  0.13470046215E+03  0.71156948056E+03  0.00000000000E+00 0.  1.
         -4    1    6    6    0  503  0.57471462918E+02 -0.52732265926E+02  0.36056917239E+01  0.78081124047E+02  0.00000000000E+00 0. -1.
<mgrwt>
<rscale>  0 0.79636331E+03</rscale>
<asrwt>0</asrwt>
<pdfrwt beam="1">  1        1 0.14730598E+00 0.79636331E+03</pdfrwt>
<pdfrwt beam="2">  1       -1 0.11336793E+00 0.79636331E+03</pdfrwt>
<totfact> 0.11905145E+01</totfact>
</mgrwt>
</event>
<event>
12    1  0.8033771E-008  0.1132857E+04  0.7818608E-02  0.9173746E-01
         -1   -1    0    0    0  501 -0.00000000000E+00  0.00000000000E+00  0.10914241638E+04  0.10914241638E+04  0.00000000000E+00 0.  1.
          1   -1    0    0  501    0  0.00000000000E+00 -0.00000000000E+00 -0.12785150212E+04  0.12785150212E+04  0.00000000000E+00 0. -1.
         23    2    1    2    0    0 -0.78159003137E+03  0.72193273059E+03  0.20420837728E+03  0.10873273572E+04  0.92248987775E+02 0.  0.
    5000000    2    1    2    0    0  0.78159003137E+03 -0.72193273059E+03 -0.39129923471E+03  0.12826118278E+04  0.59992346609E+03 0.  0.
         23    2    4    4    0    0  0.85896419454E+02  0.90028410333E+02 -0.59354440766E+02  0.15944555371E+03  0.80103841462E+02 0.  0.
         23    2    4    4    0    0  0.69569361192E+03 -0.81196114093E+03 -0.33194479394E+03  0.11231662741E+04  0.89691900725E+02 0.  0.
          2    1    3    3  502    0 -0.62991927728E+03  0.61364711489E+03  0.19482572434E+03  0.90073200252E+03  0.00000000000E+00 0. -1.
         -2    1    3    3    0  502 -0.15167075409E+03  0.10828561570E+03  0.93826529367E+01  0.18659535469E+03  0.00000000000E+00 0.  1.
         15    1    5    5    0    0  0.58291136659E+02  0.76577110677E+02 -0.77636783888E+02  0.12366300350E+03  0.17770000000E+01 0.  1.
        -15    1    5    5    0    0  0.27605282795E+02  0.13451299656E+02  0.18282343122E+02  0.35782550212E+02  0.17770000000E+01 0. -1.
          3    1    6    6  503    0  0.38211127569E+03 -0.51303113171E+03 -0.20386754930E+03  0.67139552186E+03  0.00000000000E+00 0. -1.
         -3    1    6    6    0  503  0.31358233623E+03 -0.29893000922E+03 -0.12807724465E+03  0.45177075226E+03  0.00000000000E+00 0.  1.
<mgrwt>
<rscale>  0 0.11328571E+04</rscale>
<asrwt>0</asrwt>
<pdfrwt beam="1">  1        1 0.19669462E+00 0.11328571E+04</pdfrwt>
<pdfrwt beam="2">  1       -1 0.16791141E+00 0.11328571E+04</pdfrwt>
<totfact> 0.23605979E+00</totfact>
</mgrwt>
</event>
<event>
12    1  0.8033771E-008  0.7937152E+03  0.7818608E-02  0.9569159E-01
         -1   -1    0    0    0  501 -0.00000000000E+00  0.00000000000E+00  0.11190097830E+04  0.11190097830E+04  0.00000000000E+00 0.  1.
          1   -1    0    0  501    0  0.00000000000E+00 -0.00000000000E+00 -0.19809011567E+04  0.19809011567E+04  0.00000000000E+00 0. -1.
         23    2    1    2    0    0 -0.22977994163E+03  0.70405731428E+03  0.85580448672E+03  0.11354120787E+04  0.90905146672E+02 0.  0.
    5000000    2    1    2    0    0  0.22977994163E+03 -0.70405731428E+03 -0.17176958604E+04  0.19644988609E+04  0.60023427300E+03 0.  0.
         23    2    4    4    0    0 -0.99790861861E+02 -0.16010307505E+03 -0.90177512513E+03  0.92600791551E+03  0.93279539742E+02 0.  0.
         23    2    4    4    0    0  0.32957080349E+03 -0.54395423923E+03 -0.81592073524E+03  0.10384909454E+04  0.90739564859E+02 0.  0.
          1    1    3    3  502    0 -0.79113147780E+02  0.23068887873E+03  0.21911551647E+03  0.32785341005E+03  0.00000000000E+00 0. -1.
         -1    1    3    3    0  502 -0.15066679385E+03  0.47336843555E+03  0.63668897024E+03  0.80755866868E+03  0.00000000000E+00 0.  1.
         15    1    5    5    0    0 -0.91046500494E+02 -0.64025159323E+02 -0.55527837216E+03  0.56632668540E+03  0.17770000000E+01 0. -1.
        -15    1    5    5    0    0 -0.87443613666E+01 -0.96077915729E+02 -0.34649675297E+03  0.35968123011E+03  0.17770000000E+01 0.  1.
          2    1    6    6  503    0  0.20537957141E+03 -0.39361134259E+03 -0.61489237820E+03  0.75842158075E+03  0.00000000000E+00 0.  1.
         -2    1    6    6    0  503  0.12419123208E+03 -0.15034289663E+03 -0.20102835704E+03  0.28006936467E+03  0.00000000000E+00 0. -1.
<mgrwt>
<rscale>  0 0.79371523E+03</rscale>
<asrwt>0</asrwt>
<pdfrwt beam="1">  1        1 0.30475402E+00 0.79371523E+03</pdfrwt>
<pdfrwt beam="2">  1       -1 0.17215535E+00 0.79371523E+03</pdfrwt>
<totfact> 0.76518377E-01</totfact>
</mgrwt>
</event>
<event>
12    1  0.8033771E-008  0.7806842E+03  0.7818608E-02  0.9588405E-01
          2   -1    0    0  501    0  0.00000000000E+00  0.00000000000E+00  0.24942084962E+04  0.24942084962E+04  0.00000000000E+00 0. -1.
         -2   -1    0    0    0  501 -0.00000000000E+00 -0.00000000000E+00 -0.29024167232E+03  0.29024167232E+03  0.00000000000E+00 0.  1.
         23    2    1    2    0    0 -0.36660942331E+03  0.56381191161E+03  0.45626238192E+03  0.81806679084E+03  0.93656671851E+02 0.  0.
    5000000    2    1    2    0    0  0.36660942331E+03 -0.56381191161E+03  0.17477044419E+04  0.19663833776E+04  0.59992202047E+03 0.  0.
         23    2    4    4    0    0 -0.13407683378E+03 -0.31282753911E+02  0.36401931030E+03  0.39892197246E+03  0.87598366351E+02 0.  0.
         23    2    4    4    0    0  0.50068625709E+03 -0.53252915770E+03  0.13836851316E+04  0.15674614052E+04  0.89870359222E+02 0.  0.
          4    1    3    3  502    0 -0.60018091180E+02  0.16504611666E+03  0.10607262482E+03  0.20516772073E+03  0.00000000000E+00 0. -1.
         -4    1    3    3    0  502 -0.30659133213E+03  0.39876579495E+03  0.35018975710E+03  0.61289907011E+03  0.00000000000E+00 0.  1.
         15    1    5    5    0    0 -0.10740658906E+03  0.74809564337E+00  0.32308140354E+03  0.34047244538E+03  0.17770000000E+01 0.  1.
        -15    1    5    5    0    0 -0.26670244716E+02 -0.32030849554E+02  0.40937906764E+02  0.58449527077E+02  0.17770000000E+01 0. -1.
          1    1    6    6  503    0  0.19825481441E+03 -0.25612551078E+03  0.67984904006E+03  0.75306039995E+03  0.00000000000E+00 0. -1.
         -1    1    6    6    0  503  0.30243144268E+03 -0.27640364692E+03  0.70383609155E+03  0.81440100524E+03  0.00000000000E+00 0.  1.
<mgrwt>
<rscale>  0 0.78068420E+03</rscale>
<asrwt>0</asrwt>
<pdfrwt beam="1">  1        2 0.38372437E+00 0.78068420E+03</pdfrwt>
<pdfrwt beam="2">  1       -2 0.44652567E-01 0.78068420E+03</pdfrwt>
<totfact> 0.17377600E+01</totfact>
</mgrwt>
</event>
<event>
12    1  0.8033771E-008  0.6719289E+03  0.7818608E-02  0.9766480E-01
         -2   -1    0    0    0  501 -0.00000000000E+00  0.00000000000E+00  0.50199399004E+03  0.50199399004E+03  0.00000000000E+00 0.  1.
          2   -1    0    0  501    0  0.00000000000E+00 -0.00000000000E+00 -0.17246974822E+04  0.17246974822E+04  0.00000000000E+00 0. -1.
         23    2    1    2    0    0 -0.80168563237E+02  0.54203172163E+03 -0.12969042282E+04  0.14107328958E+04  0.89338348053E+02 0.  0.
    5000000    2    1    2    0    0  0.80168563237E+02 -0.54203172163E+03  0.74200735975E+02  0.81595857649E+03  0.60004771771E+03 0.  0.
         23    2    4    4    0    0 -0.18806097703E+03 -0.47221857638E+03  0.88645387320E+02  0.52394211115E+03  0.91104424619E+02 0.  0.
         23    2    4    4    0    0  0.26822954027E+03 -0.69813145255E+02 -0.14444651345E+02  0.29201646533E+03  0.90796511770E+02 0.  0.
          1    1    3    3  502    0 -0.18607126904E+02  0.20028627022E+03 -0.37394353956E+03  0.42461109970E+03  0.00000000000E+00 0. -1.
         -1    1    3    3    0  502 -0.61561436333E+02  0.34174545141E+03 -0.92296068860E+03  0.98612179608E+03  0.00000000000E+00 0.  1.
         15    1    5    5    0    0 -0.16295620122E+03 -0.31626413723E+03  0.85627336105E+02  0.36594115160E+03  0.17770000000E+01 0.  1.
        -15    1    5    5    0    0 -0.25104775817E+02 -0.15595443915E+03  0.30180512144E+01  0.15800095955E+03  0.17770000000E+01 0. -1.
          4    1    6    6  503    0  0.14446944989E+03 -0.63439853082E+02 -0.45588807730E+02  0.16423877831E+03  0.00000000000E+00 0. -1.
         -4    1    6    6    0  503  0.12376009038E+03 -0.63732921730E+01  0.31144156386E+02  0.12777768703E+03  0.00000000000E+00 0.  1.
<mgrwt>
<rscale>  0 0.67192889E+03</rscale>
<asrwt>0</asrwt>
<pdfrwt beam="1">  1        2 0.26533807E+00 0.67192889E+03</pdfrwt>
<pdfrwt beam="2">  1       -2 0.77229845E-01 0.67192889E+03</pdfrwt>
<totfact> 0.14787174E+01</totfact>
</mgrwt>
</event>
<event>
12    1  0.8033771E-008  0.4053322E+03  0.7818608E-02  0.1041949E+00
         -2   -1    0    0    0  501 -0.00000000000E+00  0.00000000000E+00  0.29288349118E+03  0.29288349118E+03  0.00000000000E+00 0.  1.
          2   -1    0    0  501    0  0.00000000000E+00 -0.00000000000E+00 -0.76911009315E+03  0.76911009315E+03  0.00000000000E+00 0. -1.
         23    2    1    2    0    0 -0.11494569007E+03  0.21755862190E+03 -0.89212842330E+01  0.26278689496E+03  0.91831896523E+02 0.  0.
    5000000    2    1    2    0    0  0.11494569007E+03 -0.21755862190E+03 -0.46730531774E+03  0.79920668938E+03  0.59984398532E+03 0.  0.
         23    2    4    4    0    0  0.30701277341E+03 -0.18580076010E+03 -0.45191243686E+03  0.58435581499E+03  0.92022293133E+02 0.  0.
         23    2    4    4    0    0 -0.19206708333E+03 -0.31757861800E+02 -0.15392880883E+02  0.21485087439E+03  0.89585887046E+02 0.  0.
          3    1    3    3  502    0 -0.13367214849E+02  0.19932598653E+02 -0.31319658590E+02  0.39457723402E+02  0.00000000000E+00 0. -1.
         -3    1    3    3    0  502 -0.10157847522E+03  0.19762602325E+03  0.22398374357E+02  0.22332917155E+03  0.00000000000E+00 0.  1.
         15    1    5    5    0    0  0.25324446619E+03 -0.18351829497E+03 -0.35209772536E+03  0.47094340443E+03  0.17770000000E+01 0. -1.
        -15    1    5    5    0    0  0.53768307221E+02 -0.22824651347E+01 -0.99814711500E+02  0.11341241056E+03  0.17770000000E+01 0.  1.
          2    1    6    6  503    0 -0.64664638944E+02  0.61047485314E+01 -0.44573675095E+02  0.78775605335E+02  0.00000000000E+00 0. -1.
         -2    1    6    6    0  503 -0.12740244439E+03 -0.37862610331E+02  0.29180794212E+02  0.13607526906E+03  0.00000000000E+00 0.  1.
<mgrwt>
<rscale>  0 0.40533223E+03</rscale>
<asrwt>0</asrwt>
<pdfrwt beam="1">  1        2 0.11832463E+00 0.40533223E+03</pdfrwt>
<pdfrwt beam="2">  1       -2 0.45058999E-01 0.40533223E+03</pdfrwt>
<totfact> 0.17543733E+02</totfact>
</mgrwt>
</event>
<event>
12    1  0.8033771E-008  0.5802099E+03  0.7818608E-02  0.9947337E-01
          1   -1    0    0  501    0  0.00000000000E+00  0.00000000000E+00  0.21926649081E+04  0.21926649081E+04  0.00000000000E+00 0. -1.
         -1   -1    0    0    0  501 -0.00000000000E+00 -0.00000000000E+00 -0.40887631400E+03  0.40887631400E+03  0.00000000000E+00 0.  1.
         23    2    1    2    0    0 -0.43725126517E+03 -0.22557404603E+03 -0.14637418737E+03  0.52124681178E+03  0.90556705583E+02 0.  0.
    5000000    2    1    2    0    0  0.43725126517E+03  0.22557404603E+03  0.19301627815E+04  0.20802944103E+04  0.60002012591E+03 0.  0.
         23    2    4    4    0    0  0.12734350380E+03  0.31088497142E+03  0.48330176613E+03  0.59577647532E+03  0.92212678002E+02 0.  0.
         23    2    4    4    0    0  0.30990776138E+03 -0.85310925386E+02  0.14468610153E+04  0.14845179350E+04  0.84059069015E+02 0.  0.
          3    1    3    3  502    0 -0.36933197568E+03 -0.21450426070E+03 -0.14908888457E+03  0.45237780849E+03  0.00000000000E+00 0. -1.
         -3    1    3    3    0  502 -0.67919289496E+02 -0.11069785336E+02  0.27146972031E+01  0.68869003288E+02  0.00000000000E+00 0.  1.
         15    1    5    5    0    0  0.59150264960E+02  0.89042800522E+02  0.93105814332E+02  0.14177173400E+03  0.17770000000E+01 0.  1.
        -15    1    5    5    0    0  0.68193238837E+02  0.22184217090E+03  0.39019595180E+03  0.45400474132E+03  0.17770000000E+01 0. -1.
          1    1    6    6  503    0  0.13102783729E+03 -0.10010455411E+02  0.73595086876E+03  0.74759092062E+03  0.00000000000E+00 0. -1.
         -1    1    6    6    0  503  0.17887992408E+03 -0.75300469974E+02  0.71091014656E+03  0.73692701437E+03  0.00000000000E+00 0.  1.
<mgrwt>
<rscale>  0 0.58020988E+03</rscale>
<asrwt>0</asrwt>
<pdfrwt beam="1">  1        1 0.33733305E+00 0.58020988E+03</pdfrwt>
<pdfrwt beam="2">  1       -1 0.62904050E-01 0.58020988E+03</pdfrwt>
<totfact> 0.61469423E+00</totfact>
</mgrwt>
</event>
<event>
12    1  0.8033771E-008  0.9762905E+03  0.7818608E-02  0.9334938E-01
          2   -1    0    0  501    0  0.00000000000E+00  0.00000000000E+00  0.36329903590E+04  0.36329903590E+04  0.00000000000E+00 0. -1.
         -2   -1    0    0    0  501 -0.00000000000E+00 -0.00000000000E+00 -0.32239093443E+03  0.32239093443E+03  0.00000000000E+00 0.  1.
         23    2    1    2    0    0  0.53566105732E+03  0.79410067524E+03  0.10267530490E+04  0.14071318839E+04  0.90937694207E+02 0.  0.
    5000000    2    1    2    0    0 -0.53566105732E+03 -0.79410067524E+03  0.22838463756E+04  0.25482494096E+04  0.60007677453E+03 0.  0.
         23    2    4    4    0    0 -0.32389296694E+03 -0.26736373787E+03  0.43133888105E+03  0.60859507600E+03  0.89133124449E+02 0.  0.
         23    2    4    4    0    0 -0.21176809038E+03 -0.52673693737E+03  0.18525074945E+04  0.19396543335E+04  0.90428928345E+02 0.  0.
          1    1    3    3  502    0  0.36374591593E+03  0.61055957546E+03  0.76028443142E+03  0.10407336370E+04  0.00000000000E+00 0. -1.
         -1    1    3    3    0  502  0.17191514140E+03  0.18354109978E+03  0.26646861759E+03  0.36639824687E+03  0.00000000000E+00 0.  1.
         15    1    5    5    0    0 -0.29205236702E+03 -0.23573335810E+03  0.41792234216E+03  0.56171793901E+03  0.17770000000E+01 0. -1.
        -15    1    5    5    0    0 -0.31840599926E+02 -0.31630379770E+02  0.13416538883E+02  0.46877136993E+02  0.17770000000E+01 0.  1.
          3    1    6    6  503    0 -0.56721188531E+02 -0.86680642593E+02  0.44224457061E+03  0.45421480300E+03  0.00000000000E+00 0. -1.
         -3    1    6    6    0  503 -0.15504690185E+03 -0.44005629478E+03  0.14102629239E+04  0.14854395305E+04  0.00000000000E+00 0.  1.
<mgrwt>
<rscale>  0 0.97629047E+03</rscale>
<asrwt>0</asrwt>
<pdfrwt beam="1">  1        2 0.55892156E+00 0.97629047E+03</pdfrwt>
<pdfrwt beam="2">  1       -2 0.49598608E-01 0.97629047E+03</pdfrwt>
<totfact> 0.26287671E+00</totfact>
</mgrwt>
</event>
<event>
12    1  0.8033771E-008  0.9906839E+03  0.7818608E-02  0.9318822E-01
         -1   -1    0    0    0  501 -0.00000000000E+00  0.00000000000E+00  0.12965111379E+04  0.12965111379E+04  0.00000000000E+00 0.  1.
          1   -1    0    0  501    0  0.00000000000E+00 -0.00000000000E+00 -0.91019206532E+03  0.91019206532E+03  0.00000000000E+00 0. -1.
         23    2    1    2    0    0  0.37756459818E+03 -0.87389358256E+03  0.49379767779E+03  0.10763167121E+04  0.91523214336E+02 0.  0.
    5000000    2    1    2    0    0 -0.37756459818E+03  0.87389358256E+03 -0.10747860524E+03  0.11303864911E+04  0.59998079066E+03 0.  0.
         23    2    4    4    0    0 -0.25802025898E+03  0.17457694433E+03 -0.24031621522E+03  0.40291554304E+03  0.86818707613E+02 0.  0.
         23    2    4    4    0    0 -0.11954433920E+03  0.69931663824E+03  0.13283760998E+03  0.72747094803E+03  0.90738856330E+02 0.  0.
          4    1    3    3  502    0  0.30486985341E+03 -0.76969405851E+03  0.44759786849E+03  0.94112614622E+03  0.00000000000E+00 0. -1.
         -4    1    3    3    0  502  0.72694744767E+02 -0.10419952405E+03  0.46199809305E+02  0.13519056590E+03  0.00000000000E+00 0.  1.
         15    1    5    5    0    0 -0.69051286395E+02  0.79544593479E+02 -0.43470582997E+02  0.11396609943E+03  0.17770000000E+01 0.  1.
        -15    1    5    5    0    0 -0.18896897258E+03  0.95032350847E+02 -0.19684563223E+03  0.28894944361E+03  0.17770000000E+01 0. -1.
          1    1    6    6  503    0 -0.44371297327E+02  0.29541528927E+03  0.10124943921E+03  0.31542107428E+03  0.00000000000E+00 0. -1.
         -1    1    6    6    0  503 -0.75173041873E+02  0.40390134897E+03  0.31588170779E+02  0.41204987375E+03  0.00000000000E+00 0.  1.
<mgrwt>
<rscale>  0 0.99068391E+03</rscale>
<asrwt>0</asrwt>
<pdfrwt beam="1">  1        1 0.14002955E+00 0.99068391E+03</pdfrwt>
<pdfrwt beam="2">  1       -1 0.19946325E+00 0.99068391E+03</pdfrwt>
<totfact> 0.27237667E+00</totfact>
</mgrwt>
</event>
<event>
12    1  0.8033771E-008  0.1618319E+04  0.7818608E-02  0.8809372E-01
          2   -1    0    0  501    0  0.00000000000E+00  0.00000000000E+00  0.32190841258E+04  0.32190841258E+04  0.00000000000E+00 0. -1.
         -2   -1    0    0    0  501 -0.00000000000E+00 -0.00000000000E+00 -0.90989268843E+03  0.90989268843E+03  0.00000000000E+00 0.  1.
         23    2    1    2    0    0 -0.73146348176E+03 -0.14403343781E+04  0.67309271877E+03  0.17527276576E+04  0.96945798323E+02 0.  0.
    5000000    2    1    2    0    0  0.73146348176E+03  0.14403343781E+04  0.16360987186E+04  0.23762491566E+04  0.60011589813E+03 0.  0.
         23    2    4    4    0    0  0.38447115265E+03  0.81418420309E+03  0.12904370123E+04  0.15761049388E+04  0.90361006105E+02 0.  0.
         23    2    4    4    0    0  0.34699232911E+03  0.62615017506E+03  0.34566170627E+03  0.80014421783E+03  0.91000197579E+02 0.  0.
          1    1    3    3  502    0 -0.24178043308E+03 -0.55462194290E+03  0.28510530661E+03  0.66884102239E+03  0.00000000000E+00 0. -1.
         -1    1    3    3    0  502 -0.48968304868E+03 -0.88571243524E+03  0.38798741216E+03  0.10838866353E+04  0.00000000000E+00 0.  1.
         15    1    5    5    0    0  0.16596141952E+03  0.42339082006E+03  0.59259292680E+03  0.74697557785E+03  0.17770000000E+01 0. -1.
        -15    1    5    5    0    0  0.21850973313E+03  0.39079338302E+03  0.69784408554E+03  0.82912936092E+03  0.17770000000E+01 0.  1.
          3    1    6    6  503    0  0.20947880394E+03  0.33590837090E+03  0.23539689074E+03  0.46057301170E+03  0.00000000000E+00 0. -1.
         -3    1    6    6    0  503  0.13751352518E+03  0.29024180416E+03  0.11026481553E+03  0.33957120613E+03  0.00000000000E+00 0.  1.
<mgrwt>
<rscale>  0 0.16183189E+04</rscale>
<asrwt>0</asrwt>
<pdfrwt beam="1">  1        2 0.49524371E+00 0.16183189E+04</pdfrwt>
<pdfrwt beam="2">  1       -2 0.13998349E+00 0.16183189E+04</pdfrwt>
<totfact> 0.42495955E-01</totfact>
</mgrwt>
</event>
<event>
12    1  0.8033771E-008  0.6300268E+03  0.7818608E-02  0.9844996E-01
         -1   -1    0    0    0  501 -0.00000000000E+00  0.00000000000E+00  0.21415929922E+03  0.21415929922E+03  0.00000000000E+00 0.  1.
          1   -1    0    0  501    0  0.00000000000E+00 -0.00000000000E+00 -0.21530753823E+04  0.21530753823E+04  0.00000000000E+00 0. -1.
         23    2    1    2    0    0 -0.33350129965E+03 -0.37253626280E+03 -0.42037348960E+03  0.65952527317E+03  0.90847846606E+02 0.  0.
    5000000    2    1    2    0    0  0.33350129965E+03  0.37253626280E+03 -0.15185425935E+04  0.17077094084E+04  0.60024447615E+03 0.  0.
         23    2    4    4    0    0  0.43544845347E+03  0.86451264668E+02 -0.10228735880E+04  0.11187964438E+04  0.91356055443E+02 0.  0.
         23    2    4    4    0    0 -0.10194715382E+03  0.28608499813E+03 -0.49566900551E+03  0.58891296455E+03  0.94302006708E+02 0.  0.
          3    1    3    3  502    0 -0.26967694779E+03 -0.34393999410E+03 -0.37730413193E+03  0.57738962901E+03  0.00000000000E+00 0. -1.
         -3    1    3    3    0  502 -0.63824351853E+02 -0.28596268698E+02 -0.43069357669E+02  0.82135644168E+02  0.00000000000E+00 0.  1.
         15    1    5    5    0    0  0.28959669633E+03  0.68132888545E+02 -0.78106375321E+03  0.83580624628E+03  0.17770000000E+01 0. -1.
        -15    1    5    5    0    0  0.14585175714E+03  0.18318376123E+02 -0.24180983480E+03  0.28299019754E+03  0.17770000000E+01 0.  1.
          2    1    6    6  503    0 -0.76400847383E+02  0.26379620833E+03 -0.38325291129E+03  0.47149583564E+03  0.00000000000E+00 0. -1.
         -2    1    6    6    0  503 -0.25546306441E+02  0.22288789796E+02 -0.11241609422E+03  0.11741712891E+03  0.00000000000E+00 0.  1.
<mgrwt>
<rscale>  0 0.63002684E+03</rscale>
<asrwt>0</asrwt>
<pdfrwt beam="1">  1        1 0.33124238E+00 0.63002684E+03</pdfrwt>
<pdfrwt beam="2">  1       -1 0.32947583E-01 0.63002684E+03</pdfrwt>
<totfact> 0.21526179E+01</totfact>
</mgrwt>
</event>
<event>
12    1  0.8033771E-008  0.2061044E+04  0.7818608E-02  0.8578601E-01
         -1   -1    0    0    0  501 -0.00000000000E+00  0.00000000000E+00  0.94177532415E+03  0.94177532415E+03  0.00000000000E+00 0.  1.
          1   -1    0    0  501    0  0.00000000000E+00 -0.00000000000E+00 -0.46118626367E+04  0.46118626367E+04  0.00000000000E+00 0. -1.
         23    2    1    2    0    0 -0.20312292926E+04  0.36025153020E+02 -0.20423827197E+04  0.28822134277E+04  0.92934482507E+02 0.  0.
    5000000    2    1    2    0    0  0.20312292926E+04 -0.36025153020E+02 -0.16277045928E+04  0.26714245331E+04  0.59991378039E+03 0.  0.
         23    2    4    4    0    0  0.91810424941E+02  0.69749972550E+02 -0.24258937984E+03  0.28410015683E+03  0.92569320538E+02 0.  0.
         23    2    4    4    0    0  0.19394188677E+04 -0.10577512557E+03 -0.13851152130E+04  0.23873243763E+04  0.90772258657E+02 0.  0.
          1    1    3    3  502    0 -0.64066280472E+03  0.20639347829E+00 -0.58563810098E+03  0.86799818966E+03  0.00000000000E+00 0. -1.
         -1    1    3    3    0  502 -0.13905664879E+04  0.35818759542E+02 -0.14567446187E+04  0.20142152380E+04  0.00000000000E+00 0.  1.
         15    1    5    5    0    0  0.60183928406E+02  0.91424765563E+02 -0.17816191098E+03  0.20910623436E+03  0.17770000000E+01 0.  1.
        -15    1    5    5    0    0  0.31626496535E+02 -0.21674793013E+02 -0.64427468855E+02  0.74993922469E+02  0.17770000000E+01 0. -1.
          1    1    6    6  503    0  0.60330257948E+03 -0.18664109196E+02 -0.38235105762E+03  0.71450310191E+03  0.00000000000E+00 0. -1.
         -1    1    6    6    0  503  0.13361162882E+04 -0.87111016375E+02 -0.10027641553E+04  0.16728212744E+04  0.00000000000E+00 0.  1.
<mgrwt>
<rscale>  0 0.20610436E+04</rscale>
<asrwt>0</asrwt>
<pdfrwt beam="1">  1        1 0.70951732E+00 0.20610436E+04</pdfrwt>
<pdfrwt beam="2">  1       -1 0.14488851E+00 0.20610436E+04</pdfrwt>
<totfact> 0.84944351E-03</totfact>
</mgrwt>
</event>
<event>
12    1  0.8033771E-008  0.9434470E+03  0.7818608E-02  0.9372843E-01
          2   -1    0    0  501    0  0.00000000000E+00  0.00000000000E+00  0.33201830836E+04  0.33201830836E+04  0.00000000000E+00 0. -1.
         -2   -1    0    0    0  501 -0.00000000000E+00 -0.00000000000E+00 -0.29267744670E+03  0.29267744670E+03  0.00000000000E+00 0.  1.
         23    2    1    2    0    0  0.78628529142E+03 -0.37744559568E+03  0.10352327568E+04  0.13567776409E+04  0.91809415437E+02 0.  0.
    5000000    2    1    2    0    0 -0.78628529142E+03  0.37744559568E+03  0.19922728801E+04  0.22560828895E+04  0.60004086367E+03 0.  0.
         23    2    4    4    0    0 -0.78783969245E+03  0.47210866786E+03  0.16755952215E+04  0.19130804508E+04  0.93163778650E+02 0.  0.
         23    2    4    4    0    0  0.15544010318E+01 -0.94663072179E+02  0.31667765859E+03  0.34300243864E+03  0.91664715484E+02 0.  0.
          3    1    3    3  502    0  0.35047059862E+03 -0.15003887681E+03  0.38708295729E+03  0.54329966030E+03  0.00000000000E+00 0. -1.
         -3    1    3    3    0  502  0.43581469280E+03 -0.22740671887E+03  0.64814979952E+03  0.81347798057E+03  0.00000000000E+00 0.  1.
         15    1    5    5    0    0 -0.26724226758E+03  0.15178176627E+03  0.65321214424E+03  0.72190400834E+03  0.17770000000E+01 0.  1.
        -15    1    5    5    0    0 -0.52059742487E+03  0.32032690159E+03  0.10223830773E+04  0.11911764425E+04  0.17770000000E+01 0. -1.
          2    1    6    6  503    0  0.55661775227E+01 -0.21506539744E+02  0.49228919854E+01  0.22754086434E+02  0.00000000000E+00 0. -1.
         -2    1    6    6    0  503 -0.40117764909E+01 -0.73156532435E+02  0.31175476661E+03  0.32024835221E+03  0.00000000000E+00 0.  1.
<mgrwt>
<rscale>  0 0.94344700E+03</rscale>
<asrwt>0</asrwt>
<pdfrwt beam="1">  1        2 0.51079737E+00 0.94344700E+03</pdfrwt>
<pdfrwt beam="2">  1       -2 0.45027302E-01 0.94344700E+03</pdfrwt>
<totfact> 0.52560563E+00</totfact>
</mgrwt>
</event>
<event>
12    1  0.8033771E-008  0.4846567E+03  0.7818608E-02  0.1017863E+00
         -1   -1    0    0    0  501 -0.00000000000E+00  0.00000000000E+00  0.33608628122E+03  0.33608628122E+03  0.00000000000E+00 0.  1.
          1   -1    0    0  501    0  0.00000000000E+00 -0.00000000000E+00 -0.10545796997E+04  0.10545796997E+04  0.00000000000E+00 0. -1.
         23    2    1    2    0    0 -0.35248497437E+03 -0.10670357412E+03 -0.55019127100E+03  0.66827003042E+03  0.90791458799E+02 0.  0.
    5000000    2    1    2    0    0  0.35248497437E+03  0.10670357412E+03 -0.16830214750E+03  0.72239595051E+03  0.59824659344E+03 0.  0.
         23    2    4    4    0    0  0.10563944660E+03 -0.17081342351E+03 -0.24795771614E+03  0.33178694953E+03  0.90899023974E+02 0.  0.
         23    2    4    4    0    0  0.24684552777E+03  0.27751699762E+03  0.79655568639E+02  0.39060900097E+03  0.91005403568E+02 0.  0.
          1    1    3    3  502    0 -0.29043274896E+03 -0.51081122715E+02 -0.44904792019E+03  0.53721922657E+03  0.00000000000E+00 0. -1.
         -1    1    3    3    0  502 -0.62052225412E+02 -0.55622451400E+02 -0.10114335080E+03  0.13105080385E+03  0.00000000000E+00 0.  1.
         15    1    5    5    0    0  0.11695846685E+03 -0.12171864724E+03 -0.17545696978E+03  0.24348104244E+03  0.17770000000E+01 0.  1.
        -15    1    5    5    0    0 -0.11319020248E+02 -0.49094776266E+02 -0.72500746360E+02  0.88305907094E+02  0.17770000000E+01 0. -1.
          4    1    6    6  503    0  0.49777333897E+02  0.67441691587E+02  0.57640659613E+02  0.10172811988E+03  0.00000000000E+00 0. -1.
         -4    1    6    6    0  503  0.19706819387E+03  0.21007530603E+03  0.22014909025E+02  0.28888088109E+03  0.00000000000E+00 0.  1.
<mgrwt>
<rscale>  0 0.48465673E+03</rscale>
<asrwt>0</asrwt>
<pdfrwt beam="1">  1        1 0.16224303E+00 0.48465673E+03</pdfrwt>
<pdfrwt beam="2">  1       -1 0.51705582E-01 0.48465673E+03</pdfrwt>
<totfact> 0.54651002E+01</totfact>
</mgrwt>
</event>
<event>
12    1  0.8033771E-008  0.1750180E+04  0.7818608E-02  0.8733251E-01
         -1   -1    0    0    0  501 -0.00000000000E+00  0.00000000000E+00  0.15182341134E+04  0.15182341134E+04  0.00000000000E+00 0.  1.
          1   -1    0    0  501    0  0.00000000000E+00 -0.00000000000E+00 -0.21429888260E+04  0.21429888260E+04  0.00000000000E+00 0. -1.
         23    2    1    2    0    0 -0.11142419276E+03 -0.17144119816E+04  0.47339759877E+02  0.17212840988E+04  0.94626119137E+02 0.  0.
    5000000    2    1    2    0    0  0.11142419276E+03  0.17144119816E+04 -0.67209447248E+03  0.19399388407E+04  0.60002327658E+03 0.  0.
         23    2    4    4    0    0 -0.17122273465E+03  0.46318360619E+03 -0.35285277096E+03  0.61519939765E+03  0.10054323939E+03 0.  0.
         23    2    4    4    0    0  0.28264692741E+03  0.12512283754E+04 -0.31924170151E+03  0.13247394431E+04  0.86934429599E+02 0.  0.
          3    1    3    3  502    0 -0.72287383488E+00 -0.72750886575E+03  0.25149832183E+02  0.72794380714E+03  0.00000000000E+00 0. -1.
         -3    1    3    3    0  502 -0.11070131893E+03 -0.98690311583E+03  0.22189927694E+02  0.99334029161E+03  0.00000000000E+00 0.  1.
         15    1    5    5    0    0 -0.16634108344E+03  0.40524200916E+03 -0.27214078927E+03  0.51570748389E+03  0.17770000000E+01 0. -1.
        -15    1    5    5    0    0 -0.48816512109E+01  0.57941597031E+02 -0.80711981699E+02  0.99491913761E+02  0.17770000000E+01 0.  1.
          3    1    6    6  503    0  0.82047554577E+02  0.46045502597E+03 -0.79445211385E+02  0.47440718140E+03  0.00000000000E+00 0. -1.
         -3    1    6    6    0  503  0.20059937284E+03  0.79077334942E+03 -0.23979649013E+03  0.85033226166E+03  0.00000000000E+00 0.  1.
<mgrwt>
<rscale>  0 0.17501802E+04</rscale>
<asrwt>0</asrwt>
<pdfrwt beam="1">  1        1 0.32969059E+00 0.17501802E+04</pdfrwt>
<pdfrwt beam="2">  1       -1 0.23357448E+00 0.17501802E+04</pdfrwt>
<totfact> 0.19543425E-01</totfact>
</mgrwt>
</event>
<event>
12    1  0.8033771E-008  0.5709008E+03  0.7818608E-02  0.9967687E-01
          2   -1    0    0  501    0  0.00000000000E+00  0.00000000000E+00  0.11771004928E+04  0.11771004928E+04  0.00000000000E+00 0. -1.
         -2   -1    0    0    0  501 -0.00000000000E+00 -0.00000000000E+00 -0.39065714225E+03  0.39065714225E+03  0.00000000000E+00 0.  1.
         23    2    1    2    0    0 -0.26272677205E+03 -0.47120957658E+03  0.36317282822E+03  0.65660328778E+03  0.90385577150E+02 0.  0.
    5000000    2    1    2    0    0  0.26272677205E+03  0.47120957658E+03  0.42327052238E+03  0.91115434730E+03  0.59998373951E+03 0.  0.
         23    2    4    4    0    0  0.23504302652E+03  0.15616891897E+03 -0.81170847469E+02  0.30888392649E+03  0.95846846566E+02 0.  0.
         23    2    4    4    0    0  0.27683745536E+02  0.31504065761E+03  0.50444136985E+03  0.60227042082E+03  0.90838089235E+02 0.  0.
          1    1    3    3  502    0 -0.10130052072E+03 -0.13278314534E+03  0.15438438343E+03  0.22743723756E+03  0.00000000000E+00 0. -1.
         -1    1    3    3    0  502 -0.16142625133E+03 -0.33842643124E+03  0.20878844479E+03  0.42916605022E+03  0.00000000000E+00 0.  1.
         15    1    5    5    0    0  0.39340372822E+02  0.17953962462E+02  0.21369391612E+02  0.48268191687E+02  0.17770000000E+01 0.  1.
        -15    1    5    5    0    0  0.19570265370E+03  0.13821495651E+03 -0.10254023908E+03  0.26061573480E+03  0.17770000000E+01 0. -1.
          3    1    6    6  503    0  0.20310401110E+02  0.11481419088E+03  0.26856195689E+03  0.29278035369E+03  0.00000000000E+00 0. -1.
         -3    1    6    6    0  503  0.73733444265E+01  0.20022646673E+03  0.23587941296E+03  0.30949006712E+03  0.00000000000E+00 0.  1.
<mgrwt>
<rscale>  0 0.57090083E+03</rscale>
<asrwt>0</asrwt>
<pdfrwt beam="1">  1        2 0.18109238E+00 0.57090083E+03</pdfrwt>
<pdfrwt beam="2">  1       -2 0.60101099E-01 0.57090083E+03</pdfrwt>
<totfact> 0.52315964E+01</totfact>
</mgrwt>
</event>
<event>
12    1  0.8033771E-008  0.5462778E+03  0.7818608E-02  0.1002359E+00
          1   -1    0    0  501    0  0.00000000000E+00  0.00000000000E+00  0.93902341520E+03  0.93902341520E+03  0.00000000000E+00 0. -1.
         -1   -1    0    0    0  501 -0.00000000000E+00 -0.00000000000E+00 -0.48511925471E+03  0.48511925471E+03  0.00000000000E+00 0.  1.
         23    2    1    2    0    0  0.26489705044E+02  0.53564637641E+03  0.15287144023E+03  0.56491819267E+03  0.90244900877E+02 0.  0.
    5000000    2    1    2    0    0 -0.26489705044E+02 -0.53564637641E+03  0.30103272025E+03  0.85922447724E+03  0.60002271505E+03 0.  0.
         23    2    4    4    0    0  0.42097651364E+02 -0.26037765432E+03 -0.15141831103E+03  0.31733279207E+03  0.90575167062E+02 0.  0.
         23    2    4    4    0    0 -0.68587356408E+02 -0.27526872209E+03  0.45245103129E+03  0.54189168517E+03  0.91965036399E+02 0.  0.
          1    1    3    3  502    0  0.47847583060E+02  0.20153592463E+03  0.35562658196E+02  0.21016855802E+03  0.00000000000E+00 0. -1.
         -1    1    3    3    0  502 -0.21357878016E+02  0.33411045178E+03  0.11730878204E+03  0.35474963465E+03  0.00000000000E+00 0.  1.
         15    1    5    5    0    0 -0.13102333173E+01 -0.10141059455E+03 -0.13285116721E+02  0.10230091620E+03  0.17770000000E+01 0. -1.
        -15    1    5    5    0    0  0.43407884682E+02 -0.15896705977E+03 -0.13813319431E+03  0.21503187587E+03  0.17770000000E+01 0.  1.
          1    1    6    6  503    0 -0.33424265875E+02 -0.17434568142E+03  0.19811412954E+03  0.26601279387E+03  0.00000000000E+00 0. -1.
         -1    1    6    6    0  503 -0.35163090533E+02 -0.10092304068E+03  0.25433690174E+03  0.27587889130E+03  0.00000000000E+00 0.  1.
<mgrwt>
<rscale>  0 0.54627779E+03</rscale>
<asrwt>0</asrwt>
<pdfrwt beam="1">  1        1 0.14446514E+00 0.54627779E+03</pdfrwt>
<pdfrwt beam="2">  1       -1 0.74633732E-01 0.54627779E+03</pdfrwt>
<totfact> 0.32176993E+01</totfact>
</mgrwt>
</event>
<event>
12    1  0.8033771E-008  0.4447324E+03  0.7818608E-02  0.1029305E+00
         -2   -1    0    0    0  501 -0.00000000000E+00  0.00000000000E+00  0.47358271751E+03  0.47358271751E+03  0.00000000000E+00 0. -1.
          2   -1    0    0  501    0  0.00000000000E+00 -0.00000000000E+00 -0.14925816334E+04  0.14925816334E+04  0.00000000000E+00 0.  1.
         23    2    1    2    0    0  0.19641386638E+02  0.31121341359E+03 -0.12185409229E+04  0.12610227704E+04  0.89982631334E+02 0.  0.
    5000000    2    1    2    0    0 -0.19641386638E+02 -0.31121341359E+03  0.19954200696E+03  0.70514158050E+03  0.60014003628E+03 0.  0.
         23    2    4    4    0    0  0.22147543678E+03 -0.13567766345E+03  0.26907564536E+03  0.38516113132E+03  0.92128153621E+02 0.  0.
         23    2    4    4    0    0 -0.24111682342E+03 -0.17553575013E+03 -0.69533638404E+02  0.31998044919E+03  0.92749333589E+02 0.  0.
          2    1    3    3  502    0 -0.18040630256E+02  0.25726679321E+03 -0.10057562508E+04  0.10382953834E+04  0.00000000000E+00 0. -1.
         -2    1    3    3    0  502  0.37682016894E+02  0.53946620375E+02 -0.21278467209E+03  0.22272738700E+03  0.00000000000E+00 0.  1.
         15    1    5    5    0    0  0.46894342089E+02 -0.33178636515E+02  0.12220111942E+03  0.13504137350E+03  0.17770000000E+01 0.  1.
        -15    1    5    5    0    0  0.17458109470E+03 -0.10249902694E+03  0.14687452594E+03  0.25011975781E+03  0.17770000000E+01 0. -1.
          3    1    6    6  503    0 -0.12428077973E+03 -0.13160719567E+03 -0.89552709050E+01  0.18123565609E+03  0.00000000000E+00 0. -1.
         -3    1    6    6    0  503 -0.11683604369E+03 -0.43928554468E+02 -0.60578367499E+02  0.13874479310E+03  0.00000000000E+00 0.  1.
<mgrwt>
<rscale>  0 0.44473243E+03</rscale>
<asrwt>0</asrwt>
<pdfrwt beam="1">  1        2 0.22962794E+00 0.44473243E+03</pdfrwt>
<pdfrwt beam="2">  1       -2 0.72858881E-01 0.44473243E+03</pdfrwt>
<totfact> 0.23421310E+01</totfact>
</mgrwt>
</event>
<event>
12    1  0.8033771E-008  0.5637065E+03  0.7818608E-02  0.9983703E-01
          2   -1    0    0  501    0  0.00000000000E+00  0.00000000000E+00  0.22579084559E+04  0.22579084559E+04  0.00000000000E+00 0. -1.
         -2   -1    0    0    0  501 -0.00000000000E+00 -0.00000000000E+00 -0.60554298028E+03  0.60554298028E+03  0.00000000000E+00 0.  1.
         23    2    1    2    0    0  0.38009885089E+03 -0.22772583841E+03 -0.44702073473E+03  0.63547709183E+03  0.87575127959E+02 0.  0.
    5000000    2    1    2    0    0 -0.38009885089E+03  0.22772583841E+03  0.20993862104E+04  0.22279743444E+04  0.60009418007E+03 0.  0.
         23    2    4    4    0    0 -0.47700163500E+03  0.48977915792E+02  0.11008507425E+04  0.12044911135E+04  0.94852988037E+02 0.  0.
         23    2    4    4    0    0  0.96902784116E+02  0.17874792261E+03  0.99853546789E+03  0.10234832308E+04  0.95414221972E+02 0.  0.
          1    1    3    3  502    0  0.38959836998E+02 -0.36839102576E+02 -0.96647271447E+02  0.11052458304E+03  0.00000000000E+00 0. -1.
         -1    1    3    3    0  502  0.34113901389E+03 -0.19088673583E+03 -0.35037346328E+03  0.52495250879E+03  0.00000000000E+00 0.  1.
         15    1    5    5    0    0 -0.36679145650E+03  0.36121928487E+02  0.93415533742E+03  0.10042360870E+04  0.17770000000E+01 0.  1.
        -15    1    5    5    0    0 -0.11021017850E+03  0.12855987305E+02  0.16669540506E+03  0.20025502654E+03  0.17770000000E+01 0. -1.
          3    1    6    6  503    0  0.70714159589E+02  0.12821887748E+03  0.48008875851E+03  0.50192209451E+03  0.00000000000E+00 0. -1.
         -3    1    6    6    0  503  0.26188624527E+02  0.50529045131E+02  0.51844670938E+03  0.52156113632E+03  0.00000000000E+00 0.  1.
<mgrwt>
<rscale>  0 0.56370648E+03</rscale>
<asrwt>0</asrwt>
<pdfrwt beam="1">  1        2 0.34737053E+00 0.56370648E+03</pdfrwt>
<pdfrwt beam="2">  1       -2 0.93160460E-01 0.56370648E+03</pdfrwt>
<totfact> 0.50583015E+00</totfact>
</mgrwt>
</event>
<event>
12    1  0.8033771E-008  0.7733782E+03  0.7818608E-02  0.9599371E-01
          1   -1    0    0  501    0  0.00000000000E+00  0.00000000000E+00  0.18533581861E+04  0.18533581861E+04  0.00000000000E+00 0. -1.
         -1   -1    0    0    0  501 -0.00000000000E+00 -0.00000000000E+00 -0.38506254915E+03  0.38506254915E+03  0.00000000000E+00 0.  1.
         23    2    1    2    0    0 -0.10416262327E+03  0.72352586644E+03  0.74276936016E+03  0.10463210071E+04  0.93497571730E+02 0.  0.
    5000000    2    1    2    0    0  0.10416262327E+03 -0.72352586644E+03  0.72552627676E+03  0.11920997282E+04  0.60031146260E+03 0.  0.
         23    2    4    4    0    0 -0.98678208791E+02 -0.40213967950E+03  0.71818634976E+02  0.43007369517E+03  0.91387943572E+02 0.  0.
         23    2    4    4    0    0  0.20284083206E+03 -0.32138618694E+03  0.65370764178E+03  0.76202603299E+03  0.94427272156E+02 0.  0.
          2    1    3    3  502    0 -0.93685309790E+02  0.60593545909E+03  0.57062471544E+03  0.83758419501E+03  0.00000000000E+00 0.  1.
         -2    1    3    3    0  502 -0.10477313478E+02  0.11759040735E+03  0.17214464472E+03  0.20873681205E+03  0.00000000000E+00 0. -1.
         15    1    5    5    0    0 -0.56808370487E+02 -0.36028217393E+03  0.64412170135E+02  0.37038158864E+03  0.17770000000E+01 0.  1.
        -15    1    5    5    0    0 -0.41869838304E+02 -0.41857505562E+02  0.74064648404E+01  0.59692106529E+02  0.17770000000E+01 0. -1.
          3    1    6    6  503    0  0.10148685020E+02 -0.89608165988E+02  0.14934868211E+03  0.17446388757E+03  0.00000000000E+00 0. -1.
         -3    1    6    6    0  503  0.19269214704E+03 -0.23177802095E+03  0.50435895967E+03  0.58756214542E+03  0.00000000000E+00 0.  1.
<mgrwt>
<rscale>  0 0.77337825E+03</rscale>
<asrwt>0</asrwt>
<pdfrwt beam="1">  1        1 0.28513202E+00 0.77337825E+03</pdfrwt>
<pdfrwt beam="2">  1       -1 0.59240394E-01 0.77337825E+03</pdfrwt>
<totfact> 0.11250088E+01</totfact>
</mgrwt>
</event>
<event>
12    1  0.8033771E-008  0.1119968E+04  0.7818608E-02  0.9185945E-01
          2   -1    0    0  501    0  0.00000000000E+00  0.00000000000E+00  0.78792708776E+03  0.78792708776E+03  0.00000000000E+00 0. -1.
         -2   -1    0    0    0  501 -0.00000000000E+00 -0.00000000000E+00 -0.18334170139E+04  0.18334170139E+04  0.00000000000E+00 0.  1.
         23    2    1    2    0    0 -0.10313228977E+04 -0.31293560009E+03 -0.84351470211E+03  0.13713648444E+04  0.86999279965E+02 0.  0.
    5000000    2    1    2    0    0  0.10313228977E+04  0.31293560009E+03 -0.20197522407E+03  0.12499792573E+04  0.60008211374E+03 0.  0.
         23    2    4    4    0    0  0.76288542014E+03  0.41566284775E+03 -0.31392501714E+03  0.92826714000E+03  0.91439595099E+02 0.  0.
         23    2    4    4    0    0  0.26843747759E+03 -0.10272724766E+03  0.11194979307E+03  0.32171211725E+03  0.91402206934E+02 0.  0.
          2    1    3    3  502    0 -0.13518477131E+03 -0.24870343369E+02 -0.77722473693E+02  0.15790579245E+03  0.00000000000E+00 0.  1.
         -2    1    3    3    0  502 -0.89613812642E+03 -0.28806525672E+03 -0.76579222841E+03  0.12134590520E+04  0.00000000000E+00 0. -1.
         15    1    5    5    0    0  0.23496064962E+03  0.12109690606E+03 -0.51925630097E+02  0.26938893132E+03  0.17770000000E+01 0. -1.
        -15    1    5    5    0    0  0.52792477052E+03  0.29456594169E+03 -0.26199938704E+03  0.65887820868E+03  0.17770000000E+01 0.  1.
          1    1    6    6  503    0  0.21197910171E+03 -0.56630604363E+02  0.11698533348E+03  0.24865183120E+03  0.00000000000E+00 0. -1.
         -1    1    6    6    0  503  0.56458375885E+02 -0.46096643297E+02 -0.50355404099E+01  0.73060286052E+02  0.00000000000E+00 0.  1.
<mgrwt>
<rscale>  0 0.11199684E+04</rscale>
<asrwt>0</asrwt>
<pdfrwt beam="1">  1        2 0.12121955E+00 0.11199684E+04</pdfrwt>
<pdfrwt beam="2">  1       -2 0.28206415E+00 0.11199684E+04</pdfrwt>
<totfact> 0.14202782E+00</totfact>
</mgrwt>
</event>
<event>
12    1  0.8033771E-008  0.9346844E+03  0.7818608E-02  0.9383233E-01
          2   -1    0    0  501    0  0.00000000000E+00  0.00000000000E+00  0.27112483666E+04  0.27112483666E+04  0.00000000000E+00 0. -1.
         -2   -1    0    0    0  501 -0.00000000000E+00 -0.00000000000E+00 -0.37785616926E+03  0.37785616926E+03  0.00000000000E+00 0.  1.
         23    2    1    2    0    0 -0.88465518162E+03 -0.18265013431E+03  0.13327506905E+04  0.16135307061E+04  0.10621240238E+03 0.  0.
    5000000    2    1    2    0    0  0.88465518162E+03  0.18265013431E+03  0.10006415068E+04  0.14755738298E+04  0.60004903140E+03 0.  0.
         23    2    4    4    0    0  0.42193713474E+02 -0.61448991961E+02  0.37848752621E+03  0.39635732518E+03  0.91049621982E+02 0.  0.
         23    2    4    4    0    0  0.84246146814E+03  0.24409912627E+03  0.62215398060E+03  0.10792165046E+04  0.91142632623E+02 0.  0.
          1    1    3    3  502    0 -0.35296228707E+03 -0.67025550005E+02  0.62354284363E+03  0.71963913060E+03  0.00000000000E+00 0. -1.
         -1    1    3    3    0  502 -0.53169289455E+03 -0.11562458430E+03  0.70920784692E+03  0.89389157550E+03  0.00000000000E+00 0.  1.
         15    1    5    5    0    0 -0.86024255031E+01 -0.70014684226E+00  0.20995249862E+03  0.21013733923E+03  0.17770000000E+01 0. -1.
        -15    1    5    5    0    0  0.50796138977E+02 -0.60748845119E+02  0.16853502758E+03  0.18621998596E+03  0.17770000000E+01 0.  1.
          3    1    6    6  503    0  0.61901753312E+03  0.16150570332E+03  0.49708414718E+03  0.81016013719E+03  0.00000000000E+00 0. -1.
         -3    1    6    6    0  503  0.22344393503E+03  0.82593422953E+02  0.12506983341E+03  0.26905636741E+03  0.00000000000E+00 0.  1.
<mgrwt>
<rscale>  0 0.93468444E+03</rscale>
<asrwt>0</asrwt>
<pdfrwt beam="1">  1        2 0.41711512E+00 0.93468444E+03</pdfrwt>
<pdfrwt beam="2">  1       -2 0.58131720E-01 0.93468444E+03</pdfrwt>
<totfact> 0.74222693E+00</totfact>
</mgrwt>
</event>
<event>
12    1  0.8033771E-008  0.1068332E+04  0.7818608E-02  0.9236619E-01
          2   -1    0    0  501    0  0.00000000000E+00  0.00000000000E+00  0.10596256325E+04  0.10596256325E+04  0.00000000000E+00 0. -1.
         -2   -1    0    0    0  501 -0.00000000000E+00 -0.00000000000E+00 -0.13672080585E+04  0.13672080585E+04  0.00000000000E+00 0.  1.
         23    2    1    2    0    0  0.54406537566E+03  0.89796398052E+03 -0.55709016528E+03  0.11920587313E+04  0.91148907221E+02 0.  0.
    5000000    2    1    2    0    0 -0.54406537566E+03 -0.89796398052E+03  0.24950773924E+03  0.12347749598E+04  0.60005720227E+03 0.  0.
         23    2    4    4    0    0 -0.47172183217E+03 -0.85283821376E+03  0.26621382439E+02  0.97925065965E+03  0.91480329122E+02 0.  0.
         23    2    4    4    0    0 -0.72343543495E+02 -0.45125766760E+02  0.22288635680E+03  0.25552430011E+03  0.91347779331E+02 0.  0.
          3    1    3    3  502    0  0.22636447325E+03  0.39497221045E+03 -0.29129283196E+03  0.54045854210E+03  0.00000000000E+00 0. -1.
         -3    1    3    3    0  502  0.31770090241E+03  0.50299177007E+03 -0.26579733331E+03  0.65160018919E+03  0.00000000000E+00 0.  1.
         15    1    5    5    0    0 -0.28627770004E+03 -0.43017484284E+03  0.31184757877E+02  0.51766877809E+03  0.17770000000E+01 0. -1.
        -15    1    5    5    0    0 -0.18544413213E+03 -0.42266337092E+03 -0.45633754385E+01  0.46158188156E+03  0.17770000000E+01 0.  1.
          2    1    6    6  503    0 -0.25117119675E+02  0.16885317111E+02  0.15562685376E+02  0.34032055636E+02  0.00000000000E+00 0.  1.
         -2    1    6    6    0  503 -0.47226423820E+02 -0.62011083871E+02  0.20732367143E+03  0.22149224448E+03  0.00000000000E+00 0. -1.
<mgrwt>
<rscale>  0 0.10683323E+04</rscale>
<asrwt>0</asrwt>
<pdfrwt beam="1">  1        2 0.16301933E+00 0.10683323E+04</pdfrwt>
<pdfrwt beam="2">  1       -2 0.21033970E+00 0.10683323E+04</pdfrwt>
<totfact> 0.25912673E+00</totfact>
</mgrwt>
</event>
<event>
12    1  0.8033771E-008  0.8312671E+03  0.7818608E-02  0.9515830E-01
         -3   -1    0    0    0  501 -0.00000000000E+00  0.00000000000E+00  0.11288981105E+04  0.11288981105E+04  0.00000000000E+00 0.  1.
          3   -1    0    0  501    0  0.00000000000E+00 -0.00000000000E+00 -0.65891229398E+03  0.65891229398E+03  0.00000000000E+00 0. -1.
         23    2    1    2    0    0 -0.57066405017E+03  0.45926854268E+03  0.17418986214E+02  0.73831716958E+03  0.90685000794E+02 0.  0.
    5000000    2    1    2    0    0  0.57066405017E+03 -0.45926854268E+03  0.45256683028E+03  0.10494932349E+04  0.60002855074E+03 0.  0.
         23    2    4    4    0    0  0.29171266623E+03 -0.55391599149E+03  0.23516769174E+03  0.67494988269E+03  0.91292363470E+02 0.  0.
         23    2    4    4    0    0  0.27895138394E+03  0.94647448808E+02  0.21739913854E+03  0.37454335218E+03  0.79046334888E+02 0.  0.
          3    1    3    3  502    0 -0.34057244887E+03  0.25814348893E+03  0.53108197258E+02  0.43063689394E+03  0.00000000000E+00 0. -1.
         -3    1    3    3    0  502 -0.23009160129E+03  0.20112505376E+03 -0.35689211044E+02  0.30768027564E+03  0.00000000000E+00 0.  1.
         15    1    5    5    0    0  0.72232487381E+02 -0.21961133235E+03  0.10902467175E+03  0.25560948008E+03  0.17770000000E+01 0. -1.
        -15    1    5    5    0    0  0.21948017885E+03 -0.33430465914E+03  0.12614301999E+03  0.41934040260E+03  0.17770000000E+01 0.  1.
          1    1    6    6  503    0  0.39425358760E+02 -0.35776204288E+01  0.58982952520E+02  0.71036237015E+02  0.00000000000E+00 0. -1.
         -1    1    6    6    0  503  0.23952602518E+03  0.98225069237E+02  0.15841618602E+03  0.30350711517E+03  0.00000000000E+00 0.  1.
<mgrwt>
<rscale>  0 0.83126715E+03</rscale>
<asrwt>0</asrwt>
<pdfrwt beam="1">  1        3 0.10137112E+00 0.83126715E+03</pdfrwt>
<pdfrwt beam="2">  1       -3 0.17367663E+00 0.83126715E+03</pdfrwt>
<totfact> 0.47721158E-01</totfact>
</mgrwt>
</event>
<event>
12    1  0.8033771E-008  0.7848367E+03  0.7818608E-02  0.9582229E-01
          1   -1    0    0  501    0  0.00000000000E+00  0.00000000000E+00  0.12454765709E+04  0.12454765709E+04  0.00000000000E+00 0. -1.
         -1   -1    0    0    0  501 -0.00000000000E+00 -0.00000000000E+00 -0.61951096306E+03  0.61951096306E+03  0.00000000000E+00 0.  1.
         23    2    1    2    0    0 -0.18139986532E+03  0.66073420985E+03  0.65671497267E+03  0.95341416317E+03  0.90820724495E+02 0.  0.
    5000000    2    1    2    0    0  0.18139986532E+03 -0.66073420985E+03 -0.30749364865E+02  0.91157337076E+03  0.60045389468E+03 0.  0.
         23    2    4    4    0    0  0.40735551028E+02  0.95441861794E+02 -0.59475228887E+01  0.13655288346E+03  0.88559487649E+02 0.  0.
         23    2    4    4    0    0  0.14066431429E+03 -0.75617607165E+03 -0.24801841977E+02  0.77502048730E+03  0.91939783120E+02 0.  0.
          3    1    3    3  502    0 -0.15882419146E+03  0.46070636018E+03  0.42638974257E+03  0.64752118627E+03  0.00000000000E+00 0. -1.
         -3    1    3    3    0  502 -0.22575673862E+02  0.20002784967E+03  0.23032523010E+03  0.30589297690E+03  0.00000000000E+00 0.  1.
         15    1    5    5    0    0  0.28893841278E+02  0.27251315848E+02  0.37633612236E+02  0.54744267081E+02  0.17770000000E+01 0. -1.
        -15    1    5    5    0    0  0.11841709750E+02  0.68190545947E+02 -0.43581135125E+02  0.81808616380E+02  0.17770000000E+01 0.  1.
          1    1    6    6  503    0  0.97113139866E+01 -0.21705891912E+03  0.21283731456E+02  0.21831601227E+03  0.00000000000E+00 0. -1.
         -1    1    6    6    0  503  0.13095300030E+03 -0.53911715253E+03 -0.46085573433E+02  0.55670447503E+03  0.00000000000E+00 0.  1.
<mgrwt>
<rscale>  0 0.78483665E+03</rscale>
<asrwt>0</asrwt>
<pdfrwt beam="1">  1        1 0.19161178E+00 0.78483665E+03</pdfrwt>
<pdfrwt beam="2">  1       -1 0.95309379E-01 0.78483665E+03</pdfrwt>
<totfact> 0.10837880E+01</totfact>
</mgrwt>
</event>
<event>
12    1  0.8033771E-008  0.8023628E+03  0.7818608E-02  0.9556603E-01
          2   -1    0    0  501    0  0.00000000000E+00  0.00000000000E+00  0.65305745289E+03  0.65305745289E+03  0.00000000000E+00 0.  1.
         -2   -1    0    0    0  501 -0.00000000000E+00 -0.00000000000E+00 -0.12455856217E+04  0.12455856217E+04  0.00000000000E+00 0. -1.
         23    2    1    2    0    0 -0.56572329290E+03 -0.54421399330E+03 -0.10592621177E+03  0.79723123194E+03  0.90252757319E+02 0.  0.
    5000000    2    1    2    0    0  0.56572329290E+03  0.54421399330E+03 -0.48660195706E+03  0.11014118427E+04  0.60009571563E+03 0.  0.
         23    2    4    4    0    0  0.70177173753E+02  0.98433677566E+02  0.12137078744E+03  0.19459189062E+03  0.92309865431E+02 0.  0.
         23    2    4    4    0    0  0.49554611915E+03  0.44578031574E+03 -0.60797274451E+03  0.90681995205E+03  0.91681629972E+02 0.  0.
          4    1    3    3  502    0 -0.15097514224E+03 -0.17726331814E+03 -0.66004253971E+02  0.24201722888E+03  0.00000000000E+00 0. -1.
         -4    1    3    3    0  502 -0.41474815066E+03 -0.36695067516E+03 -0.39921957798E+02  0.55521400306E+03  0.00000000000E+00 0.  1.
         15    1    5    5    0    0  0.32531462529E+02  0.10274232317E+03  0.62605503848E+02  0.12464705317E+03  0.17770000000E+01 0.  1.
        -15    1    5    5    0    0  0.37645711223E+02 -0.43086456012E+01  0.58765283594E+02  0.69944837446E+02  0.17770000000E+01 0. -1.
          2    1    6    6  503    0 -0.25336928433E+00 -0.33788928756E+01 -0.58335355604E+01  0.67462026499E+01  0.00000000000E+00 0. -1.
         -2    1    6    6    0  503  0.49579948843E+03  0.44915920861E+03 -0.60213920895E+03  0.90007374940E+03  0.00000000000E+00 0.  1.
<mgrwt>
<rscale>  0 0.80236276E+03</rscale>
<asrwt>0</asrwt>
<pdfrwt beam="1">  1        2 0.10047038E+00 0.80236276E+03</pdfrwt>
<pdfrwt beam="2">  1       -2 0.19162856E+00 0.80236276E+03</pdfrwt>
<totfact> 0.68458085E+00</totfact>
</mgrwt>
</event>
