<LesHouchesEvents version="3.0">
  <!--
  <scalesfunctionalform>
    muR  H_T/2 := sum_i mT(i)/2, i=final state
    muF1 H_T/2 := sum_i mT(i)/2, i=final state
    muF2 H_T/2 := sum_i mT(i)/2, i=final state
    QES  H_T/2 := sum_i mT(i)/2, i=final state
  </scalesfunctionalform>
HERWIG6   
  -->
  <header>
      365
  </header>
  <init>
   2212   2212 0.65000000D+04 0.65000000D+04 -1 -1   244800   244800 -4   1
 0.94047336D-03 0.31762904D-05 0.27870365D-05     66
  </init>
  <event>
  8     66 0.27870365E-05 0.20820282E+03 0.75467711E-02 0.95578089E-01
       -2 -1    0    0    0  501 0.00000000E+00 0.00000000E+00 0.44771723E+03 0.44771734E+03 0.32000000E+00 0.0000E+00 0.9000E+01
        2 -1    0    0  501    0 0.00000000E+00 0.00000000E+00 -.11923124E+03 0.11923167E+03 0.32000000E+00 0.0000E+00 0.9000E+01
       25  2    1    2    0    0 -.68299043E+02 0.55778125E+02 0.14742382E+03 0.34587274E+03 0.30019695E+03 0.0000E+00 0.0000E+00
       23  2    3    3    0    0 0.47469012E+02 0.92992447E+02 0.68702171E+01 0.13885169E+03 0.91278089E+02 0.0000E+00 0.0000E+00
       23  1    1    2    0    0 0.68299043E+02 -.55778125E+02 0.18106216E+03 0.22107627E+03 0.91188000E+02 0.0000E+00 0.9000E+01
      -13  1    4    4    0    0 0.43665244E+02 0.11093441E+03 -.13378741E+00 0.11921881E+03 0.10565837E+00 0.0000E+00 0.9000E+01
       13  1    4    4    0    0 0.38037679E+01 -.17941961E+02 0.70040045E+01 0.19632877E+02 0.10565837E+00 0.0000E+00 0.9000E+01
       23  1    3    3    0    0 -.11576805E+03 -.37214322E+02 0.14055361E+03 0.20702105E+03 0.91188000E+02 0.0000E+00 0.9000E+01
#aMCatNLO 1  0  0  2  1 0.36234084D+03 0.00000000D+00  -5  7  0 0.00000000D+00 0.00000000D+00 0.00000000D+00 0.00000000D+00 0.00000000D+00
  <mgrwgt>
 0.4774079013D-03    3    2    0
 0.231045523574883D+03 0.000000000000000D+00 0.000000000000000D+00 0.231045523574883D+03
 0.231045523574883D+03 0.000000000000000D+00 0.000000000000000D+00 -.231045523574883D+03
 0.142531631172947D+03 0.682990468366732D+02 -.557781281814955D+02 0.649927315827816D+02
 0.146367286605919D+03 0.436652935499848D+02 0.110934578537022D+03 -.849131557085595D+02
 0.191088819264874D+02 0.380371343990990D+01 -.179421321587705D+02 -.536293074211286D+01
 0.154083247444413D+03 -.115768053826568D+03 -.372143181967565D+02 0.252833548678907D+02
 0.000000000000000D+00 -.000000000000000D+00 -.000000000000000D+00 0.000000000000000D+00
 0.780288458219472D+03 0.000000000000000D+00 0.000000000000000D+00 0.780288458219472D+03
 0.361048289549972D+03 0.000000000000000D+00 0.000000000000000D+00 -.361048289549972D+03
 0.228208257820793D+03 0.195122548556747D+03 -.383000454272617D+02 0.649927315827816D+02
 0.231794298655960D+03 0.173027625154220D+03 0.128762548167210D+03 -.849131557085595D+02
 0.253169894320164D+02 0.190010114375529D+02 -.158477282948097D+02 -.536293074211286D+01
 0.101893382816469D+03 -.282030154480358D+02 -.251466101899573D+02 0.252833548678907D+02
 0.554123819044205D+03 -.358948169700484D+03 -.494681642551808D+02 0.419240168669499D+03
0.625211854913D-05 0.000000000000D+00 0.000000000000D+00 0.209501273560D-06 0.000000000000D+00  7 -2 2 23 -13 13 23 21 0 0.68879615D-01 0.18343309D-01 0.43348412D+05 0.43348412D+05 0.43348412D+05 0.11527889D+01  1  2  2  2  7  2        2 0.471574087029D-03 0.100000000000D+01
-.342763191986D-06 0.000000000000D+00 -.240097814493D-07 0.209501273560D-06 0.000000000000D+00  7 -2 2 23 -13 13 23 21 2 0.68879615D-01 0.18343309D-01 0.43348412D+05 0.43348412D+05 0.43348412D+05 0.11527889D+01  1  2  3  2  7  2        2 -.343570955816D-04 0.100000000000D+01
0.400964176923D-06 0.000000000000D+00 0.000000000000D+00 0.209501273560D-06 0.000000000000D+00  7 -2 2 23 -13 13 23 21 2 0.68879615D-01 0.18343309D-01 0.43348412D+05 0.43348412D+05 0.43348412D+05 0.11527889D+01  1  2 15  2  7  2        2 0.401909098568D-04 0.100000000000D+01
  </mgrwgt>
  </event>
  <event>
  8     66 0.27870365E-05 0.22977346E+03 0.75467711E-02 0.93232647E-01
       -2 -1    0    0    0  501 0.00000000E+00 0.00000000E+00 0.89693239E+02 0.89693810E+02 0.32000000E+00 0.0000E+00 0.9000E+01
        2 -1    0    0  501    0 0.00000000E+00 0.00000000E+00 -.10438714E+04 0.10438714E+04 0.32000000E+00 0.0000E+00 0.9000E+01
       25  2    1    2    0    0 0.34427963E+02 -.17404048E+03 -.33672538E+03 0.48469042E+03 0.30010906E+03 0.0000E+00 0.0000E+00
       23  2    3    3    0    0 -.32352596E+02 -.10626656E+03 -.24820401E+02 0.14608606E+03 0.91574069E+02 0.0000E+00 0.0000E+00
       23  1    1    2    0    0 -.34427963E+02 0.17404048E+03 -.61745276E+03 0.64887482E+03 0.91188000E+02 0.0000E+00 0.9000E+01
      -11  1    4    4    0    0 0.19728255E+02 -.27076342E+02 -.37699176E+02 0.50433720E+02 0.51099893E-03 0.0000E+00 0.9000E+01
       11  1    4    4    0    0 -.52080851E+02 -.79190223E+02 0.12878775E+02 0.95652335E+02 0.51099893E-03 0.0000E+00 0.9000E+01
       23  1    3    3    0    0 0.66780559E+02 -.67773911E+02 -.31190498E+03 0.33860436E+03 0.91188000E+02 0.0000E+00 0.9000E+01
#aMCatNLO 1  0  0  2  1 0.46636753D+03 0.00000000D+00  -5  7  0 0.00000000D+00 0.00000000D+00 0.00000000D+00 0.00000000D+00 0.00000000D+00
  <mgrwgt>
 0.5777460822D-03    5    2    0
 0.305987837259120D+03 0.000000000000000D+00 0.000000000000000D+00 0.305987837259120D+03
 0.305987837259120D+03 0.000000000000000D+00 0.000000000000000D+00 -.305987837259120D+03
 0.239195807092521D+03 -.344279629803075D+02 0.174040475480268D+03 -.132000041841930D+03
 0.346389306773465D+02 0.197282547473588D+02 -.270763415754614D+02 0.880472657055692D+01
 0.197257525780655D+03 -.520808506372949D+02 -.791902228949833D+02 0.172994292020993D+03
 0.140883410967717D+03 0.667805588702436D+02 -.677739110098237D+02 -.497989767496195D+02
 0.000000000000000D+00 0.000000000000000D+00 0.000000000000000D+00 -.000000000000000D+00
 0.429902654104252D+03 0.000000000000000D+00 0.000000000000000D+00 0.429902654104252D+03
 0.158793671226985D+04 0.000000000000000D+00 0.000000000000000D+00 -.158793671226985D+04
 0.218552695011403D+03 -.136576629791024D+03 0.580761767112949D+02 -.132000041841930D+03
 0.490968402138884D+02 0.104223541230199D+01 -.482896495571376D+02 0.880472657055692D+01
 0.319526844911740D+03 -.167403640886117D+03 -.210110448491927D+03 0.172994292020993D+03
 0.182247367502334D+03 -.532754869212899D+01 -.149634657606969D+03 -.497989767496195D+02
 0.124841561873473D+04 0.308265583956967D+03 0.349958578944739D+03 -.115803405816560D+04
0.518684950587D-05 0.000000000000D+00 0.000000000000D+00 0.557460546194D-06 0.000000000000D+00  7 -2 2 23 -11 11 23 21 0 0.13799008D-01 0.16059564D+00 0.52795842D+05 0.52795842D+05 0.52795842D+05 0.11452227D+01  1  2  2  2  7  2        2 0.568929958047D-03 0.100000000000D+01
-.259409830309D-06 0.000000000000D+00 -.199188678314D-07 0.557460546194D-06 0.000000000000D+00  7 -2 2 23 -11 11 23 21 2 0.13799008D-01 0.16059564D+00 0.52795842D+05 0.52795842D+05 0.52795842D+05 0.11452227D+01  1  2  3  2  7  2        2 -.373182689342D-04 0.100000000000D+01
0.321212878441D-06 0.000000000000D+00 0.000000000000D+00 0.557460546194D-06 0.000000000000D+00  7 -2 2 23 -11 11 23 21 2 0.13799008D-01 0.16059564D+00 0.52795842D+05 0.52795842D+05 0.52795842D+05 0.11452227D+01  1  2 15  2  7  2        2 0.462091531710D-04 0.100000000000D+01
-.195012414002D-05 0.000000000000D+00 -.203473626344D-05 0.557460546194D-06 0.000000000000D+00  7 -2 2 23 -11 11 23 21 2 0.13799008D-01 0.84859437D+00 0.52795842D+05 0.52795842D+05 0.52795842D+05 0.11452227D+01  1  2  5  2  7  2        2 -.746891720280D-07 0.100000000000D+01
-.476172337672D-06 0.000000000000D+00 -.413962287913D-06 0.557460546194D-06 0.000000000000D+00  7 -2 21 23 -11 11 23 -2 2 0.13799008D-01 0.84859437D+00 0.52795842D+05 0.52795842D+05 0.52795842D+05 0.11452227D+01  1  2  5  4  7  2        2 -.708683401638D-10 0.100000000000D+01
  </mgrwgt>
  </event>
  <event>
  8     66 0.27870365E-05 0.22182086E+03 0.75467711E-02 0.10031155E+00
       -2 -1    0    0    0  501 0.00000000E+00 0.00000000E+00 0.67635752E+02 0.67636509E+02 0.32000000E+00 0.0000E+00 0.9000E+01
        2 -1    0    0  501    0 0.00000000E+00 0.00000000E+00 -.13383867E+04 0.13383867E+04 0.32000000E+00 0.0000E+00 0.9000E+01
       25  2    1    2    0    0 -.20391470E+02 0.20407555E+03 -.91392668E+03 0.98447675E+03 0.30310039E+03 0.0000E+00 0.0000E+00
       23  2    3    3    0    0 -.23416368E+02 0.22882788E+03 -.79414537E+03 0.83188369E+03 0.91940643E+02 0.0000E+00 0.0000E+00
       23  1    1    2    0    0 0.20391470E+02 -.20407555E+03 -.35682426E+03 0.42154649E+03 0.91188000E+02 0.0000E+00 0.9000E+01
      -13  1    4    4    0    0 0.20707895E+02 0.17492315E+03 -.61299935E+03 0.63780494E+03 0.10565837E+00 0.0000E+00 0.9000E+01
       13  1    4    4    0    0 -.44124263E+02 0.53904730E+02 -.18114602E+03 0.19407875E+03 0.10565837E+00 0.0000E+00 0.9000E+01
       23  1    3    3    0    0 0.30248982E+01 -.24752329E+02 -.11978131E+03 0.15259306E+03 0.91188000E+02 0.0000E+00 0.9000E+01
#aMCatNLO 1  0  0  2  1 0.55782517D+02 0.00000000D+00  -5  7  0 0.00000000D+00 0.00000000D+00 0.00000000D+00 0.00000000D+00 0.00000000D+00
  <mgrwgt>
 0.4130593408D-03    9    2    0
 0.300870984576944D+03 0.000000000000000D+00 0.000000000000000D+00 0.300870984576944D+03
 0.300870984576944D+03 0.000000000000000D+00 0.000000000000000D+00 -.300870984576944D+03
 0.231443741329230D+03 0.203914716958124D+02 -.204075568580854D+03 0.564650710346820D+02
 0.195763574102649D+03 0.207079804747040D+02 0.174923300693874D+03 -.854189403145636D+02
 0.709401425529997D+02 -.441243475389800D+02 0.539045696515775D+02 -.134105611507291D+02
 0.103594511169009D+03 0.302489536846363D+01 -.247523017645977D+02 0.423644304306107D+02
 0.000000000000000D+00 -.000000000000000D+00 0.000000000000000D+00 -.000000000000000D+00
 0.310881389432599D+03 0.000000000000000D+00 0.000000000000000D+00 0.310881389432599D+03
 0.391368322742354D+03 0.000000000000000D+00 0.000000000000000D+00 -.391368322742354D+03
 0.235518426973597D+03 0.419460799764135D+02 -.205440746269522D+03 0.564650710346820D+02
 0.197493779727967D+03 0.388604321949204D+02 0.173773601206857D+03 -.854189403145636D+02
 0.668462240462902D+02 -.377642366776458D+02 0.535017471399217D+02 -.134105611507291D+02
 0.104463575044537D+03 0.126286938180122D+02 -.253605657237060D+02 0.423644304306107D+02
 0.979277063825623D+02 -.556709693117002D+02 0.352596364644893D+01 -.804869333097553D+02
0.255877844186D-05 0.000000000000D+00 0.000000000000D+00 0.806531422754D-08 0.000000000000D+00  7 -2 2 23 -13 13 23 21 0 0.10405561D-01 0.20590571D+00 0.79747544D+05 0.79747544D+05 0.79747544D+05 0.11298776D+01  1  2  2  2  7  2        2 0.296202104833D-03 0.100000000000D+01
-.141460258088D-06 0.000000000000D+00 -.982638295857D-08 0.806531422754D-08 0.000000000000D+00  7 -2 2 23 -13 13 23 21 2 0.10405561D-01 0.20590571D+00 0.79747544D+05 0.79747544D+05 0.79747544D+05 0.11298776D+01  1  2  3  2  7  2        2 -.209051225550D-04 0.100000000000D+01
0.162939511696D-06 0.000000000000D+00 0.000000000000D+00 0.806531422754D-08 0.000000000000D+00  7 -2 2 23 -13 13 23 21 2 0.10405561D-01 0.20590571D+00 0.79747544D+05 0.79747544D+05 0.79747544D+05 0.11298776D+01  1  2 15  2  7  2        2 0.240793457266D-04 0.100000000000D+01
0.568192353291D-05 0.000000000000D+00 0.000000000000D+00 0.806531422754D-08 0.000000000000D+00  7 -2 2 23 -13 13 23 21 2 0.10405561D-01 0.27052206D+00 0.97179542D+05 0.97179542D+05 0.97179542D+05 0.11227431D+01  1  2 12  2  7  2        2 0.491777275841D-03 0.100000000000D+01
-.574303652569D-05 0.000000000000D+00 0.000000000000D+00 0.806531422754D-08 0.000000000000D+00  7 -2 2 23 -13 13 23 21 2 0.10405561D-01 0.20590571D+00 0.79747544D+05 0.79747544D+05 0.79747544D+05 0.11298776D+01  1  2  4  2  7  2        2 -.848711037506D-03 0.100000000000D+01
-.762178674726D-05 0.000000000000D+00 -.121365735135D-05 0.806531422754D-08 0.000000000000D+00  7 -2 2 23 -13 13 23 21 2 0.10405561D-01 0.27115568D+00 0.79747544D+05 0.79747544D+05 0.79747544D+05 0.11298776D+01  1  2  5  2  7  2        2 -.667028361001D-03 0.100000000000D+01
0.770661329611D-05 0.000000000000D+00 0.116908261176D-05 0.806531422754D-08 0.000000000000D+00  7 -2 2 23 -13 13 23 21 2 0.10405561D-01 0.20590571D+00 0.79747544D+05 0.79747544D+05 0.79747544D+05 0.11298776D+01  1  2  6  2  7  2        2 0.113889015627D-02 0.100000000000D+01
0.205076134715D-06 0.000000000000D+00 0.000000000000D+00 0.806531422754D-08 0.000000000000D+00  7 -2 21 23 -13 13 23 -2 2 0.10405561D-01 0.27052206D+00 0.97179542D+05 0.97179542D+05 0.97179542D+05 0.11227431D+01  1  2 12  4  7  2        2 0.487049058206D-05 0.100000000000D+01
-.253039691196D-06 0.000000000000D+00 -.440774643897D-07 0.806531422754D-08 0.000000000000D+00  7 -2 21 23 -13 13 23 -2 2 0.10405561D-01 0.27115568D+00 0.79747544D+05 0.79747544D+05 0.79747544D+05 0.11298776D+01  1  2  5  4  7  2        2 -.611551140236D-05 0.100000000000D+01
  </mgrwgt>
  </event>
  <event>
  8     66 0.27870365E-05 0.26999104E+03 0.75467711E-02 0.95267317E-01
       -2 -1    0    0    0  501 0.00000000E+00 0.00000000E+00 0.28069146E+03 0.28069164E+03 0.32000000E+00 0.0000E+00 0.9000E+01
        2 -1    0    0  501    0 0.00000000E+00 0.00000000E+00 -.35259674E+03 0.35259688E+03 0.32000000E+00 0.0000E+00 0.9000E+01
       25  2    1    2    0    0 -.62543494E+02 -.20016870E+03 -.14394883E+03 0.39352880E+03 0.30027396E+03 0.0000E+00 0.0000E+00
       23  2    3    3    0    0 0.41507665E+02 -.77737797E+02 0.39459817E+02 0.13320217E+03 0.91758865E+02 0.0000E+00 0.0000E+00
       23  1    1    2    0    0 0.62543494E+02 0.20016870E+03 0.72043554E+02 0.23975972E+03 0.91188000E+02 0.0000E+00 0.9000E+01
      -13  1    4    4    0    0 0.34494790E+02 -.98645695E+02 0.27261185E+02 0.10800022E+03 0.10565837E+00 0.0000E+00 0.9000E+01
       13  1    4    4    0    0 0.70128752E+01 0.20907897E+02 0.12198631E+02 0.25201951E+02 0.10565837E+00 0.0000E+00 0.9000E+01
       23  1    3    3    0    0 -.10405116E+03 -.12243090E+03 -.18340865E+03 0.26032663E+03 0.91188000E+02 0.0000E+00 0.9000E+01
#aMCatNLO 1  0  0  2  1 0.33574500D+03 0.00000000D+00  -5  7  0 0.00000000D+00 0.00000000D+00 0.00000000D+00 0.00000000D+00 0.00000000D+00
  <mgrwgt>
 0.4919529744D-03    3    2    0
 0.314596558533687D+03 0.000000000000000D+00 0.000000000000000D+00 0.314596558533687D+03
 0.314596558533687D+03 0.000000000000000D+00 0.000000000000000D+00 -.314596558533687D+03
 0.249553571595712D+03 0.625434939353546D+02 0.200168702509262D+03 0.999126401127162D+02
 0.111818755889347D+03 0.344948264246495D+02 -.986458525649336D+02 0.397811122307061D+02
 0.267599578689346D+02 0.701283875310676D+01 0.209080553249051D+02 0.151581219252513D+02
 0.241060831713381D+03 -.104051159113111D+03 -.122430905269233D+03 -.154851874268674D+03
 0.000000000000000D+00 -.000000000000000D+00 -.000000000000000D+00 0.000000000000000D+00
 0.914200644799043D+03 0.000000000000000D+00 0.000000000000000D+00 0.914200644799043D+03
 0.407122654842563D+03 0.000000000000000D+00 0.000000000000000D+00 -.407122654842563D+03
 0.394677220116303D+03 0.116653259184512D+03 0.351943657709684D+03 0.999126401127162D+02
 0.833419328664713D+02 0.508866213998295D+02 -.526677571775919D+02 0.397811122307061D+02
 0.420970202485816D+02 0.127962241013978D+02 0.371301373853573D+02 0.151581219252513D+02
 0.193051888420787D+03 -.675894784851014D+02 -.201578697392124D+02 -.154851874268674D+03
 0.608155237989463D+03 -.112746626200638D+03 -.316248168178236D+03 0.507077989956480D+03
0.859166098145D-05 0.000000000000D+00 0.000000000000D+00 0.284979969602D-06 0.000000000000D+00  7 -2 2 23 -13 13 23 21 0 0.43183326D-01 0.54245677D-01 0.72895162D+05 0.72895162D+05 0.72895162D+05 0.11331664D+01  1  2  2  2  7  2        2 0.485973317075D-03 0.100000000000D+01
-.463746555254D-06 0.000000000000D+00 -.329942404050D-07 0.284979969602D-06 0.000000000000D+00  7 -2 2 23 -13 13 23 21 2 0.43183326D-01 0.54245677D-01 0.72895162D+05 0.72895162D+05 0.72895162D+05 0.11331664D+01  1  2  3  2  7  2        2 -.336824273304D-04 0.100000000000D+01
0.546075701313D-06 0.000000000000D+00 0.000000000000D+00 0.284979969602D-06 0.000000000000D+00  7 -2 2 23 -13 13 23 21 2 0.43183326D-01 0.54245677D-01 0.72895162D+05 0.72895162D+05 0.72895162D+05 0.11331664D+01  1  2 15  2  7  2        2 0.396620846409D-04 0.100000000000D+01
  </mgrwgt>
  </event>
  <event>
  8     66 0.27870365E-05 0.47278177E+03 0.75467711E-02 0.91074050E-01
       -2 -1    0    0    0  501 0.00000000E+00 0.00000000E+00 0.11320094E+03 0.11320139E+03 0.32000000E+00 0.0000E+00 0.9000E+01
        2 -1    0    0  501    0 0.00000000E+00 0.00000000E+00 -.26343894E+04 0.26343894E+04 0.32000000E+00 0.0000E+00 0.9000E+01
       25  2    1    2    0    0 -.19302213E+03 -.40058249E+03 -.76955619E+03 0.93810063E+03 0.30015360E+03 0.0000E+00 0.0000E+00
       23  2    3    3    0    0 -.14010080E+02 -.67764537E+02 -.33953949E+03 0.35840871E+03 0.91550116E+02 0.0000E+00 0.0000E+00
       23  1    1    2    0    0 0.19302213E+03 0.40058249E+03 -.17516322E+04 0.18094901E+04 0.91188000E+02 0.0000E+00 0.9000E+01
      -11  1    4    4    0    0 0.23142041E+02 -.60855002E+02 -.28307439E+03 0.29046513E+03 0.51099893E-03 0.0000E+00 0.9000E+01
       11  1    4    4    0    0 -.37152121E+02 -.69095351E+01 -.56465103E+02 0.67943577E+02 0.51099893E-03 0.0000E+00 0.9000E+01
       23  1    3    3    0    0 -.17901205E+03 -.33281796E+03 -.43001670E+03 0.57969192E+03 0.91188000E+02 0.0000E+00 0.9000E+01
#aMCatNLO 1  0  0  1  1 0.37735791D+03 0.00000000D+00  -5  7  0 0.00000000D+00 0.00000000D+00 0.00000000D+00 0.00000000D+00 0.00000000D+00
  <mgrwgt>
 0.5916439713D-03    3    2    0
 0.546091572072247D+03 0.000000000000000D+00 0.000000000000000D+00 0.546091572072247D+03
 0.546091572072247D+03 0.000000000000000D+00 0.000000000000000D+00 -.546091572072247D+03
 0.508654201351775D+03 0.193022128355161D+03 0.400582493789605D+03 -.229542956422880D+03
 0.772722560527790D+02 0.231420408654336D+02 -.608550022292620D+02 -.416187001688587D+02
 0.405810888872825D+02 -.371521212340451D+02 -.690953506124053D+01 0.147919906816434D+02
 0.465675597852659D+03 -.179012047986550D+03 -.332817956499103D+03 0.256369665910095D+03
 0.000000000000000D+00 -.000000000000000D+00 -.000000000000000D+00 -.000000000000000D+00
 0.678720695185864D+03 0.000000000000000D+00 0.000000000000000D+00 0.678720695185864D+03
 0.930405488121464D+03 0.000000000000000D+00 0.000000000000000D+00 -.930405488121464D+03
 0.629786376726228D+03 0.380710141381708D+03 0.436675449701165D+03 -.229542956422880D+03
 0.856357786877063D+02 0.499997319344938D+02 -.556901893890048D+02 -.416187001688587D+02
 0.298788011547695D+02 -.255358129130713D+02 -.467568486844911D+01 0.147919906816434D+02
 0.410234854650294D+03 -.346058351502056D+02 -.305048217829003D+03 0.256369665910095D+03
 0.453590372088330D+03 -.370568225252925D+03 -.712613576147079D+02 -.251684792935600D+03
0.609481109153D-04 0.000000000000D+00 0.000000000000D+00 0.176113026086D-05 0.000000000000D+00  7 -2 2 23 -11 11 23 21 0 0.17415566D-01 0.40529071D+00 0.22352260D+06 0.22352260D+06 0.22352260D+06 0.10941356D+01  1  2  2  1  7  1       -2 0.586602884288D-03 0.100000000000D+01
-.330045710295D-05 0.000000000000D+00 -.234056793921D-06 0.176113026086D-05 0.000000000000D+00  7 -2 2 23 -11 11 23 21 2 0.17415566D-01 0.40529071D+00 0.22352260D+06 0.22352260D+06 0.22352260D+06 0.10941356D+01  1  2  3  1  7  1       -2 -.380277258229D-04 0.100000000000D+01
0.373797712506D-05 0.000000000000D+00 0.000000000000D+00 0.176113026086D-05 0.000000000000D+00  7 -2 2 23 -11 11 23 21 2 0.17415566D-01 0.40529071D+00 0.22352260D+06 0.22352260D+06 0.22352260D+06 0.10941356D+01  1  2 15  1  7  1       -2 0.430688128372D-04 0.100000000000D+01
  </mgrwgt>
  </event>
  <event>
  8     66 0.27870365E-05 0.23391617E+03 0.75467711E-02 0.91553958E-01
       -2 -1    0    0    0  501 0.00000000E+00 0.00000000E+00 0.22372630E+02 0.22374919E+02 0.32000000E+00 0.0000E+00 0.9000E+01
        2 -1    0    0  501    0 0.00000000E+00 0.00000000E+00 -.26430986E+04 0.26430986E+04 0.32000000E+00 0.0000E+00 0.9000E+01
       25  2    1    2    0    0 -.13853143E+02 -.12470384E+03 -.19475289E+04 0.19746389E+04 0.30097673E+03 0.0000E+00 0.0000E+00
       23  2    3    3    0    0 -.11100919E+03 -.38315666E+01 -.98911003E+03 0.99948179E+03 0.91035540E+02 0.0000E+00 0.0000E+00
       23  1    1    2    0    0 0.13853143E+02 0.12470384E+03 -.67319708E+03 0.69083465E+03 0.91188000E+02 0.0000E+00 0.9000E+01
      -11  1    4    4    0    0 -.80145177E+02 0.31317706E+02 -.80243762E+03 0.80703790E+03 0.51099893E-03 0.0000E+00 0.9000E+01
       11  1    4    4    0    0 -.30864009E+02 -.35149272E+02 -.18667241E+03 0.19244388E+03 0.51099893E-03 0.0000E+00 0.9000E+01
       23  1    3    3    0    0 0.97156043E+02 -.12087228E+03 -.95841883E+03 0.97515706E+03 0.91188000E+02 0.0000E+00 0.9000E+01
#aMCatNLO 1  0  0  2  1 0.57880804D+03 0.00000000D+00  -5  7  0 0.00000000D+00 0.00000000D+00 0.00000000D+00 0.00000000D+00 0.00000000D+00
  <mgrwgt>
 0.7814073554D-03    3    2    0
 0.243179240667453D+03 0.000000000000000D+00 0.000000000000000D+00 0.243179240667453D+03
 0.243179240667453D+03 0.000000000000000D+00 0.000000000000000D+00 -.243179240667453D+03
 0.158599921308375D+03 0.138531430216672D+02 0.124703844287214D+03 0.331017423020930D+02
 0.990402659610849D+02 -.801451768328977D+02 0.313177058435786D+02 -.490400470305757D+02
 0.488052295122285D+02 -.308640086492047D+02 -.351492724722196D+02 0.139245122900872D+02
 0.179913064553217D+03 0.971560424604352D+02 -.120872277658573D+03 0.201379243839546D+01
 0.000000000000000D+00 -.000000000000000D+00 -.000000000000000D+00 0.000000000000000D+00
 0.795607658886837D+03 0.000000000000000D+00 0.000000000000000D+00 0.795607658886837D+03
 0.578571684998984D+03 0.000000000000000D+00 0.000000000000000D+00 -.578571684998984D+03
 0.395853598282985D+03 0.408701694369566D+02 0.381600214670206D+03 0.331017423020930D+02
 0.181043311260358D+03 -.664974586078291D+02 0.161089547575421D+03 -.490400470305757D+02
 0.304222129466742D+02 -.270034688021395D+02 0.155938151453850D+01 0.139245122900872D+02
 0.148698946334941D+03 0.113168420531531D+03 0.313843676300020D+02 0.201379243839546D+01
 0.618161275060863D+03 -.605376625585193D+02 -.575633511390167D+03 0.217035973887853D+03
0.647923049441D-05 0.000000000000D+00 0.000000000000D+00 0.474511840703D-07 0.000000000000D+00  7 -2 2 23 -11 11 23 21 0 0.34421207D-02 0.40663073D+00 0.54716777D+05 0.54716777D+05 0.54716777D+05 0.11438676D+01  1  2  2  2  7  2        2 0.772908772821D-03 0.100000000000D+01
-.359297163582D-06 0.000000000000D+00 -.248819511191D-07 0.474511840703D-07 0.000000000000D+00  7 -2 2 23 -11 11 23 21 2 0.34421207D-02 0.40663073D+00 0.54716777D+05 0.54716777D+05 0.54716777D+05 0.11438676D+01  1  2  3  2  7  2        2 -.560802692306D-04 0.100000000000D+01
0.413746199648D-06 0.000000000000D+00 0.000000000000D+00 0.474511840703D-07 0.000000000000D+00  7 -2 2 23 -11 11 23 21 2 0.34421207D-02 0.40663073D+00 0.54716777D+05 0.54716777D+05 0.54716777D+05 0.11438676D+01  1  2 15  2  7  2        2 0.645788517728D-04 0.100000000000D+01
  </mgrwgt>
  </event>
  <event>
  9     66 -.27870365E-05 0.28834977E+03 0.75467711E-02 0.10042173E+00
       -2 -1    0    0    0  502 0.00000000E+00 0.00000000E+00 0.60823915E+03 0.60823923E+03 0.32000000E+00 0.0000E+00 0.9000E+01
        2 -1    0    0  501    0 0.00000000E+00 0.00000000E+00 -.24905058E+03 0.24905079E+03 0.32000000E+00 0.0000E+00 0.9000E+01
       25  2    1    2    0    0 -.18732536E+03 0.14870127E+03 0.41072540E+03 0.56027481E+03 0.29666420E+03 0.0000E+00 0.0000E+00
       23  2    3    3    0    0 -.13486197E+03 0.17241896E+03 0.38071778E+03 0.44833445E+03 0.90231379E+02 0.0000E+00 0.0000E+00
       23  1    1    2    0    0 0.15232949E+03 -.17075868E+03 -.62656728E+02 0.25417301E+03 0.91188000E+02 0.0000E+00 0.9000E+01
      -11  1    4    4    0    0 -.90543774E+02 0.83206133E+02 0.13196765E+03 0.18037986E+03 0.51099893E-03 0.0000E+00 0.9000E+01
       11  1    4    4    0    0 -.44318195E+02 0.89212826E+02 0.24875013E+03 0.26795458E+03 0.51099893E-03 0.0000E+00 0.9000E+01
       23  1    3    3    0    0 -.52463389E+02 -.23717687E+02 0.30007629E+02 0.11194036E+03 0.91188000E+02 0.0000E+00 0.9000E+01
       21  1    1    2  501  502 0.34995868E+02 0.22057406E+02 0.11119893E+02 0.42842204E+02 0.75000000E+00 0.0000E+00 0.9000E+01
#aMCatNLO 2  0  0  1  2 0.41367136D+02 0.00000000D+00  -5  7  0 0.00000000D+00 0.00000000D+00 0.00000000D+00 0.00000000D+00 0.00000000D+00
  <mgrwgt>
 -.2200905090D-03    2    2    0
 0.367580671062882D+03 0.000000000000000D+00 0.000000000000000D+00 0.367580671062882D+03
 0.367580671062882D+03 0.000000000000000D+00 0.000000000000000D+00 -.367580671062882D+03
 0.313378695696179D+03 0.167173158656809D+03 -.161402921980318D+03 -.189454974527351D+03
 0.135538730915513D+03 -.840588514482443D+02 0.872934891823606D+02 0.607017612409961D+02
 0.179647292871834D+03 -.357934195486118D+02 0.945858731784971D+02 0.148477249261484D+03
 0.106596622642239D+03 -.473208876599526D+02 -.204764403805395D+02 -.197240359751291D+02
 0.000000000000000D+00 0.000000000000000D+00 0.000000000000000D+00 -.000000000000000D+00
 0.385248306623517D+03 0.000000000000000D+00 0.000000000000000D+00 0.385248306623517D+03
 0.393200517928497D+03 0.000000000000000D+00 0.000000000000000D+00 -.393200517928497D+03
 0.310759132627861D+03 0.152329489776765D+03 -.170758678663229D+03 -.189454974527351D+03
 0.137135478519587D+03 -.905437743183269D+02 0.832061330866245D+02 0.607017612409961D+02
 0.178797439511290D+03 -.443181951315597D+02 0.892128264758922D+02 0.148477249261484D+03
 0.109632224991401D+03 -.524633886764441D+02 -.237176867759369D+02 -.197240359751291D+02
 0.421245489018745D+02 0.349958683495655D+02 0.220574058766489D+02 -.795221130498081D+01
-.314164213291D-04 0.000000000000D+00 0.000000000000D+00 0.150500105273D-07 0.000000000000D+00  7 -2 2 23 -11 11 23 21 2 0.96511798D-01 0.35818658D-01 0.95519101D+05 0.95519101D+05 0.95519101D+05 0.11233595D+01  1  2 13  1  7  1       -2 -.650152375598D-03 0.100000000000D+01
0.208275770079D-04 0.000000000000D+00 0.000000000000D+00 0.150500105273D-07 0.593235081061D-10  7 -2 2 23 -11 11 23 21 2 0.93574472D-01 0.38315167D-01 0.95519101D+05 0.95519101D+05 0.95519101D+05 0.11233595D+01  1  2  1  1  7  1       -2 0.430061866564D-03 0.100000000000D+01
  </mgrwgt>
  </event>
  <event>
  8     66 0.27870365E-05 0.38707100E+03 0.75467711E-02 0.92763081E-01
       -2 -1    0    0    0  501 0.00000000E+00 0.00000000E+00 0.18606352E+03 0.18606380E+03 0.32000000E+00 0.0000E+00 0.9000E+01
        2 -1    0    0  501    0 0.00000000E+00 0.00000000E+00 -.86413434E+03 0.86413440E+03 0.32000000E+00 0.0000E+00 0.9000E+01
       25  2    1    2    0    0 -.92156511E+02 0.31927471E+03 -.29968319E+03 0.53841542E+03 0.29941941E+03 0.0000E+00 0.0000E+00
       23  2    3    3    0    0 -.15524775E+03 0.22785334E+03 -.25969553E+03 0.38924224E+03 0.89714790E+02 0.0000E+00 0.0000E+00
       23  1    1    2    0    0 0.92156511E+02 -.31927471E+03 -.37838763E+03 0.51178278E+03 0.91188000E+02 0.0000E+00 0.9000E+01
      -13  1    4    4    0    0 -.12520591E+03 0.11835952E+03 -.18775972E+03 0.25483175E+03 0.10565837E+00 0.0000E+00 0.9000E+01
       13  1    4    4    0    0 -.30041846E+02 0.10949382E+03 -.71935809E+02 0.13441049E+03 0.10565837E+00 0.0000E+00 0.9000E+01
       23  1    3    3    0    0 0.63091244E+02 0.91421374E+02 -.39987654E+02 0.14917318E+03 0.91188000E+02 0.0000E+00 0.9000E+01
#aMCatNLO 1  0  0  1  2 0.33950660D+03 0.00000000D+00  -5  7  0 0.00000000D+00 0.00000000D+00 0.00000000D+00 0.00000000D+00 0.00000000D+00
  <mgrwgt>
 0.4763447781D-03    3    2    0
 0.400978872646206D+03 0.000000000000000D+00 0.000000000000000D+00 0.400978872646206D+03
 0.400978872646206D+03 0.000000000000000D+00 0.000000000000000D+00 -.400978872646206D+03
 0.350267514099008D+03 0.921565108186488D+02 -.319274713306754D+03 -.627926352824970D+02
 0.174958748038157D+03 -.125206040673338D+03 0.118359535303377D+03 -.304143271626114D+02
 0.115193121491064D+03 -.300417141011017D+02 0.109493803429651D+03 0.194437049769764D+02
 0.161538361664184D+03 0.630912439557905D+02 0.914213745737266D+02 0.737632574681320D+02
 0.000000000000000D+00 0.000000000000000D+00 -.000000000000000D+00 -.000000000000000D+00
 0.515023735595359D+03 0.000000000000000D+00 0.000000000000000D+00 0.515023735595359D+03
 0.797476921999046D+03 0.000000000000000D+00 0.000000000000000D+00 -.797476921999046D+03
 0.316447941950474D+03 -.407059971266433D+02 -.293639498999871D+03 -.627926352824970D+02
 0.251529829544037D+03 -.210196333778805D+03 0.134758024323775D+03 -.304143271626114D+02
 0.146360105532125D+03 -.821638261478131D+02 0.119550526978743D+03 0.194437049769764D+02
 0.156524314806671D+03 -.292024717935057D+00 0.103650886879717D+03 0.737632574681320D+02
 0.441638465761098D+03 0.333358181771196D+03 -.643199391823641D+02 -.282453186403687D+03
0.112224983612D-04 0.000000000000D+00 0.000000000000D+00 0.140432474568D-06 0.000000000000D+00  7 -2 2 23 -13 13 23 21 0 0.28625183D-01 0.13294377D+00 0.14982396D+06 0.14982396D+06 0.14982396D+06 0.11075921D+01  1  2  2  1  7  1       -2 0.471753773734D-03 0.100000000000D+01
-.622527498638D-06 0.000000000000D+00 -.430973486585D-07 0.140432474568D-06 0.000000000000D+00  7 -2 2 23 -13 13 23 21 2 0.28625183D-01 0.13294377D+00 0.14982396D+06 0.14982396D+06 0.14982396D+06 0.11075921D+01  1  2  3  1  7  1       -2 -.321028882569D-04 0.100000000000D+01
0.711554581054D-06 0.000000000000D+00 0.000000000000D+00 0.140432474568D-06 0.000000000000D+00  7 -2 2 23 -13 13 23 21 2 0.28625183D-01 0.13294377D+00 0.14982396D+06 0.14982396D+06 0.14982396D+06 0.11075921D+01  1  2 15  1  7  1       -2 0.366938926461D-04 0.100000000000D+01
  </mgrwgt>
  </event>
  <event>
  8     66 0.27870365E-05 0.92967702E+02 0.75467711E-02 0.10343944E+00
       -2 -1    0    0    0  501 0.00000000E+00 0.00000000E+00 0.44036765E+02 0.44037927E+02 0.32000000E+00 0.0000E+00 0.9000E+01
        2 -1    0    0  501    0 0.00000000E+00 0.00000000E+00 -.11369785E+04 0.11369786E+04 0.32000000E+00 0.0000E+00 0.9000E+01
       25  2    1    2    0    0 -.54609659E+02 -.77625691E+02 -.80238412E+03 0.86203851E+03 0.30046989E+03 0.0000E+00 0.0000E+00
       23  2    3    3    0    0 0.45477336E+02 -.13304767E+03 -.37067852E+03 0.40621620E+03 0.88539068E+02 0.0000E+00 0.0000E+00
       23  1    1    2    0    0 0.54609659E+02 0.77625691E+02 -.29055764E+03 0.31897799E+03 0.91188000E+02 0.0000E+00 0.9000E+01
      -11  1    4    4    0    0 0.22094921E+02 -.12766766E+03 -.35408018E+03 0.37704110E+03 0.51099893E-03 0.0000E+00 0.9000E+01
       11  1    4    4    0    0 0.23382415E+02 -.53800077E+01 -.16598348E+02 0.29175108E+02 0.51099893E-03 0.0000E+00 0.9000E+01
       23  1    3    3    0    0 -.10008699E+03 0.55421974E+02 -.43170560E+03 0.45582231E+03 0.91188000E+02 0.0000E+00 0.9000E+01
#aMCatNLO 1  0  0  2  1 0.56526424D+02 0.00000000D+00  -5  7  0 0.00000000D+00 0.00000000D+00 0.00000000D+00 0.00000000D+00 0.00000000D+00
  <mgrwgt>
 0.5021606673D-03    9    2    0
 0.223762304251607D+03 0.000000000000000D+00 0.000000000000000D+00 0.223762304251607D+03
 0.223762304251607D+03 0.000000000000000D+00 0.000000000000000D+00 -.223762304251607D+03
 0.132184209463306D+03 0.546096591496337D+02 0.776256912536766D+02 0.122250182980975D+02
 0.130278294340678D+03 0.220949210799452D+02 -.127667657896623D+03 -.136094660430912D+02
 0.364566694388343D+02 0.233824145260571D+02 -.538000767644162D+01 0.274482595970218D+02
 0.148605435260395D+03 -.100086994755636D+03 0.554219743193882D+02 -.260638118520281D+02
 0.000000000000000D+00 -.000000000000000D+00 -.000000000000000D+00 -.000000000000000D+00
 0.229660680134924D+03 0.000000000000000D+00 0.000000000000000D+00 0.229660680134924D+03
 0.419402912455110D+03 0.000000000000000D+00 0.000000000000000D+00 -.419402912455110D+03
 0.144317714738154D+03 0.584404131686799D+02 0.945918520779058D+02 0.122250182980975D+02
 0.116198445221894D+03 0.255096957272014D+02 -.112543842701025D+03 -.136094660430912D+02
 0.367339458393589D+02 0.243964228171137D+02 -.889030793657391D+00 0.274482595970218D+02
 0.153830277079073D+03 -.958969449977783D+02 0.739794326421852D+02 -.260638118520281D+02
 0.197983209711554D+03 -.124495867152166D+02 -.551384112254088D+02 -.189742232320186D+03
0.165868371915D-05 0.000000000000D+00 0.000000000000D+00 0.144631387924D-07 0.000000000000D+00  7 -2 2 23 -11 11 23 21 0 0.67749797D-02 0.17491987D+00 0.46543417D+05 0.46543417D+05 0.46543417D+05 0.11500421D+01  1  2  2  2  7  2        2 0.476437780797D-03 0.100000000000D+01
-.919997165168D-07 0.000000000000D+00 -.636978222299D-08 0.144631387924D-07 0.000000000000D+00  7 -2 2 23 -11 11 23 21 2 0.67749797D-02 0.17491987D+00 0.46543417D+05 0.46543417D+05 0.46543417D+05 0.11500421D+01  1  2  3  2  7  2        2 -.349507537094D-04 0.100000000000D+01
0.106185122034D-06 0.000000000000D+00 0.000000000000D+00 0.144631387924D-07 0.000000000000D+00  7 -2 2 23 -11 11 23 21 2 0.67749797D-02 0.17491987D+00 0.46543417D+05 0.46543417D+05 0.46543417D+05 0.11500421D+01  1  2 15  2  7  2        2 0.403397987334D-04 0.100000000000D+01
0.625810466703D-05 0.000000000000D+00 0.000000000000D+00 0.144631387924D-07 0.000000000000D+00  7 -2 2 23 -11 11 23 21 2 0.67749797D-02 0.32826313D+00 0.60452774D+05 0.60452774D+05 0.60452774D+05 0.11401133D+01  1  2 12  2  7  2        2 0.681270280107D-03 0.100000000000D+01
-.556123970808D-05 0.000000000000D+00 0.000000000000D+00 0.144631387924D-07 0.000000000000D+00  7 -2 2 23 -11 11 23 21 2 0.67749797D-02 0.17491987D+00 0.46543417D+05 0.46543417D+05 0.46543417D+05 0.11500421D+01  1  2  4  2  7  2        2 -.211271867692D-02 0.100000000000D+01
-.648775423355D-05 0.000000000000D+00 -.487144404196D-06 0.144631387924D-07 0.000000000000D+00  7 -2 2 23 -11 11 23 21 2 0.67749797D-02 0.33005840D+00 0.46543417D+05 0.46543417D+05 0.46543417D+05 0.11500421D+01  1  2  5  2  7  2        2 -.711518823987D-03 0.100000000000D+01
0.569419474872D-05 0.000000000000D+00 0.403118665562D-06 0.144631387924D-07 0.000000000000D+00  7 -2 2 23 -11 11 23 21 2 0.67749797D-02 0.17491987D+00 0.46543417D+05 0.46543417D+05 0.46543417D+05 0.11500421D+01  1  2  6  2  7  2        2 0.216322838560D-02 0.100000000000D+01
0.428758337389D-06 0.000000000000D+00 0.000000000000D+00 0.144631387924D-07 0.000000000000D+00  7 -2 21 23 -11 11 23 -2 2 0.67749797D-02 0.32826313D+00 0.60452774D+05 0.60452774D+05 0.60452774D+05 0.11401133D+01  1  2 12  4  7  2        2 0.879736005990D-05 0.100000000000D+01
-.420404700274D-06 0.000000000000D+00 -.336389080092D-07 0.144631387924D-07 0.000000000000D+00  7 -2 21 23 -11 11 23 -2 2 0.67749797D-02 0.33005840D+00 0.46543417D+05 0.46543417D+05 0.46543417D+05 0.11500421D+01  1  2  5  4  7  2        2 -.872468334589D-05 0.100000000000D+01
  </mgrwgt>
  </event>
  <event>
  8     66 0.27870365E-05 0.45164557E+03 0.75467711E-02 0.92427526E-01
       -2 -1    0    0    0  501 0.00000000E+00 0.00000000E+00 0.85315473E+02 0.85316074E+02 0.32000000E+00 0.0000E+00 0.9000E+01
        2 -1    0    0  501    0 0.00000000E+00 0.00000000E+00 -.24514217E+04 0.24514217E+04 0.32000000E+00 0.0000E+00 0.9000E+01
       25  2    1    2    0    0 0.14778532E+03 0.37384049E+03 -.13546005E+04 0.14444666E+04 0.29990686E+03 0.0000E+00 0.0000E+00
       23  2    3    3    0    0 0.20065746E+03 0.29985943E+03 -.10016773E+04 0.10687823E+04 0.93590342E+02 0.0000E+00 0.0000E+00
       23  1    1    2    0    0 -.14778532E+03 -.37384049E+03 -.10115058E+04 0.10922712E+04 0.91188000E+02 0.0000E+00 0.9000E+01
      -11  1    4    4    0    0 0.91616609E+02 0.16653131E+03 -.39870235E+03 0.44168976E+03 0.51099893E-03 0.0000E+00 0.9000E+01
       11  1    4    4    0    0 0.10904085E+03 0.13332812E+03 -.60297497E+03 0.62709259E+03 0.51099893E-03 0.0000E+00 0.9000E+01
       23  1    3    3    0    0 -.52872143E+02 0.73981060E+02 -.35292314E+03 0.37568425E+03 0.91188000E+02 0.0000E+00 0.9000E+01
#aMCatNLO 1  0  0  2  2 0.27599524D+03 0.00000000D+00  -5  7  0 0.00000000D+00 0.00000000D+00 0.00000000D+00 0.00000000D+00 0.00000000D+00
  <mgrwgt>
 0.6662522286D-03    3    2    0
 0.457323728923267D+03 0.000000000000000D+00 0.000000000000000D+00 0.457323728923267D+03
 0.457323728923267D+03 0.000000000000000D+00 0.000000000000000D+00 -.457323728923267D+03
 0.412700595877487D+03 -.147785320764967D+03 -.373840489919634D+03 0.202315979763531D+02
 0.193603551858930D+03 0.916166090750049D+02 0.166531310554100D+03 0.368246498846232D+02
 0.179376905119886D+03 0.109040854855866D+03 0.133328119387022D+03 -.500976909987929D+02
 0.128966404990231D+03 -.528721431659040D+02 0.739810599785115D+02 -.695855686218335D+01
 0.000000000000000D+00 -.000000000000000D+00 0.000000000000000D+00 0.000000000000000D+00
 0.497554180023877D+04 0.000000000000000D+00 0.000000000000000D+00 0.497554180023877D+04
 0.481924503957063D+03 0.000000000000000D+00 0.000000000000000D+00 -.481924503957063D+03
 0.493605172792518D+03 -.665375948622134D+02 -.480098163063354D+03 0.202315979763531D+02
 0.179099124601449D+03 0.125028340465298D+03 0.122834668047639D+03 0.368246498846232D+02
 0.175391553570367D+03 0.140844834800634D+03 0.917341317634741D+02 -.500976909987929D+02
 0.107285405363231D+03 -.316928425422350D+02 0.462822760669962D+02 -.695855686218335D+01
 0.450208504786827D+04 -.167642737861484D+03 0.219247087185244D+03 0.449361729628171D+04
0.338834100197D-04 0.000000000000D+00 0.000000000000D+00 0.177830807349D-06 0.000000000000D+00  7 -2 2 23 -11 11 23 21 0 0.13125505D-01 0.37714185D+00 0.20398372D+06 0.20398372D+06 0.20398372D+06 0.10971681D+01  1  2  2  2  7  2        2 0.660020214356D-03 0.100000000000D+01
-.188205440845D-05 0.000000000000D+00 -.130121216182D-06 0.177830807349D-06 0.000000000000D+00  7 -2 2 23 -11 11 23 21 2 0.13125505D-01 0.37714185D+00 0.20398372D+06 0.20398372D+06 0.20398372D+06 0.10971681D+01  1  2  3  2  7  2        2 -.441314982027D-04 0.100000000000D+01
0.214782807157D-05 0.000000000000D+00 0.000000000000D+00 0.177830807349D-06 0.000000000000D+00  7 -2 2 23 -11 11 23 21 2 0.13125505D-01 0.37714185D+00 0.20398372D+06 0.20398372D+06 0.20398372D+06 0.10971681D+01  1  2 15  2  7  2        2 0.503635124758D-04 0.100000000000D+01
  </mgrwgt>
  </event>
  <event>
  9     66 0.27870365E-05 0.24371025E+03 0.75467711E-02 0.99327307E-01
       -2 -1    0    0    0  502 0.00000000E+00 0.00000000E+00 0.13437287E+03 0.13437325E+03 0.32000000E+00 0.0000E+00 0.9000E+01
        2 -1    0    0  501    0 0.00000000E+00 0.00000000E+00 -.11821064E+04 0.11821064E+04 0.32000000E+00 0.0000E+00 0.9000E+01
       25  2    1    2    0    0 -.63241224E+02 0.73189099E+02 -.71319124E+03 0.77944788E+03 0.29923429E+03 0.0000E+00 0.0000E+00
       23  2    3    3    0    0 -.46509687E+02 0.15778421E+03 -.38831199E+03 0.43116918E+03 0.89786704E+02 0.0000E+00 0.0000E+00
       23  1    1    2    0    0 -.59290606E+02 -.17851773E+03 -.30955614E+03 0.37352940E+03 0.91188000E+02 0.0000E+00 0.9000E+01
      -13  1    4    4    0    0 0.15294213E+02 0.61703993E+02 -.20989948E+03 0.21931507E+03 0.10565837E+00 0.0000E+00 0.9000E+01
       13  1    4    4    0    0 -.61803900E+02 0.96080218E+02 -.17841251E+03 0.21185411E+03 0.10565837E+00 0.0000E+00 0.9000E+01
       23  1    3    3    0    0 -.16731537E+02 -.84595111E+02 -.32487925E+03 0.34827870E+03 0.91188000E+02 0.0000E+00 0.9000E+01
       21  1    1    2  501  502 0.12253183E+03 0.10532863E+03 -.24986155E+02 0.16350242E+03 0.75000000E+00 0.0000E+00 0.9000E+01
#aMCatNLO 2  0  0  1  2 0.16158023D+03 0.00000000D+00  -5  7  0 0.00000000D+00 0.00000000D+00 0.00000000D+00 0.00000000D+00 0.00000000D+00
  <mgrwgt>
 0.7248123395D-04    2    2    0
 0.253592311568569D+03 0.000000000000000D+00 0.000000000000000D+00 0.253592311568569D+03
 0.253592311568569D+03 0.000000000000000D+00 0.000000000000000D+00 -.253592311568569D+03
 0.173517023906826D+03 -.135755224720927D+02 -.139220947442619D+03 0.471819798680742D+02
 0.918094619041984D+02 0.345739476765614D+02 0.782767573312932D+02 -.332621210823165D+02
 0.126855442804520D+03 -.331668455322775D+02 0.120696831893037D+03 0.206043320093825D+02
 0.115002694521594D+03 0.121684203278087D+02 -.597526417817118D+02 -.345241907951401D+02
 0.000000000000000D+00 0.000000000000000D+00 0.000000000000000D+00 0.000000000000000D+00
 0.549235049802367D+03 0.000000000000000D+00 0.000000000000000D+00 0.549235049802367D+03
 0.289207395570895D+03 0.000000000000000D+00 0.000000000000000D+00 -.289207395570895D+03
 0.214302002969353D+03 -.592906062389894D+02 -.178517735590104D+03 0.471819798680742D+02
 0.717472074260294D+02 0.152943189814659D+02 0.617039454284099D+02 -.332621210823165D+02
 0.116084843757485D+03 -.618040056014812D+02 0.960802651133875D+02 0.206043320093825D+02
 0.130167000088108D+03 -.167315364805647D+02 -.845951092255203D+02 -.345241907951401D+02
 0.306141391132288D+03 0.122531829339569D+03 0.105328634273826D+03 0.260027654231472D+03
-.436769087630D-06 0.000000000000D+00 0.000000000000D+00 0.282186499891D-07 0.000000000000D+00  7 -2 2 23 -13 13 23 21 2 0.20596098D-01 0.15946645D+00 0.11354935D+06 0.11354935D+06 0.11354935D+06 0.11172214D+01  1  2 13  1  7  1       -2 -.314263186344D-04 0.100000000000D+01
0.176816200860D-05 0.000000000000D+00 0.000000000000D+00 0.282186499891D-07 0.940335864851D-11  7 -2 2 23 -13 13 23 21 2 0.20672751D-01 0.18186229D+00 0.11354935D+06 0.11354935D+06 0.11354935D+06 0.11172214D+01  1  2  1  1  7  1       -2 0.103907552587D-03 0.100000000000D+01
  </mgrwgt>
  </event>
  <event>
  8     66 0.27870365E-05 0.21100907E+03 0.75467711E-02 0.98966631E-01
       -2 -1    0    0    0  501 0.00000000E+00 0.00000000E+00 0.11078911E+03 0.11078957E+03 0.32000000E+00 0.0000E+00 0.9000E+01
        2 -1    0    0  501    0 0.00000000E+00 0.00000000E+00 -.15538763E+04 0.15538763E+04 0.32000000E+00 0.0000E+00 0.9000E+01
       25  2    1    2    0    0 -.24050098E+03 -.13009518E+03 -.35644746E+03 0.54044767E+03 0.30043871E+03 0.0000E+00 0.0000E+00
       23  2    3    3    0    0 -.21811903E+02 0.41446418E+02 -.50959732E+02 0.11749444E+03 0.94944643E+02 0.0000E+00 0.0000E+00
       23  1    1    2    0    0 0.24050098E+03 0.13009518E+03 -.10866397E+04 0.11242182E+04 0.91188000E+02 0.0000E+00 0.9000E+01
      -11  1    4    4    0    0 -.23444161E+02 -.21439110E+02 0.63490565E+01 0.32397139E+02 0.51099893E-03 0.0000E+00 0.9000E+01
       11  1    4    4    0    0 0.16322587E+01 0.62885528E+02 -.57308789E+02 0.85097304E+02 0.51099893E-03 0.0000E+00 0.9000E+01
       23  1    3    3    0    0 -.21868908E+03 -.17154160E+03 -.30548772E+03 0.42295323E+03 0.91188000E+02 0.0000E+00 0.9000E+01
#aMCatNLO 1  0  0  2  1 0.18001092D+02 0.00000000D+00  -5  7  0 0.00000000D+00 0.00000000D+00 0.00000000D+00 0.00000000D+00 0.00000000D+00
  <mgrwgt>
 0.6573957417D-03    9    2    0
 0.414913224691905D+03 0.000000000000000D+00 0.000000000000000D+00 0.414913224691905D+03
 0.414913224691905D+03 0.000000000000000D+00 0.000000000000000D+00 -.414913224691905D+03
 0.365536534069505D+03 0.240500980120749D+03 0.130095177058001D+03 -.224802646476309D+03
 0.760311452876053D+02 -.234441614751336D+02 -.214391095479898D+02 0.690758346186428D+02
 0.710473878150684D+02 0.163225870607433D+01 0.628855278813119D+02 0.330223777149666D+02
 0.317211382211632D+03 -.218689077351690D+03 -.171541595391324D+03 0.122704434142700D+03
 0.000000000000000D+00 -.000000000000000D+00 -.000000000000000D+00 -.000000000000000D+00
 0.418654093164497D+03 0.000000000000000D+00 0.000000000000000D+00 0.418654093164497D+03
 0.437246386002289D+03 0.000000000000000D+00 0.000000000000000D+00 -.437246386002289D+03
 0.370391090938111D+03 0.243886307611372D+03 0.137322787618306D+03 -.224802646476309D+03
 0.754121562895038D+02 -.227475098552214D+02 -.199517714340621D+02 0.690758346186428D+02
 0.723144750107249D+02 0.229173504428908D+01 0.642934974675792D+02 0.330223777149666D+02
 0.311903949419726D+03 -.215795095179296D+03 -.165362997849885D+03 0.122704434142700D+03
 0.258788075087211D+02 -.763543762114389D+01 -.163015158019383D+02 -.185922928377921D+02
0.688170087840D-05 0.000000000000D+00 0.000000000000D+00 0.711765947795D-07 0.000000000000D+00  7 -2 2 23 -11 11 23 21 0 0.17044517D-01 0.23905793D+00 0.11405167D+06 0.11405167D+06 0.11405167D+06 0.11170661D+01  1  2  2  2  7  2        2 0.277406315900D-03 0.100000000000D+01
-.362616367299D-06 0.000000000000D+00 -.264275433665D-07 0.711765947795D-07 0.000000000000D+00  7 -2 2 23 -11 11 23 21 2 0.17044517D-01 0.23905793D+00 0.11405167D+06 0.11405167D+06 0.11405167D+06 0.11170661D+01  1  2  3  2  7  2        2 -.182400363211D-04 0.100000000000D+01
0.436059912287D-06 0.000000000000D+00 0.000000000000D+00 0.711765947795D-07 0.000000000000D+00  7 -2 2 23 -11 11 23 21 2 0.17044517D-01 0.23905793D+00 0.11405167D+06 0.11405167D+06 0.11405167D+06 0.11170661D+01  1  2 15  2  7  2        2 0.219343343421D-04 0.100000000000D+01
0.333769520215D-04 0.000000000000D+00 0.000000000000D+00 0.711765947795D-07 0.000000000000D+00  7 -2 2 23 -11 11 23 21 2 0.17044517D-01 0.25296747D+00 0.12031051D+06 0.12031051D+06 0.12031051D+06 0.11151912D+01  1  2 12  2  7  2        2 0.149434133010D-02 0.100000000000D+01
-.339434496755D-04 0.000000000000D+00 0.000000000000D+00 0.711765947795D-07 0.000000000000D+00  7 -2 2 23 -11 11 23 21 2 0.17044517D-01 0.23905793D+00 0.11405167D+06 0.11405167D+06 0.11405167D+06 0.11170661D+01  1  2  4  2  7  2        2 -.170739605483D-02 0.100000000000D+01
-.107124915377D-03 0.000000000000D+00 -.132734630742D-04 0.711765947795D-07 0.000000000000D+00  7 -2 2 23 -11 11 23 21 2 0.17044517D-01 0.25289326D+00 0.11405167D+06 0.11405167D+06 0.11405167D+06 0.11170661D+01  1  2  5  2  7  2        2 -.482147874189D-02 0.100000000000D+01
0.107722146498D-03 0.000000000000D+00 0.132524830596D-04 0.711765947795D-07 0.000000000000D+00  7 -2 2 23 -11 11 23 21 2 0.17044517D-01 0.23905793D+00 0.11405167D+06 0.11405167D+06 0.11405167D+06 0.11170661D+01  1  2  6  2  7  2        2 0.541855261346D-02 0.100000000000D+01
0.476001939637D-06 0.000000000000D+00 0.000000000000D+00 0.711765947795D-07 0.000000000000D+00  7 -2 21 23 -11 11 23 -2 2 0.17044517D-01 0.25296747D+00 0.12031051D+06 0.12031051D+06 0.12031051D+06 0.11151912D+01  1  2 12  4  7  2        2 0.657979153323D-05 0.100000000000D+01
-.102590873367D-05 0.000000000000D+00 -.128934416815D-06 0.711765947795D-07 0.000000000000D+00  7 -2 21 23 -11 11 23 -2 2 0.17044517D-01 0.25289326D+00 0.11405167D+06 0.11405167D+06 0.11405167D+06 0.11170661D+01  1  2  5  4  7  2        2 -.143038105425D-04 0.100000000000D+01
  </mgrwgt>
  </event>
  <event>
  8     66 0.27870365E-05 0.21842949E+03 0.75467711E-02 0.10112381E+00
       -2 -1    0    0    0  501 0.00000000E+00 0.00000000E+00 0.66318955E+02 0.66319727E+02 0.32000000E+00 0.0000E+00 0.9000E+01
        2 -1    0    0  501    0 0.00000000E+00 0.00000000E+00 -.88730221E+03 0.88730227E+03 0.32000000E+00 0.0000E+00 0.9000E+01
       25  2    1    2    0    0 -.32001673E+02 -.12253178E+03 -.60408936E+03 0.68642103E+03 0.30035268E+03 0.0000E+00 0.0000E+00
       23  2    3    3    0    0 -.99661055E+02 -.12738945E+03 -.23165047E+03 0.29702744E+03 0.91667663E+02 0.0000E+00 0.0000E+00
       23  1    1    2    0    0 0.32001673E+02 0.12253178E+03 -.21689389E+03 0.26720096E+03 0.91188000E+02 0.0000E+00 0.9000E+01
      -11  1    4    4    0    0 -.71882615E+01 -.37523122E+02 -.12174127E+03 0.12759542E+03 0.51099893E-03 0.0000E+00 0.9000E+01
       11  1    4    4    0    0 -.92472794E+02 -.89866333E+02 -.10990920E+03 0.16943202E+03 0.51099893E-03 0.0000E+00 0.9000E+01
       23  1    3    3    0    0 0.67659383E+02 0.48576785E+01 -.37243889E+03 0.38939359E+03 0.91188000E+02 0.0000E+00 0.9000E+01
#aMCatNLO 1  0  0  1  1 0.13429580D+03 0.00000000D+00  -5  7  0 0.00000000D+00 0.00000000D+00 0.00000000D+00 0.00000000D+00 0.00000000D+00
  <mgrwgt>
 0.3364401677D-03    4    2    0
 0.242580607087224D+03 0.000000000000000D+00 0.000000000000000D+00 0.242580607087224D+03
 0.242580607087224D+03 0.000000000000000D+00 0.000000000000000D+00 -.242580607087224D+03
 0.158179302707969D+03 0.320016725576261D+02 0.122531776235004D+03 0.258320968445943D+02
 0.447897716721923D+02 -.718826145252209D+01 -.375231219108068D+02 -.233766521513248D+02
 0.147044899853607D+03 -.924727936873869D+02 -.898663328309993D+02 0.706755065359658D+02
 0.135147239940681D+03 0.676593825822829D+02 0.485767850680175D+01 -.731309512292353D+02
 0.000000000000000D+00 -.000000000000000D+00 -.000000000000000D+00 -.000000000000000D+00
 0.315371745721666D+03 0.000000000000000D+00 0.000000000000000D+00 0.315371745721666D+03
 0.322519291616892D+03 0.000000000000000D+00 0.000000000000000D+00 -.322519291616892D+03
 0.196252343735640D+03 0.617978454379593D+02 0.160354170976528D+03 0.258320968445943D+02
 0.370837514286234D+02 -.305361256921226D+00 -.287861687051031D+02 -.233766521513248D+02
 0.117193728979536D+03 -.702589198830138D+02 -.616686878803637D+02 0.706755065359658D+02
 0.152875345588111D+03 0.918727135248454D+02 0.355933761614903D+02 -.731309512292353D+02
 0.134485867606648D+03 -.831062778228697D+02 -.105492690552552D+03 -.714754589522577D+01
0.243958415442D-05 0.000000000000D+00 0.000000000000D+00 0.139151417571D-06 0.000000000000D+00  7 -2 2 23 -11 11 23 21 0 0.10202980D-01 0.13650810D+00 0.47711444D+05 0.47711444D+05 0.47711444D+05 0.11490895D+01  1  2  2  1  7  1       -2 0.532808603964D-03 0.100000000000D+01
-.133720137684D-06 0.000000000000D+00 -.936864551024D-08 0.139151417571D-06 0.000000000000D+00  7 -2 2 23 -11 11 23 21 2 0.10202980D-01 0.13650810D+00 0.47711444D+05 0.47711444D+05 0.47711444D+05 0.11490895D+01  1  2  3  1  7  1       -2 -.385620324687D-04 0.100000000000D+01
0.155008662121D-06 0.000000000000D+00 0.000000000000D+00 0.139151417571D-06 0.000000000000D+00  7 -2 2 23 -11 11 23 21 2 0.10202980D-01 0.13650810D+00 0.47711444D+05 0.47711444D+05 0.47711444D+05 0.11490895D+01  1  2 15  1  7  1       -2 0.447011883564D-04 0.100000000000D+01
-.702228108184D-06 0.000000000000D+00 0.000000000000D+00 0.139151417571D-06 0.000000000000D+00  7 -2 2 23 -11 11 23 21 2 0.10202980D-01 0.13650810D+00 0.47711444D+05 0.47711444D+05 0.47711444D+05 0.11490895D+01  1  2  4  1  7  1       -2 -.202507592179D-03 0.100000000000D+01
  </mgrwgt>
  </event>
  <event>
  8     66 0.27870365E-05 0.31600361E+03 0.75467711E-02 0.98022259E-01
       -2 -1    0    0    0  501 0.00000000E+00 0.00000000E+00 0.17209490E+03 0.17209519E+03 0.32000000E+00 0.0000E+00 0.9000E+01
        2 -1    0    0  501    0 0.00000000E+00 0.00000000E+00 -.88842744E+03 0.88842750E+03 0.32000000E+00 0.0000E+00 0.9000E+01
       25  2    1    2    0    0 -.16363147E+03 0.18074392E+03 -.11203551E+03 0.40254565E+03 0.30007903E+03 0.0000E+00 0.0000E+00
       23  2    3    3    0    0 0.37524405E+02 0.12625859E+03 -.55162717E+02 0.16806303E+03 0.88616831E+02 0.0000E+00 0.0000E+00
       23  1    1    2    0    0 0.16363147E+03 -.18074392E+03 -.60429704E+03 0.65797704E+03 0.91188000E+02 0.0000E+00 0.9000E+01
      -11  1    4    4    0    0 0.46081727E+02 0.12750183E+03 -.68710084E+02 0.15199117E+03 0.51099893E-03 0.0000E+00 0.9000E+01
       11  1    4    4    0    0 -.85573219E+01 -.12432327E+01 0.13547366E+02 0.16071855E+02 0.51099893E-03 0.0000E+00 0.9000E+01
       23  1    3    3    0    0 -.20115587E+03 0.54485332E+02 -.56872789E+02 0.23448263E+03 0.91188000E+02 0.0000E+00 0.9000E+01
#aMCatNLO 1  0  0  1  1 0.11219985D+03 0.00000000D+00  -5  7  0 0.00000000D+00 0.00000000D+00 0.00000000D+00 0.00000000D+00 0.00000000D+00
  <mgrwgt>
 0.5071592252D-03    4    2    0
 0.391016646275378D+03 0.000000000000000D+00 0.000000000000000D+00 0.391016646275378D+03
 0.391016646275378D+03 0.000000000000000D+00 0.000000000000000D+00 -.391016646275378D+03
 0.338760447618093D+03 0.163631466821736D+03 -.180743924755398D+03 -.216794294796226D+03
 0.143179095284842D+03 0.460817272528963D+02 0.127501825495215D+03 0.460435906002478D+02
 0.342044089360561D+02 -.855732193177179D+01 -.124323272945139D+01 0.330933256775652D+02
 0.265889340711765D+03 -.201155872142860D+03 0.544853319896342D+02 0.137657378518413D+03
 0.000000000000000D+00 -.000000000000000D+00 -.000000000000000D+00 -.000000000000000D+00
 0.428435902530154D+03 0.000000000000000D+00 0.000000000000000D+00 0.428435902530154D+03
 0.489204782051231D+03 0.000000000000000D+00 0.000000000000000D+00 -.489204782051231D+03
 0.340194202938980D+03 0.197601465289529D+03 -.146187342230872D+03 -.216794294796226D+03
 0.162325312477528D+03 0.613669664880599D+02 0.143051005797293D+03 0.460435906002478D+02
 0.335667725618117D+02 -.516654033869457D+01 0.220609989430215D+01 0.330933256775652D+02
 0.253954772919044D+03 -.175146618462897D+03 0.809437058999283D+02 0.137657378518413D+03
 0.127599623684021D+03 -.786552729759975D+02 -.800134693606522D+02 -.607688795210766D+02
0.150962798066D-04 0.000000000000D+00 0.000000000000D+00 0.221362021354D-06 0.000000000000D+00  7 -2 2 23 -11 11 23 21 0 0.26476165D-01 0.13668117D+00 0.99858281D+05 0.99858281D+05 0.99858281D+05 0.11217726D+01  1  2  2  1  7  1       -2 0.704758417038D-03 0.100000000000D+01
-.792420269682D-06 0.000000000000D+00 -.579736893992D-07 0.221362021354D-06 0.000000000000D+00  7 -2 2 23 -11 11 23 21 2 0.26476165D-01 0.13668117D+00 0.99858281D+05 0.99858281D+05 0.99858281D+05 0.11217726D+01  1  2  3  1  7  1       -2 -.465517014677D-04 0.100000000000D+01
0.949366668974D-06 0.000000000000D+00 0.000000000000D+00 0.221362021354D-06 0.000000000000D+00  7 -2 2 23 -11 11 23 21 2 0.26476165D-01 0.13668117D+00 0.99858281D+05 0.99858281D+05 0.99858281D+05 0.11217726D+01  1  2 15  1  7  1       -2 0.557717103516D-04 0.100000000000D+01
-.352055288226D-05 0.000000000000D+00 0.000000000000D+00 0.221362021354D-06 0.000000000000D+00  7 -2 2 23 -11 11 23 21 2 0.26476165D-01 0.13668117D+00 0.99858281D+05 0.99858281D+05 0.99858281D+05 0.11217726D+01  1  2  4  1  7  1       -2 -.206819200677D-03 0.100000000000D+01
  </mgrwgt>
  </event>
  <event>
  7     66 0.27870365E-05 0.34308233E+03 0.75467711E-02 0.96781511E-01
       -2 -1    0    0    0  501 0.00000000E+00 0.00000000E+00 0.16913932E+03 0.16913962E+03 0.32000000E+00 0.0000E+00 0.9000E+01
        2 -1    0    0  501    0 0.00000000E+00 0.00000000E+00 -.18692930E+04 0.18692930E+04 0.32000000E+00 0.0000E+00 0.9000E+01
       23  2    1    2    0    0 -.21110284E+03 -.21531308E+03 -.25209423E+03 0.40325149E+03 0.90200520E+02 0.0000E+00 0.0000E+00
       23  1    1    2    0    0 0.15485416E+03 0.19333586E+03 -.14935724E+04 0.15167176E+04 0.91188000E+02 0.0000E+00 0.9000E+01
      -13  1    3    3    0    0 0.74701527E+01 -.13050520E+02 -.23209681E+02 0.27655374E+02 0.10565837E+00 0.0000E+00 0.9000E+01
       13  1    3    3    0    0 -.21857299E+03 -.20226256E+03 -.22888455E+03 0.37559612E+03 0.10565837E+00 0.0000E+00 0.9000E+01
       23  1    1    2    0    0 0.56248677E+02 0.21977222E+02 0.45513000E+02 0.11846348E+03 0.91188000E+02 0.0000E+00 0.9000E+01
#aMCatNLO 1  0  0  1  1 0.16437017D+03 0.00000000D+00  -5  7  0 0.00000000D+00 0.00000000D+00 0.00000000D+00 0.00000000D+00 0.00000000D+00
  <mgrwgt>
 0.2360745771D-02    4    2    0
 0.562291088622246D+03 0.000000000000000D+00 0.000000000000000D+00 0.562291088622246D+03
 0.562291088622246D+03 0.000000000000000D+00 0.000000000000000D+00 -.562291088622246D+03
 0.491227314224373D+03 0.154854564191885D+03 0.193336366865581D+03 -.414282676553401D+03
 0.150394308965826D+02 0.747058157782035D+01 -.130501729513974D+02 -.260535066412391D+00
 0.334780613756337D+03 -.218572331162482D+03 -.202262050511073D+03 0.152951816989286D+03
 0.283534818367199D+03 0.562471853927763D+02 0.219758565968898D+02 0.261591394630527D+03
 0.000000000000000D+00 0.000000000000000D+00 0.000000000000000D+00 -.000000000000000D+00
 0.582086315208200D+03 0.000000000000000D+00 0.000000000000000D+00 0.582086315208200D+03
 0.105697607258971D+04 0.000000000000000D+00 0.000000000000000D+00 -.105697607258971D+04
 0.461319411175114D+03 0.125944617697406D+03 0.130415355552014D+03 -.414282676553401D+03
 0.164765826846332D+02 0.651406549093744D+01 -.151319810078688D+02 -.260535066412391D+00
 0.378538606242350D+03 -.240221684347752D+03 -.249380753998189D+03 0.152951816989286D+03
 0.280196361299978D+03 0.391378533181601D+02 -.152617244979092D+02 0.261591394630527D+03
 0.502531426395833D+03 0.686251478412492D+02 0.149359103951953D+03 -.474889757381508D+03
0.175861620301D-03 0.000000000000D+00 0.000000000000D+00 0.195505057764D-09 0.000000000000D+00  7 -2 2 23 -13 13 23 21 0 0.26021459D-01 0.28758356D+00 0.11770548D+06 0.11770548D+06 0.11770548D+06 0.11159582D+01  1  2  2  1  7  1       -2 0.236896604686D-02 0.100000000000D+01
-.687060736882D-05 0.000000000000D+00 -.675354927383D-06 0.195505057764D-09 0.000000000000D+00  7 -2 2 23 -13 13 23 21 2 0.26021459D-01 0.28758356D+00 0.11770548D+06 0.11770548D+06 0.11770548D+06 0.11159582D+01  1  2  3  1  7  1       -2 -.115260045677D-03 0.100000000000D+01
0.107225084417D-04 0.000000000000D+00 0.000000000000D+00 0.195505057764D-09 0.000000000000D+00  7 -2 2 23 -13 13 23 21 2 0.26021459D-01 0.28758356D+00 0.11770548D+06 0.11770548D+06 0.11770548D+06 0.11159582D+01  1  2 15  1  7  1       -2 0.179878829690D-03 0.100000000000D+01
-.434190859700D-05 0.000000000000D+00 0.000000000000D+00 0.195505057764D-09 0.000000000000D+00  7 -2 2 23 -13 13 23 21 2 0.26021459D-01 0.28758356D+00 0.11770548D+06 0.11770548D+06 0.11770548D+06 0.11159582D+01  1  2  4  1  7  1       -2 -.728390601226D-04 0.100000000000D+01
  </mgrwgt>
  </event>
  <event>
  8     66 0.27870365E-05 0.13798773E+03 0.75467711E-02 0.10140069E+00
       -2 -1    0    0    0  501 0.00000000E+00 0.00000000E+00 0.63335559E+03 0.63335567E+03 0.32000000E+00 0.0000E+00 0.9000E+01
        2 -1    0    0  501    0 0.00000000E+00 0.00000000E+00 -.16203235E+03 0.16203266E+03 0.32000000E+00 0.0000E+00 0.9000E+01
       25  2    1    2    0    0 0.15084697E+03 -.86468105E+02 0.78104083E+02 0.35587940E+03 0.30053012E+03 0.0000E+00 0.0000E+00
       23  2    3    3    0    0 0.38698222E+02 -.14120159E+03 0.10105049E+03 0.19962676E+03 0.90577037E+02 0.0000E+00 0.0000E+00
       23  1    1    2    0    0 -.15084697E+03 0.86468105E+02 0.39321916E+03 0.43950893E+03 0.91188000E+02 0.0000E+00 0.9000E+01
      -13  1    4    4    0    0 -.17495474E+02 -.72317339E+02 0.77986709E+02 0.10778602E+03 0.10565837E+00 0.0000E+00 0.9000E+01
       13  1    4    4    0    0 0.56193695E+02 -.68884252E+02 0.23063785E+02 0.91840737E+02 0.10565837E+00 0.0000E+00 0.9000E+01
       23  1    3    3    0    0 0.11214875E+03 0.54733486E+02 -.22946411E+02 0.15625264E+03 0.91188000E+02 0.0000E+00 0.9000E+01
#aMCatNLO 1  0  0  2  1 0.56025191D+02 0.00000000D+00  -5  7  0 0.00000000D+00 0.00000000D+00 0.00000000D+00 0.00000000D+00 0.00000000D+00
  <mgrwgt>
 0.3665850524D-03    9    2    0
 0.320350197482928D+03 0.000000000000000D+00 0.000000000000000D+00 0.320350197482928D+03
 0.320350197482928D+03 0.000000000000000D+00 0.000000000000000D+00 -.320350197482928D+03
 0.256355307214538D+03 -.150846974529990D+03 0.864681055055664D+02 0.164837038309012D+03
 0.764394397471340D+02 -.174955735811856D+02 -.723173435680609D+02 0.175241169015756D+02
 0.970478096764175D+02 0.561937954052512D+02 -.688842474126126D+02 -.389293614042266D+02
 0.210857838327767D+03 0.112148752705924D+03 0.547334854751071D+02 -.143431793806361D+03
 0.000000000000000D+00 -.000000000000000D+00 -.000000000000000D+00 -.000000000000000D+00
 0.324505222371130D+03 0.000000000000000D+00 0.000000000000000D+00 0.324505222371130D+03
 0.589153195441590D+03 0.000000000000000D+00 0.000000000000000D+00 -.589153195441590D+03
 0.245095211323741D+03 -.129108248008617D+03 0.889731553193879D+02 0.164837038309012D+03
 0.744873900927959D+02 -.109526407147644D+02 -.715633724123559D+02 0.175241169015756D+02
 0.101610073351815D+03 0.648059500063756D+02 -.678918306646059D+02 -.389293614042266D+02
 0.221952579512029D+03 0.130911814984625D+03 0.568956363086332D+02 -.143431793806361D+03
 0.270513163532339D+03 -.556568762676195D+02 -.641358855105939D+01 -.264647973070459D+03
0.166859195844D-04 0.000000000000D+00 0.000000000000D+00 0.216515762614D-06 0.000000000000D+00  7 -2 2 23 -13 13 23 21 0 0.97439352D-01 0.24928084D-01 0.66098639D+05 0.66098639D+05 0.66098639D+05 0.11367829D+01  1  2  2  2  7  2        2 0.405118359639D-03 0.100000000000D+01
-.872462633867D-06 0.000000000000D+00 -.640783247075D-07 0.216515762614D-06 0.000000000000D+00  7 -2 2 23 -13 13 23 21 2 0.97439352D-01 0.24928084D-01 0.66098639D+05 0.66098639D+05 0.66098639D+05 0.11367829D+01  1  2  3  2  7  2        2 -.273737129668D-04 0.100000000000D+01
0.105992705021D-05 0.000000000000D+00 0.000000000000D+00 0.216515762614D-06 0.000000000000D+00  7 -2 2 23 -13 13 23 21 2 0.97439352D-01 0.24928084D-01 0.66098639D+05 0.66098639D+05 0.66098639D+05 0.11367829D+01  1  2 15  2  7  2        2 0.332554515368D-04 0.100000000000D+01
0.147199038176D-03 0.000000000000D+00 0.000000000000D+00 0.216515762614D-06 0.000000000000D+00  7 -2 2 23 -13 13 23 21 2 0.97439352D-01 0.45879626D-01 0.82095272D+05 0.82095272D+05 0.82095272D+05 0.11288218D+01  1  2 12  2  7  2        2 0.229671224636D-02 0.100000000000D+01
-.127800057317D-03 0.000000000000D+00 0.000000000000D+00 0.216515762614D-06 0.000000000000D+00  7 -2 2 23 -13 13 23 21 2 0.97439352D-01 0.24928084D-01 0.66098639D+05 0.66098639D+05 0.66098639D+05 0.11367829D+01  1  2  4  2  7  2        2 -.400975577675D-02 0.100000000000D+01
-.148105017526D-03 0.000000000000D+00 -.586033532220D-05 0.216515762614D-06 0.000000000000D+00  7 -2 2 23 -13 13 23 21 2 0.97439352D-01 0.46114478D-01 0.66098639D+05 0.66098639D+05 0.66098639D+05 0.11367829D+01  1  2  5  2  7  2        2 -.234110489008D-02 0.100000000000D+01
0.127729808092D-03 0.000000000000D+00 0.490308166096D-05 0.216515762614D-06 0.000000000000D+00  7 -2 2 23 -13 13 23 21 2 0.97439352D-01 0.24928084D-01 0.66098639D+05 0.66098639D+05 0.66098639D+05 0.11367829D+01  1  2  6  2  7  2        2 0.400755169137D-02 0.100000000000D+01
0.980417237510D-05 0.000000000000D+00 0.000000000000D+00 0.216515762614D-06 0.000000000000D+00  7 -2 21 23 -13 13 23 -2 2 0.97439352D-01 0.45879626D-01 0.82095272D+05 0.82095272D+05 0.82095272D+05 0.11288218D+01  1  2 12  4  7  2        2 0.541985508057D-03 0.100000000000D+01
-.961429043054D-05 0.000000000000D+00 -.393240636076D-06 0.216515762614D-06 0.000000000000D+00  7 -2 21 23 -13 13 23 -2 2 0.97439352D-01 0.46114478D-01 0.66098639D+05 0.66098639D+05 0.66098639D+05 0.11367829D+01  1  2  5  4  7  2        2 -.539803824769D-03 0.100000000000D+01
  </mgrwgt>
  </event>
  <event>
  8     66 0.27870365E-05 0.72860931E+03 0.75467711E-02 0.83770230E-01
       -2 -1    0    0    0  501 0.00000000E+00 0.00000000E+00 0.29170960E+03 0.29170978E+03 0.32000000E+00 0.0000E+00 0.9000E+01
        2 -1    0    0  501    0 0.00000000E+00 0.00000000E+00 -.18515563E+04 0.18515563E+04 0.32000000E+00 0.0000E+00 0.9000E+01
       25  2    1    2    0    0 0.24272040E+03 0.65383136E+03 -.70439200E+03 0.10357795E+04 0.30043701E+03 0.0000E+00 0.0000E+00
       23  2    3    3    0    0 -.11564602E+02 0.27569502E+03 -.32017529E+03 0.43279881E+03 0.93065075E+02 0.0000E+00 0.0000E+00
       23  1    1    2    0    0 -.24272040E+03 -.65383136E+03 -.85545466E+03 0.11074866E+04 0.91188000E+02 0.0000E+00 0.9000E+01
      -13  1    4    4    0    0 -.46616221E+02 0.10508488E+03 -.10252122E+03 0.15403414E+03 0.10565837E+00 0.0000E+00 0.9000E+01
       13  1    4    4    0    0 0.35051619E+02 0.17061014E+03 -.21765407E+03 0.27876467E+03 0.10565837E+00 0.0000E+00 0.9000E+01
       23  1    3    3    0    0 0.25428500E+03 0.37813633E+03 -.38421671E+03 0.60298066E+03 0.91188000E+02 0.0000E+00 0.9000E+01
#aMCatNLO 1  0  0  1  1 0.11193581D+04 0.00000000D+00  -5  7  0 0.00000000D+00 0.00000000D+00 0.00000000D+00 0.00000000D+00 0.00000000D+00
  <mgrwgt>
 0.3686323454D-03    5    2    0
 0.734926499456896D+03 0.000000000000000D+00 0.000000000000000D+00 0.734926499456896D+03
 0.734926499456896D+03 0.000000000000000D+00 0.000000000000000D+00 -.734926499456896D+03
 0.707050534067973D+03 -.242720398695298D+03 -.653831355263366D+03 -.720872617975718D+02
 0.115806578039202D+03 -.466163266818107D+02 0.105084795147680D+03 0.139738123865549D+02
 0.175500543794061D+03 0.350517243449346D+02 0.170610226745026D+03 -.215399169559371D+02
 0.471495343012556D+03 0.254285001032174D+03 0.378136333370660D+03 0.796533663669539D+02
 0.000000000000000D+00 0.000000000000000D+00 -.000000000000000D+00 0.000000000000000D+00
 0.209794671603318D+04 0.000000000000000D+00 0.000000000000000D+00 0.209794671603318D+04
 0.119054905658721D+04 0.000000000000000D+00 0.000000000000000D+00 -.119054905658721D+04
 0.100719842680497D+04 -.816222629633595D+03 -.578547720741296D+03 -.720872617975718D+02
 0.191178464123881D+03 -.149318215709390D+03 0.118566471523426D+03 0.139738123865549D+02
 0.211041336033585D+03 -.942659159115608D+02 0.187585752629901D+03 -.215399169559371D+02
 0.438128890744131D+03 -.500299142933980D+02 0.418083750536767D+03 0.796533663669539D+02
 0.144094865491383D+04 0.110983667554794D+04 -.145688253948799D+03 0.907397659445963D+03
0.755070159074D-04 0.000000000000D+00 0.000000000000D+00 0.507483443080D-06 0.000000000000D+00  7 -2 2 23 -13 13 23 21 0 0.44878416D-01 0.28485483D+00 0.53087152D+06 0.53087152D+06 0.53087152D+06 0.10666763D+01  1  2  2  1  7  1       -2 0.360864579867D-03 0.100000000000D+01
-.419445411252D-05 0.000000000000D+00 -.289966822538D-06 0.507483443080D-06 0.000000000000D+00  7 -2 2 23 -13 13 23 21 2 0.44878416D-01 0.28485483D+00 0.53087152D+06 0.53087152D+06 0.53087152D+06 0.10666763D+01  1  2  3  1  7  1       -2 -.228085518405D-04 0.100000000000D+01
0.471640878936D-05 0.000000000000D+00 0.000000000000D+00 0.507483443080D-06 0.000000000000D+00  7 -2 2 23 -13 13 23 21 2 0.44878416D-01 0.28485483D+00 0.53087152D+06 0.53087152D+06 0.53087152D+06 0.10666763D+01  1  2 15  1  7  1       -2 0.256468306692D-04 0.100000000000D+01
0.149340327191D-04 0.000000000000D+00 -.287021731655D-04 0.507483443080D-06 0.000000000000D+00  7 -2 2 23 -13 13 23 21 2 0.19998677D+00 0.28485483D+00 0.53087152D+06 0.53087152D+06 0.53087152D+06 0.10666763D+01  1  2  5  1  7  1       -2 0.214885507458D-05 0.100000000000D+01
0.249511552838D-05 0.000000000000D+00 -.518114168723D-05 0.507483443080D-06 0.000000000000D+00  7 21 2 23 -13 13 23 2 2 0.19998677D+00 0.28485483D+00 0.53087152D+06 0.53087152D+06 0.53087152D+06 0.10666763D+01  1  2  5  3  7  1       -2 0.278063161388D-05 0.100000000000D+01
  </mgrwgt>
  </event>
  <event>
  8     66 0.27870365E-05 0.94295635E+03 0.75467711E-02 0.82235176E-01
       -2 -1    0    0    0  501 0.00000000E+00 0.00000000E+00 0.13423733E+04 0.13423733E+04 0.32000000E+00 0.0000E+00 0.9000E+01
        2 -1    0    0  501    0 0.00000000E+00 0.00000000E+00 -.68122741E+03 0.68122749E+03 0.32000000E+00 0.0000E+00 0.9000E+01
       25  2    1    2    0    0 -.39020425E+03 -.84456804E+03 0.35052497E+03 0.10385348E+04 0.30022015E+03 0.0000E+00 0.0000E+00
       23  2    3    3    0    0 -.15260810E+03 -.44108527E+03 0.29170743E+03 0.55788411E+03 0.91082457E+02 0.0000E+00 0.0000E+00
       23  1    1    2    0    0 0.39020425E+03 0.84456804E+03 0.31062089E+03 0.98506605E+03 0.91188000E+02 0.0000E+00 0.9000E+01
      -13  1    4    4    0    0 -.12742016E+03 -.24297036E+03 0.14696718E+03 0.31123922E+03 0.10565837E+00 0.0000E+00 0.9000E+01
       13  1    4    4    0    0 -.25187939E+02 -.19811491E+03 0.14474025E+03 0.24664489E+03 0.10565837E+00 0.0000E+00 0.9000E+01
       23  1    3    3    0    0 -.23759615E+03 -.40348277E+03 0.58817542E+02 0.48065064E+03 0.91188000E+02 0.0000E+00 0.9000E+01
#aMCatNLO 1  0  0  2  1 0.12757440D+04 0.00000000D+00  -5  7  0 0.00000000D+00 0.00000000D+00 0.00000000D+00 0.00000000D+00 0.00000000D+00
  <mgrwgt>
 0.4798783383D-03    3    2    0
 0.956274850002147D+03 0.000000000000000D+00 0.000000000000000D+00 0.956274850002147D+03
 0.956274850002147D+03 0.000000000000000D+00 0.000000000000000D+00 -.956274850002147D+03
 0.934885370112186D+03 0.390204250816752D+03 0.844568042383726D+03 -.118687966727094D+02
 0.278506420505208D+03 -.127420297005606D+03 -.242970415507773D+03 0.479089904048031D+02
 0.210931098177028D+03 -.251878017512692D+02 -.198114852272258D+03 0.678823108788082D+02
 0.488226811209871D+03 -.237596152059877D+03 -.403482774603695D+03 -.103922504610902D+03
 0.000000000000000D+00 -.000000000000000D+00 -.000000000000000D+00 0.000000000000000D+00
 0.246330013850405D+04 0.000000000000000D+00 0.000000000000000D+00 0.246330013850405D+04
 0.145919323571088D+04 0.000000000000000D+00 0.000000000000000D+00 -.145919323571088D+04
 0.174017467678813D+04 0.642425400214563D+03 0.161463351606963D+04 -.118687966727094D+02
 0.154305442354907D+03 -.866121268674892D+02 -.118377521760789D+03 0.479089904048031D+02
 0.122736006399356D+03 0.627238948070385D+01 -.102062609543446D+03 0.678823108788082D+02
 0.281776917004091D+03 -.164995454518241D+03 -.181822970595155D+03 -.103922504610902D+03
 0.162350033166844D+04 -.397090208309536D+03 -.121237041417024D+04 0.100410690279317D+04
0.845688088526D-03 0.000000000000D+00 0.000000000000D+00 0.392523191298D-05 0.000000000000D+00  7 -2 2 23 -13 13 23 21 0 0.20651897D+00 0.10480423D+00 0.88916668D+06 0.88916668D+06 0.88916668D+06 0.10512770D+01  1  2  2  2  7  2        2 0.476478749639D-03 0.100000000000D+01
-.469714346413D-04 0.000000000000D+00 -.324766493473D-05 0.392523191298D-05 0.000000000000D+00  7 -2 2 23 -13 13 23 21 2 0.20651897D+00 0.10480423D+00 0.88916668D+06 0.88916668D+06 0.88916668D+06 0.10512770D+01  1  2  3  2  7  2        2 -.292483542046D-04 0.100000000000D+01
0.524310086640D-04 0.000000000000D+00 0.000000000000D+00 0.392523191298D-05 0.000000000000D+00  7 -2 2 23 -13 13 23 21 2 0.20651897D+00 0.10480423D+00 0.88916668D+06 0.88916668D+06 0.88916668D+06 0.10512770D+01  1  2 15  2  7  2        2 0.326479428278D-04 0.100000000000D+01
  </mgrwgt>
  </event>
  <event>
  8     66 0.27870365E-05 0.35049368E+03 0.75467711E-02 0.91582316E-01
       -2 -1    0    0    0  501 0.00000000E+00 0.00000000E+00 0.69361246E+02 0.69361984E+02 0.32000000E+00 0.0000E+00 0.9000E+01
        2 -1    0    0  501    0 0.00000000E+00 0.00000000E+00 -.19574304E+04 0.19574304E+04 0.32000000E+00 0.0000E+00 0.9000E+01
       25  2    1    2    0    0 -.26539792E+03 0.11953278E+03 -.12857522E+04 0.13516442E+04 0.29842787E+03 0.0000E+00 0.0000E+00
       23  2    3    3    0    0 -.19210322E+03 0.18075802E+03 -.76479581E+03 0.81421379E+03 0.91947539E+02 0.0000E+00 0.0000E+00
       23  1    1    2    0    0 0.26539792E+03 -.11953278E+03 -.60231698E+03 0.67514824E+03 0.91188000E+02 0.0000E+00 0.9000E+01
      -13  1    4    4    0    0 -.11615133E+02 0.13953698E+02 -.16535710E+03 0.16635084E+03 0.10565837E+00 0.0000E+00 0.9000E+01
       13  1    4    4    0    0 -.18048809E+03 0.16680432E+03 -.59943871E+03 0.64786295E+03 0.10565837E+00 0.0000E+00 0.9000E+01
       23  1    3    3    0    0 -.73294697E+02 -.61225240E+02 -.52095637E+03 0.53743039E+03 0.91188000E+02 0.0000E+00 0.9000E+01
#aMCatNLO 1  0  0  2  1 0.47352305D+03 0.00000000D+00  -5  7  0 0.00000000D+00 0.00000000D+00 0.00000000D+00 0.00000000D+00 0.00000000D+00
  <mgrwgt>
 0.6971988562D-03    3    2    0
 0.368470605041798D+03 0.000000000000000D+00 0.000000000000000D+00 0.368470605041798D+03
 0.368470605041798D+03 0.000000000000000D+00 0.000000000000000D+00 -.368470605041798D+03
 0.313687440896924D+03 0.265397916896309D+03 -.119532779658378D+03 0.732148859638702D+02
 0.338598979608211D+02 -.116149102974592D+02 0.139534959703221D+02 -.285812263366252D+02
 0.246019883299449D+03 -.180488309760280D+03 0.166804523466432D+03 0.112251489828824D+02
 0.143373987926403D+03 -.732946968385692D+02 -.612252397783760D+02 -.558588086101274D+02
 0.000000000000000D+00 0.000000000000000D+00 0.000000000000000D+00 0.000000000000000D+00
 0.675793406112552D+03 0.000000000000000D+00 0.000000000000000D+00 0.675793406112552D+03
 0.673694586342338D+03 0.000000000000000D+00 0.000000000000000D+00 -.673694586342338D+03
 0.220831915180269D+03 0.111554645783412D+03 -.150487955981934D+03 0.732148859638702D+02
 0.457952936054047D+02 -.345409560848505D+02 0.934049089953267D+01 -.285812263366252D+02
 0.384982003267765D+03 -.362100805555269D+03 0.130261834343750D+03 0.112251489828824D+02
 0.224351076987075D+03 -.179131887228961D+03 -.825209965990963D+02 -.558588086101274D+02
 0.473527703414376D+03 0.464219003085669D+03 0.934066273377475D+02 0.209881977021342D+01
0.134231659100D-04 0.000000000000D+00 0.000000000000D+00 0.587694444986D-07 0.000000000000D+00  7 -2 2 23 -13 13 23 21 0 0.10671020D-01 0.30114320D+00 0.12284582D+06 0.12284582D+06 0.12284582D+06 0.11144619D+01  1  2  2  2  7  2        2 0.690098754905D-03 0.100000000000D+01
-.743463031430D-06 0.000000000000D+00 -.515484914951D-07 0.587694444986D-07 0.000000000000D+00  7 -2 2 23 -13 13 23 21 2 0.10671020D-01 0.30114320D+00 0.12284582D+06 0.12284582D+06 0.12284582D+06 0.11144619D+01  1  2  3  2  7  2        2 -.474729410508D-04 0.100000000000D+01
0.854656117361D-06 0.000000000000D+00 0.000000000000D+00 0.587694444986D-07 0.000000000000D+00  7 -2 2 23 -13 13 23 21 2 0.10671020D-01 0.30114320D+00 0.12284582D+06 0.12284582D+06 0.12284582D+06 0.11144619D+01  1  2 15  2  7  2        2 0.545730423208D-04 0.100000000000D+01
  </mgrwgt>
  </event>
  <event>
  8     66 0.27870365E-05 0.16741288E+03 0.75467711E-02 0.10098578E+00
       -2 -1    0    0    0  501 0.00000000E+00 0.00000000E+00 0.17473767E+03 0.17473797E+03 0.32000000E+00 0.0000E+00 0.9000E+01
        2 -1    0    0  501    0 0.00000000E+00 0.00000000E+00 -.72961609E+03 0.72961616E+03 0.32000000E+00 0.0000E+00 0.9000E+01
       25  2    1    2    0    0 0.41791714E+02 -.20372058E+03 -.75372400E+02 0.37379791E+03 0.30132251E+03 0.0000E+00 0.0000E+00
       23  2    3    3    0    0 0.19047357E+02 -.24484507E+03 -.69219642E+02 0.27102809E+03 0.91394522E+02 0.0000E+00 0.0000E+00
       23  1    1    2    0    0 -.41791714E+02 0.20372058E+03 -.47950602E+03 0.53055621E+03 0.91188000E+02 0.0000E+00 0.9000E+01
      -11  1    4    4    0    0 -.84221999E+00 -.23891556E+03 -.73233339E+02 0.24988893E+03 0.51099893E-03 0.0000E+00 0.9000E+01
       11  1    4    4    0    0 0.19889577E+02 -.59295027E+01 0.40136978E+01 0.21139159E+02 0.51099893E-03 0.0000E+00 0.9000E+01
       23  1    3    3    0    0 0.22744357E+02 0.41124482E+02 -.61527583E+01 0.10276982E+03 0.91188000E+02 0.0000E+00 0.9000E+01
#aMCatNLO 1  0  0  2  1 0.23750047D+01 0.00000000D+00  -5  7  0 0.00000000D+00 0.00000000D+00 0.00000000D+00 0.00000000D+00 0.00000000D+00
  <mgrwgt>
 0.5221443240D-03   11    2    0
 0.357059634262002D+03 0.000000000000000D+00 0.000000000000000D+00 0.357059634262002D+03
 0.357059634262002D+03 0.000000000000000D+00 0.000000000000000D+00 -.357059634262002D+03
 0.299310172819342D+03 -.417917143972829D+02 0.203720584614193D+03 -.194994113299176D+03
 0.259553963969299D+03 -.842219989746312D+00 -.238915563892479D+03 0.101424376791794D+03
 0.298891249419587D+02 0.198895770201006D+02 -.592950268044420D+01 0.215082661718723D+02
 0.125366006793405D+03 0.227443573669286D+02 0.411244819587306D+02 0.720614703355098D+02
 0.000000000000000D+00 -.000000000000000D+00 0.000000000000000D+00 -.000000000000000D+00
 0.357146600412233D+03 0.000000000000000D+00 0.000000000000000D+00 0.357146600412233D+03
 0.373653413551922D+03 0.000000000000000D+00 0.000000000000000D+00 -.373653413551922D+03
 0.298840465538337D+03 -.409424458736620D+02 0.203202815934525D+03 -.194994113299176D+03
 0.259966627137656D+03 -.104592280091930D+00 -.239365269156117D+03 0.101424376791794D+03
 0.299560351587608D+02 0.199745466038566D+02 -.598130560021524D+01 0.215082661718723D+02
 0.125360090051799D+03 0.231003442512452D+02 0.409074494726028D+02 0.720614703355098D+02
 0.166767960776015D+02 -.202785270134788D+01 0.123630934920369D+01 -.165068131396891D+02
0.544327406451D-05 0.000000000000D+00 0.000000000000D+00 0.149146991512D-06 0.000000000000D+00  7 -2 2 23 -11 11 23 21 0 0.26882747D-01 0.11224866D+00 0.86828627D+05 0.86828627D+05 0.86828627D+05 0.11267905D+01  1  2  2  2  7  2        2 0.317944220348D-03 0.100000000000D+01
-.288841937166D-06 0.000000000000D+00 -.209036056547D-07 0.149146991512D-06 0.000000000000D+00  7 -2 2 23 -11 11 23 21 2 0.26882747D-01 0.11224866D+00 0.86828627D+05 0.86828627D+05 0.86828627D+05 0.11267905D+01  1  2  3  2  7  2        2 -.214208806670D-04 0.100000000000D+01
0.336156106672D-06 0.000000000000D+00 0.000000000000D+00 0.149146991512D-06 0.000000000000D+00  7 -2 2 23 -11 11 23 21 2 0.26882747D-01 0.11224866D+00 0.86828627D+05 0.86828627D+05 0.86828627D+05 0.11267905D+01  1  2 15  2  7  2        2 0.249297588749D-04 0.100000000000D+01
0.203123049362D-05 0.000000000000D+00 0.000000000000D+00 0.149146991512D-06 0.000000000000D+00  7 -2 2 23 -11 11 23 21 2 0.26882747D-01 0.11747856D+00 0.87505547D+05 0.87505547D+05 0.87505547D+05 0.11265100D+01  1  2 12  2  7  2        2 0.142392454539D-03 0.100000000000D+01
-.141371943002D-02 0.000000000000D+00 0.000000000000D+00 0.149146991512D-06 0.000000000000D+00  7 -2 2 23 -11 11 23 21 2 0.26882747D-01 0.11224866D+00 0.86828627D+05 0.86828627D+05 0.86828627D+05 0.11267905D+01  1  2  4  2  7  2        2 -.104843207687D+00 0.100000000000D+01
-.148497733892D-02 0.000000000000D+00 -.150464811763D-04 0.149146991512D-06 0.000000000000D+00  7 -2 2 23 -11 11 23 21 2 0.26882747D-01 0.11747772D+00 0.86828627D+05 0.86828627D+05 0.86828627D+05 0.11267905D+01  1  2  5  2  7  2        2 -.104160158493D+00 0.100000000000D+01
0.148413931259D-02 0.000000000000D+00 0.150308976153D-04 0.149146991512D-06 0.000000000000D+00  7 -2 2 23 -11 11 23 21 2 0.26882747D-01 0.11224866D+00 0.86828627D+05 0.86828627D+05 0.86828627D+05 0.11267905D+01  1  2  6  2  7  2        2 0.110065634583D+00 0.100000000000D+01
0.141323017064D-02 0.000000000000D+00 0.000000000000D+00 0.149146991512D-06 0.179155157118D-06  7 -2 2 23 -11 11 23 21 2 0.26889295D-01 0.11746524D+00 0.87505547D+05 0.87505547D+05 0.87505547D+05 0.11265100D+01  1  2 11  2  7  2        2 0.990419939674D-01 0.100000000000D+01
0.411572448959D-07 0.000000000000D+00 0.000000000000D+00 0.149146991512D-06 0.000000000000D+00  7 -2 21 23 -11 11 23 -2 2 0.26882747D-01 0.11747856D+00 0.87505547D+05 0.87505547D+05 0.87505547D+05 0.11265100D+01  1  2 12  4  7  2        2 0.319933252379D-05 0.100000000000D+01
-.118686240535D-04 0.000000000000D+00 -.120121840810D-06 0.149146991512D-06 0.000000000000D+00  7 -2 21 23 -11 11 23 -2 2 0.26882747D-01 0.11747772D+00 0.86828627D+05 0.86828627D+05 0.86828627D+05 0.11267905D+01  1  2  5  4  7  2        2 -.923473795280D-03 0.100000000000D+01
0.112487176752D-04 0.000000000000D+00 0.000000000000D+00 0.149146991512D-06 0.142544043896D-08  7 -2 21 23 -11 11 23 -2 2 0.26889295D-01 0.11746524D+00 0.87505547D+05 0.87505547D+05 0.87505547D+05 0.11265100D+01  1  2 11  4  7  2        2 0.874310863961D-03 0.100000000000D+01
  </mgrwgt>
  </event>
  <event>
  8     66 0.27870365E-05 0.34197085E+03 0.75467711E-02 0.95679113E-01
       -2 -1    0    0    0  501 0.00000000E+00 0.00000000E+00 0.35357168E+03 0.35357183E+03 0.32000000E+00 0.0000E+00 0.9000E+01
        2 -1    0    0  501    0 0.00000000E+00 0.00000000E+00 -.72049069E+03 0.72049076E+03 0.32000000E+00 0.0000E+00 0.9000E+01
       25  2    1    2    0    0 0.25506063E+03 0.30060245E+03 0.44060281E+02 0.49731569E+03 0.29993971E+03 0.0000E+00 0.0000E+00
       23  2    3    3    0    0 0.24245495E+03 0.24446241E+03 -.43212371E+02 0.35859880E+03 0.90440700E+02 0.0000E+00 0.0000E+00
       23  1    1    2    0    0 -.25506063E+03 -.30060245E+03 -.41097929E+03 0.57674690E+03 0.91188000E+02 0.0000E+00 0.9000E+01
      -13  1    4    4    0    0 0.77266830E+02 0.66417427E+02 0.27696243E+02 0.10558660E+03 0.10565837E+00 0.0000E+00 0.9000E+01
       13  1    4    4    0    0 0.16518812E+03 0.17804498E+03 -.70908614E+02 0.25301220E+03 0.10565837E+00 0.0000E+00 0.9000E+01
       23  1    3    3    0    0 0.12605679E+02 0.56140044E+02 0.87272652E+02 0.13871689E+03 0.91188000E+02 0.0000E+00 0.9000E+01
#aMCatNLO 1  0  0  1  2 0.52752733D+02 0.00000000D+00  -5  7  0 0.00000000D+00 0.00000000D+00 0.00000000D+00 0.00000000D+00 0.00000000D+00
  <mgrwgt>
 0.5789185428D-03    9    2    0
 0.504722916243243D+03 0.000000000000000D+00 0.000000000000000D+00 0.504722916243243D+03
 0.504722916243243D+03 0.000000000000000D+00 0.000000000000000D+00 -.504722916243243D+03
 0.464280638877319D+03 -.255060630184546D+03 -.300602451862598D+03 -.227647756756767D+03
 0.122412443941969D+03 0.772667102623642D+02 0.664172742682260D+02 0.678484163106017D+02
 0.243433950667971D+03 0.165188240960344D+03 0.178045133249772D+03 0.165185929277968D+02
 0.179318798999227D+03 0.126056789618386D+02 0.561400443445998D+02 0.143280747518369D+03
 0.000000000000000D+00 0.000000000000000D+00 -.000000000000000D+00 0.000000000000000D+00
 0.532505376889463D+03 0.000000000000000D+00 0.000000000000000D+00 0.532505376889463D+03
 0.531089647372792D+03 0.000000000000000D+00 0.000000000000000D+00 -.531089647372792D+03
 0.458320913227890D+03 -.267475769561281D+03 -.279957174759388D+03 -.227647756756767D+03
 0.123473060581739D+03 0.739579115697813D+02 0.719195134146605D+02 0.678484163106017D+02
 0.247291090381626D+03 0.158584718815402D+03 0.189026205664874D+03 0.165185929277968D+02
 0.181738233689983D+03 0.774705567689128D+01 0.642195045112584D+02 0.143280747518369D+03
 0.527717263810172D+02 0.271860834992073D+02 -.452080488314051D+02 0.141572951667141D+01
0.192420536846D-04 0.000000000000D+00 0.000000000000D+00 0.119500990961D-05 0.000000000000D+00  7 -2 2 23 -13 13 23 21 0 0.54395660D-01 0.11084474D+00 0.18370852D+06 0.18370852D+06 0.18370852D+06 0.11006707D+01  1  2  2  1  7  1       -2 0.305140696793D-03 0.100000000000D+01
-.103427606499D-05 0.000000000000D+00 -.738945526980D-07 0.119500990961D-05 0.000000000000D+00  7 -2 2 23 -13 13 23 21 2 0.54395660D-01 0.11084474D+00 0.18370852D+06 0.18370852D+06 0.18370852D+06 0.11006707D+01  1  2  3  1  7  1       -2 -.198700991712D-04 0.100000000000D+01
0.121162331753D-05 0.000000000000D+00 0.000000000000D+00 0.119500990961D-05 0.000000000000D+00  7 -2 2 23 -13 13 23 21 2 0.54395660D-01 0.11084474D+00 0.18370852D+06 0.18370852D+06 0.18370852D+06 0.11006707D+01  1  2 15  1  7  1       -2 0.232772238402D-04 0.100000000000D+01
0.332540824611D-04 0.000000000000D+00 0.000000000000D+00 0.119500990961D-05 0.000000000000D+00  7 -2 2 23 -13 13 23 21 2 0.58736125D-01 0.11084474D+00 0.20804561D+06 0.20804561D+06 0.20804561D+06 0.10965123D+01  1  2 12  1  7  1       -2 0.540615238726D-03 0.100000000000D+01
-.262596055470D-04 0.000000000000D+00 0.000000000000D+00 0.119500990961D-05 0.000000000000D+00  7 -2 2 23 -13 13 23 21 2 0.54395660D-01 0.11084474D+00 0.18370852D+06 0.18370852D+06 0.18370852D+06 0.11006707D+01  1  2  4  1  7  1       -2 -.504489066389D-03 0.100000000000D+01
-.117119761986D-03 0.000000000000D+00 -.254034895177D-04 0.119500990961D-05 0.000000000000D+00  7 -2 2 23 -13 13 23 21 2 0.60101819D-01 0.11084474D+00 0.18370852D+06 0.18370852D+06 0.18370852D+06 0.11006707D+01  1  2  5  1  7  1       -2 -.183572745218D-02 0.100000000000D+01
0.119186265946D-03 0.000000000000D+00 0.252776138055D-04 0.119500990961D-05 0.000000000000D+00  7 -2 2 23 -13 13 23 21 2 0.54395660D-01 0.11084474D+00 0.18370852D+06 0.18370852D+06 0.18370852D+06 0.11006707D+01  1  2  6  1  7  1       -2 0.228975899604D-02 0.100000000000D+01
0.428193630177D-06 0.000000000000D+00 0.000000000000D+00 0.119500990961D-05 0.000000000000D+00  7 21 2 23 -13 13 23 2 2 0.58736125D-01 0.11084474D+00 0.20804561D+06 0.20804561D+06 0.20804561D+06 0.10965123D+01  1  2 12  3  7  1       -2 0.712536496761D-04 0.100000000000D+01
-.181487535433D-05 0.000000000000D+00 -.411740130276D-06 0.119500990961D-05 0.000000000000D+00  7 21 2 23 -13 13 23 2 2 0.60101819D-01 0.11084474D+00 0.18370852D+06 0.18370852D+06 0.18370852D+06 0.11006707D+01  1  2  5  3  7  1       -2 -.291040644505D-03 0.100000000000D+01
  </mgrwgt>
  </event>
  <event>
  8     66 0.27870365E-05 0.23793027E+03 0.75467711E-02 0.97696295E-01
       -2 -1    0    0    0  501 0.00000000E+00 0.00000000E+00 0.72201730E+02 0.72202439E+02 0.32000000E+00 0.0000E+00 0.9000E+01
        2 -1    0    0  501    0 0.00000000E+00 0.00000000E+00 -.91745420E+03 0.91745425E+03 0.32000000E+00 0.0000E+00 0.9000E+01
       25  2    1    2    0    0 -.16347346E+02 -.12974705E+03 -.70444289E+03 0.77695004E+03 0.30051630E+03 0.0000E+00 0.0000E+00
       23  2    3    3    0    0 0.57550951E+02 -.16324183E+03 -.33481651E+03 0.38769207E+03 0.90791153E+02 0.0000E+00 0.0000E+00
       23  1    1    2    0    0 0.16347346E+02 0.12974705E+03 -.14080957E+03 0.21270665E+03 0.91188000E+02 0.0000E+00 0.9000E+01
      -11  1    4    4    0    0 0.12486990E+02 0.96036243E+01 -.39928682E+02 0.42923818E+02 0.51099893E-03 0.0000E+00 0.9000E+01
       11  1    4    4    0    0 0.45063961E+02 -.17284545E+03 -.29488783E+03 0.34476825E+03 0.51099893E-03 0.0000E+00 0.9000E+01
       23  1    3    3    0    0 -.73898298E+02 0.33494783E+02 -.36962638E+03 0.38925797E+03 0.91188000E+02 0.0000E+00 0.9000E+01
#aMCatNLO 1  0  0  2  2 0.24552130D+03 0.00000000D+00  -5  7  0 0.00000000D+00 0.00000000D+00 0.00000000D+00 0.00000000D+00 0.00000000D+00
  <mgrwgt>
 0.6312889484D-03    3    2    0
 0.257375521131074D+03 0.000000000000000D+00 0.000000000000000D+00 0.257375521131074D+03
 0.257375521131074D+03 0.000000000000000D+00 0.000000000000000D+00 -.257375521131074D+03
 0.177730424230752D+03 0.163473462414239D+02 0.129747047068859D+03 0.785577520109736D+02
 0.169597074526650D+02 0.124869904732482D+02 0.960362434746074D+01 -.628308405115251D+01
 0.178625256438586D+03 0.450639610112446D+02 -.172845454500596D+03 -.818849320612475D+00
 0.141435654140144D+03 -.738982977259167D+02 0.334947830842767D+02 -.714558186392086D+02
 0.000000000000000D+00 -.000000000000000D+00 0.000000000000000D+00 0.000000000000000D+00
 0.729820731737324D+03 0.000000000000000D+00 0.000000000000000D+00 0.729820731737324D+03
 0.319044067601350D+03 0.000000000000000D+00 0.000000000000000D+00 -.319044067601350D+03
 0.144707827951714D+03 0.483305447940661D+02 0.641711942026491D+02 0.785577520109736D+02
 0.172839328616902D+02 0.158836753886580D+02 0.263932683108914D+01 -.628308405115251D+01
 0.281424781472078D+03 0.906971066044070D+02 -.266408092906326D+03 -.818849320612475D+00
 0.126889819295801D+03 -.472826377180058D+02 -.210758878804517D+02 -.714558186392086D+02
 0.478558437757390D+03 -.107628689069125D+03 0.220673459753040D+03 0.410776664135974D+03
0.339862992793D-05 0.000000000000D+00 0.000000000000D+00 0.158794922387D-06 0.000000000000D+00  7 -2 2 23 -11 11 23 21 0 0.11108017D-01 0.14114686D+00 0.56610812D+05 0.56610812D+05 0.56610812D+05 0.11425818D+01  1  2  2  2  7  2        2 0.623946393130D-03 0.100000000000D+01
-.187396002292D-06 0.000000000000D+00 -.130516338031D-07 0.158794922387D-06 0.000000000000D+00  7 -2 2 23 -11 11 23 21 2 0.11108017D-01 0.14114686D+00 0.56610812D+05 0.56610812D+05 0.56610812D+05 0.11425818D+01  1  2  3  2  7  2        2 -.449136462620D-04 0.100000000000D+01
0.218031802885D-06 0.000000000000D+00 0.000000000000D+00 0.158794922387D-06 0.000000000000D+00  7 -2 2 23 -11 11 23 21 2 0.11108017D-01 0.14114686D+00 0.56610812D+05 0.56610812D+05 0.56610812D+05 0.11425818D+01  1  2 15  2  7  2        2 0.522562015671D-04 0.100000000000D+01
  </mgrwgt>
  </event>
  <event>
  8     66 0.27870365E-05 0.13438375E+03 0.75467711E-02 0.10066332E+00
       -2 -1    0    0    0  501 0.00000000E+00 0.00000000E+00 0.58678506E+03 0.58678514E+03 0.32000000E+00 0.0000E+00 0.9000E+01
        2 -1    0    0  501    0 0.00000000E+00 0.00000000E+00 -.13067594E+03 0.13067633E+03 0.32000000E+00 0.0000E+00 0.9000E+01
       25  2    1    2    0    0 0.71765316E+02 0.32255421E+01 0.50447564E+03 0.59170283E+03 0.30075889E+03 0.0000E+00 0.0000E+00
       23  2    3    3    0    0 0.47046874E+01 -.11287154E+03 0.26828424E+03 0.30521150E+03 0.91736068E+02 0.0000E+00 0.0000E+00
       23  1    1    2    0    0 -.71765316E+02 -.32255421E+01 -.48366520E+02 0.12575864E+03 0.91188000E+02 0.0000E+00 0.9000E+01
      -13  1    4    4    0    0 -.26296223E+02 -.33667436E+00 0.74286077E+02 0.78803789E+02 0.10565837E+00 0.0000E+00 0.9000E+01
       13  1    4    4    0    0 0.31000911E+02 -.11253486E+03 0.19399816E+03 0.22640771E+03 0.10565837E+00 0.0000E+00 0.9000E+01
       23  1    3    3    0    0 0.67060629E+02 0.11609708E+03 0.23619140E+03 0.28649134E+03 0.91188000E+02 0.0000E+00 0.9000E+01
#aMCatNLO 1  0  0  1  2 0.16509626D+03 0.00000000D+00  -5  7  0 0.00000000D+00 0.00000000D+00 0.00000000D+00 0.00000000D+00 0.00000000D+00
  <mgrwgt>
 0.5621074257D-03    8    2    0
 0.276909483127133D+03 0.000000000000000D+00 0.000000000000000D+00 0.276909483127133D+03
 0.276909483127133D+03 0.000000000000000D+00 0.000000000000000D+00 -.276909483127133D+03
 0.202751082150357D+03 -.717653177648678D+02 -.322554211432038D+01 -.166229013753066D+03
 0.409087787511889D+02 -.262962982593731D+02 -.336525445529361D+00 0.313355968092572D+02
 0.133535595616080D+03 0.310009868353484D+02 -.112535009421205D+03 0.648580431892983D+02
 0.176623509736641D+03 0.670606291888925D+02 0.116097076981055D+03 0.700353737545104D+02
 0.000000000000000D+00 -.000000000000000D+00 -.000000000000000D+00 0.000000000000000D+00
 0.472333085902349D+03 0.000000000000000D+00 0.000000000000000D+00 0.472333085902349D+03
 0.326110228600828D+03 0.000000000000000D+00 0.000000000000000D+00 -.326110228600828D+03
 0.199555598875086D+03 -.410591265126512D+02 0.467894092193464D+02 -.166229013753066D+03
 0.385008849450125D+02 -.202353292629981D+02 0.953572041194668D+01 0.313355968092572D+02
 0.115588757264089D+03 0.500154859374385D+02 -.815637554674466D+02 0.648580431892983D+02
 0.224258057182248D+03 0.976580481328777D+02 0.165934857474550D+03 0.700353737545104D+02
 0.220540016236742D+03 -.863790782946670D+02 -.140696231638396D+03 0.146222857301520D+03
0.883118626117D-05 0.000000000000D+00 0.000000000000D+00 0.136723717205D-06 0.000000000000D+00  7 -2 2 23 -13 13 23 21 0 0.90274661D-01 0.20104028D-01 0.44364149D+05 0.44364149D+05 0.44364149D+05 0.11518920D+01  1  2  2  1  7  1       -2 0.329774611755D-03 0.100000000000D+01
-.445968389484D-06 0.000000000000D+00 -.339140805477D-07 0.136723717205D-06 0.000000000000D+00  7 -2 2 23 -13 13 23 21 2 0.90274661D-01 0.20104028D-01 0.44364149D+05 0.44364149D+05 0.44364149D+05 0.11518920D+01  1  2  3  1  7  1       -2 -.220966174122D-04 0.100000000000D+01
0.533642772963D-06 0.000000000000D+00 0.000000000000D+00 0.136723717205D-06 0.000000000000D+00  7 -2 2 23 -13 13 23 21 2 0.90274661D-01 0.20104028D-01 0.44364149D+05 0.44364149D+05 0.44364149D+05 0.11518920D+01  1  2 15  1  7  1       -2 0.264406636591D-04 0.100000000000D+01
0.545952037850D-06 0.000000000000D+00 0.000000000000D+00 0.136723717205D-06 0.000000000000D+00  7 -2 2 23 -13 13 23 21 2 0.15726163D+00 0.20104028D-01 0.91989353D+05 0.91989353D+05 0.91989353D+05 0.11247100D+01  1  2 12  1  7  1       -2 0.629727268878D-05 0.100000000000D+01
-.456493458438D-05 0.000000000000D+00 -.272757520506D-05 0.136723717205D-06 0.000000000000D+00  7 -2 2 23 -13 13 23 21 2 0.16998245D+00 0.20104028D-01 0.44364149D+05 0.44364149D+05 0.44364149D+05 0.11518920D+01  1  2  5  1  7  1       -2 -.450945974713D-04 0.100000000000D+01
0.559964489896D-05 0.000000000000D+00 0.225976933968D-05 0.136723717205D-06 0.000000000000D+00  7 -2 2 23 -13 13 23 21 2 0.90274661D-01 0.20104028D-01 0.44364149D+05 0.44364149D+05 0.44364149D+05 0.11518920D+01  1  2  6  1  7  1       -2 0.277448388482D-03 0.100000000000D+01
0.335156627652D-07 0.000000000000D+00 0.000000000000D+00 0.136723717205D-06 0.000000000000D+00  7 21 2 23 -13 13 23 2 2 0.15726163D+00 0.20104028D-01 0.91989353D+05 0.91989353D+05 0.91989353D+05 0.11247100D+01  1  2 12  3  7  1       -2 0.339908833586D-05 0.100000000000D+01
-.160143433672D-06 0.000000000000D+00 -.187778268840D-06 0.136723717205D-06 0.000000000000D+00  7 21 2 23 -13 13 23 2 2 0.16998245D+00 0.20104028D-01 0.44364149D+05 0.44364149D+05 0.44364149D+05 0.11518920D+01  1  2  5  3  7  1       -2 -.140613843181D-04 0.100000000000D+01
  </mgrwgt>
  </event>
  <event>
  8     66 0.27870365E-05 0.14088829E+03 0.75467711E-02 0.96689133E-01
       -2 -1    0    0    0  501 0.00000000E+00 0.00000000E+00 0.41326147E+03 0.41326159E+03 0.32000000E+00 0.0000E+00 0.9000E+01
        2 -1    0    0  501    0 0.00000000E+00 0.00000000E+00 -.51843779E+03 0.51843789E+03 0.32000000E+00 0.0000E+00 0.9000E+01
       25  2    1    2    0    0 -.32276344E+03 0.34535210E+02 0.19395533E+03 0.48096240E+03 0.29721582E+03 0.0000E+00 0.0000E+00
       23  2    3    3    0    0 -.96845576E+02 0.97745527E+02 0.15308818E+03 0.22597260E+03 0.93243600E+02 0.0000E+00 0.0000E+00
       23  1    1    2    0    0 0.32276344E+03 -.34535210E+02 -.29913165E+03 0.45073708E+03 0.91188000E+02 0.0000E+00 0.9000E+01
      -13  1    4    4    0    0 -.95028591E+02 0.85394251E+02 0.16502448E+03 0.20870002E+03 0.10565837E+00 0.0000E+00 0.9000E+01
       13  1    4    4    0    0 -.18169847E+01 0.12351276E+02 -.11936294E+02 0.17272572E+02 0.10565837E+00 0.0000E+00 0.9000E+01
       23  1    3    3    0    0 -.22591787E+03 -.63210316E+02 0.40867145E+02 0.25498981E+03 0.91188000E+02 0.0000E+00 0.9000E+01
#aMCatNLO 1  0  0  1  2 0.10580070D+03 0.00000000D+00  -5  7  0 0.00000000D+00 0.00000000D+00 0.00000000D+00 0.00000000D+00 0.00000000D+00
  <mgrwgt>
 0.9259238099D-03    9    2    0
 0.462871976102892D+03 0.000000000000000D+00 0.000000000000000D+00 0.462871976102892D+03
 0.462871976102892D+03 0.000000000000000D+00 0.000000000000000D+00 -.462871976102892D+03
 0.419651606789348D+03 0.322763441053123D+03 -.345352104806757D+02 -.249846553095064D+03
 0.228791799473423D+03 -.950287104973654D+02 0.853943446307894D+02 0.189797359287670D+03
 0.160273014925715D+02 -.181686497190330D+01 0.123511822195329D+02 -.100509548097457D+02
 0.261273244450442D+03 -.225917865583854D+03 -.632103163696466D+02 0.701001486171397D+02
 0.000000000000000D+00 0.000000000000000D+00 0.000000000000000D+00 0.000000000000000D+00
 0.550990905417876D+03 0.000000000000000D+00 0.000000000000000D+00 0.550990905417876D+03
 0.498767059084632D+03 0.000000000000000D+00 0.000000000000000D+00 -.498767059084632D+03
 0.407749488211301D+03 0.299671643585961D+03 -.756174565135714D+02 -.249846553095064D+03
 0.227095059775626D+03 -.107751979883069D+03 0.627585803950425D+02 0.189797359287670D+03
 0.150028583218342D+02 -.268288046322598D+01 0.108104679666294D+02 -.100509548097457D+02
 0.281922766010576D+03 -.241077831330003D+03 -.901811679683256D+02 0.701001486171397D+02
 0.117987792183171D+03 0.518410480903365D+02 0.922295761202251D+02 0.522238463332440D+02
0.380562508450D-04 0.000000000000D+00 0.000000000000D+00 0.145498708391D-07 0.000000000000D+00  7 -2 2 23 -13 13 23 21 0 0.63578704D-01 0.79759677D-01 0.13289987D+06 0.13289987D+06 0.13289987D+06 0.11117242D+01  1  2  2  1  7  1       -2 0.648769563552D-03 0.100000000000D+01
-.196767722131D-05 0.000000000000D+00 -.146146023686D-06 0.145498708391D-07 0.000000000000D+00  7 -2 2 23 -13 13 23 21 2 0.63578704D-01 0.79759677D-01 0.13289987D+06 0.13289987D+06 0.13289987D+06 0.11117242D+01  1  2  3  1  7  1       -2 -.414583910198D-04 0.100000000000D+01
0.240100055609D-05 0.000000000000D+00 0.000000000000D+00 0.145498708391D-07 0.000000000000D+00  7 -2 2 23 -13 13 23 21 2 0.63578704D-01 0.79759677D-01 0.13289987D+06 0.13289987D+06 0.13289987D+06 0.11117242D+01  1  2 15  1  7  1       -2 0.505883885908D-04 0.100000000000D+01
0.405116142738D-04 0.000000000000D+00 0.000000000000D+00 0.145498708391D-07 0.000000000000D+00  7 -2 2 23 -13 13 23 21 2 0.77791392D-01 0.79759677D-01 0.17511724D+06 0.17511724D+06 0.17511724D+06 0.11022847D+01  1  2 12  1  7  1       -2 0.539793497659D-03 0.100000000000D+01
-.420782326775D-04 0.000000000000D+00 0.000000000000D+00 0.145498708391D-07 0.000000000000D+00  7 -2 2 23 -13 13 23 21 2 0.63578704D-01 0.79759677D-01 0.13289987D+06 0.13289987D+06 0.13289987D+06 0.11117242D+01  1  2  4  1  7  1       -2 -.886576215281D-03 0.100000000000D+01
-.783077773664D-04 0.000000000000D+00 -.231822315780D-04 0.145498708391D-07 0.000000000000D+00  7 -2 2 23 -13 13 23 21 2 0.80307844D-01 0.79759677D-01 0.13289987D+06 0.13289987D+06 0.13289987D+06 0.11117242D+01  1  2  5  1  7  1       -2 -.995714734620D-03 0.100000000000D+01
0.820914640317D-04 0.000000000000D+00 0.225638441397D-04 0.145498708391D-07 0.000000000000D+00  7 -2 2 23 -13 13 23 21 2 0.63578704D-01 0.79759677D-01 0.13289987D+06 0.13289987D+06 0.13289987D+06 0.11117242D+01  1  2  6  1  7  1       -2 0.172964344881D-02 0.100000000000D+01
0.116708908249D-05 0.000000000000D+00 0.000000000000D+00 0.145498708391D-07 0.000000000000D+00  7 21 2 23 -13 13 23 2 2 0.77791392D-01 0.79759677D-01 0.17511724D+06 0.17511724D+06 0.17511724D+06 0.11022847D+01  1  2 12  3  7  1       -2 0.152241319582D-03 0.100000000000D+01
-.217275734465D-05 0.000000000000D+00 -.746030793085D-06 0.145498708391D-07 0.000000000000D+00  7 21 2 23 -13 13 23 2 2 0.80307844D-01 0.79759677D-01 0.13289987D+06 0.13289987D+06 0.13289987D+06 0.11117242D+01  1  2  5  3  7  1       -2 -.271363067403D-03 0.100000000000D+01
  </mgrwgt>
  </event>
  <event>
  7     66 0.27870365E-05 0.56092209E+03 0.75467711E-02 0.89627277E-01
       -2 -1    0    0    0  501 0.00000000E+00 0.00000000E+00 0.13708285E+03 0.13708323E+03 0.32000000E+00 0.0000E+00 0.9000E+01
        2 -1    0    0  501    0 0.00000000E+00 0.00000000E+00 -.24115478E+04 0.24115478E+04 0.32000000E+00 0.0000E+00 0.9000E+01
       23  2    1    2    0    0 0.53993361E+01 -.42305053E+03 -.62775741E+03 0.76271771E+03 0.93048516E+02 0.0000E+00 0.0000E+00
       23  1    1    2    0    0 0.15531113E+03 0.46543953E+03 -.12599407E+04 0.13551831E+04 0.91188000E+02 0.0000E+00 0.9000E+01
      -13  1    3    3    0    0 0.29817376E+02 -.42801687E+02 -.75339690E+02 0.91635912E+02 0.10565837E+00 0.0000E+00 0.9000E+01
       13  1    3    3    0    0 -.24418039E+02 -.38024884E+03 -.55241772E+03 0.67108179E+03 0.10565837E+00 0.0000E+00 0.9000E+01
       23  1    1    2    0    0 -.16071047E+03 -.42389003E+02 -.38676687E+03 0.43073024E+03 0.91188000E+02 0.0000E+00 0.9000E+01
#aMCatNLO 1  0  0  2  1 0.40202852D+03 0.00000000D+00  -5  7  0 0.00000000D+00 0.00000000D+00 0.00000000D+00 0.00000000D+00 0.00000000D+00
  <mgrwgt>
 0.1020063839D-02    3    2    0
 0.574962919854604D+03 0.000000000000000D+00 0.000000000000000D+00 0.574962919854604D+03
 0.574962919854604D+03 0.000000000000000D+00 0.000000000000000D+00 -.574962919854604D+03
 0.511486653874331D+03 0.155311366820754D+03 0.465440240853767D+03 -.112013870917027D+03
 0.540797950678406D+02 0.298172671007301D+02 -.428009812456463D+02 0.142699271768706D+02
 0.394708589687937D+03 -.244188767198776D+02 -.380249209960303D+03 0.103000619210491D+03
 0.189650801079099D+03 -.160709757201606D+03 -.423900496478175D+02 -.525667547033488D+01
 0.000000000000000D+00 -.000000000000000D+00 0.000000000000000D+00 0.000000000000000D+00
 0.101859532580747D+04 0.000000000000000D+00 0.000000000000000D+00 0.101859532580747D+04
 0.707760490325292D+03 0.000000000000000D+00 0.000000000000000D+00 -.707760490325292D+03
 0.411504580530180D+03 0.214262745893302D+03 0.320257922459017D+03 -.112013870917027D+03
 0.750758715660105D+02 0.380664295838518D+02 -.631165795057097D+02 0.142699271768706D+02
 0.538096860065040D+03 0.351593355312980D+02 -.526975259741013D+03 0.103000619210491D+03
 0.193500165063329D+03 -.136237934496109D+03 -.102657951970460D+03 -.525667547033488D+01
 0.508178338908204D+03 -.151250576512343D+03 0.372491868758166D+03 0.310834835482181D+03
0.108908664059D-03 0.000000000000D+00 0.000000000000D+00 0.565287729042D-10 0.000000000000D+00  7 -2 2 23 -13 13 23 21 0 0.21089700D-01 0.37100739D+00 0.31463359D+06 0.31463359D+06 0.31463359D+06 0.10830249D+01  1  2  2  2  7  2        2 0.101067457973D-02 0.100000000000D+01
-.604598464958D-05 0.000000000000D+00 -.418237946296D-06 0.565287729042D-10 0.000000000000D+00  7 -2 2 23 -13 13 23 21 2 0.21089700D-01 0.37100739D+00 0.31463359D+06 0.31463359D+06 0.31463359D+06 0.10830249D+01  1  2  3  2  7  2        2 -.658101425726D-04 0.100000000000D+01
0.690857691809D-05 0.000000000000D+00 0.000000000000D+00 0.565287729042D-10 0.000000000000D+00  7 -2 2 23 -13 13 23 21 2 0.21089700D-01 0.37100739D+00 0.31463359D+06 0.31463359D+06 0.31463359D+06 0.10830249D+01  1  2 15  2  7  2        2 0.751994022982D-04 0.100000000000D+01
  </mgrwgt>
  </event>
  <event>
  8     66 0.27870365E-05 0.12498853E+03 0.75467711E-02 0.10423481E+00
       -2 -1    0    0    0  501 0.00000000E+00 0.00000000E+00 0.49805129E+02 0.49806157E+02 0.32000000E+00 0.0000E+00 0.9000E+01
        2 -1    0    0  501    0 0.00000000E+00 0.00000000E+00 -.10605845E+04 0.10605846E+04 0.32000000E+00 0.0000E+00 0.9000E+01
       25  2    1    2    0    0 -.10405478E+03 -.10330146E+02 -.76075123E+03 0.82444765E+03 0.30006230E+03 0.0000E+00 0.0000E+00
       23  2    3    3    0    0 -.15005681E+03 0.61956434E+02 -.37335665E+03 0.41734650E+03 0.91800148E+02 0.0000E+00 0.0000E+00
       23  1    1    2    0    0 0.10405478E+03 0.10330146E+02 -.25002816E+03 0.28594308E+03 0.91188000E+02 0.0000E+00 0.9000E+01
      -13  1    4    4    0    0 -.89674311E+02 0.22196806E+01 -.26434975E+03 0.27915445E+03 0.10565837E+00 0.0000E+00 0.9000E+01
       13  1    4    4    0    0 -.60382494E+02 0.59736753E+02 -.10900691E+03 0.13819205E+03 0.10565837E+00 0.0000E+00 0.9000E+01
       23  1    3    3    0    0 0.46002022E+02 -.72286580E+02 -.38739458E+03 0.40710115E+03 0.91188000E+02 0.0000E+00 0.9000E+01
#aMCatNLO 1  0  0  2  1 0.24680661D+02 0.00000000D+00  -5  7  0 0.00000000D+00 0.00000000D+00 0.00000000D+00 0.00000000D+00 0.00000000D+00
  <mgrwgt>
 0.4022952354D-03    9    2    0
 0.229832866217855D+03 0.000000000000000D+00 0.000000000000000D+00 0.229832866217855D+03
 0.229832866217855D+03 0.000000000000000D+00 0.000000000000000D+00 -.229832866217855D+03
 0.140939870610617D+03 0.104054788946197D+03 0.103301465049889D+02 0.247928367534909D+02
 0.930485704491953D+02 -.896743505076238D+02 0.221960559512261D+01 -.247309659066681D+02
 0.941232511840415D+02 -.603824557371727D+02 0.597368264468884D+02 0.405543711411839D+02
 0.131554040191856D+03 0.460020172985996D+02 -.722865785469999D+02 -.406162419880067D+02
 0.000000000000000D+00 0.000000000000000D+00 0.000000000000000D+00 -.000000000000000D+00
 0.233899999802316D+03 0.000000000000000D+00 0.000000000000000D+00 0.233899999802316D+03
 0.270924229750830D+03 0.000000000000000D+00 0.000000000000000D+00 -.270924229750830D+03
 0.136487644882969D+03 0.983249765162606D+02 0.558033157537447D+01 0.247928367534909D+02
 0.968133629639337D+02 -.935956387911843D+02 -.103100580975799D+01 -.247309659066681D+02
 0.947078535544103D+02 -.642824539372936D+02 0.565038637796254D+02 0.405543711411839D+02
 0.132318978971665D+03 0.405521508625398D+02 -.768043279984753D+02 -.406162419880067D+02
 0.444963891801677D+02 0.190009653496774D+02 0.157511384532334D+02 -.370242299485131D+02
0.993320434911D-06 0.000000000000D+00 0.000000000000D+00 0.114159402337D-06 0.000000000000D+00  7 -2 2 23 -13 13 23 21 0 0.76624103D-02 0.16316693D+00 0.48072613D+05 0.48072613D+05 0.48072613D+05 0.11488001D+01  1  2  2  2  7  2        2 0.262734232528D-03 0.100000000000D+01
-.550355051725D-07 0.000000000000D+00 -.381461201734D-08 0.114159402337D-06 0.000000000000D+00  7 -2 2 23 -13 13 23 21 2 0.76624103D-02 0.16316693D+00 0.48072613D+05 0.48072613D+05 0.48072613D+05 0.11488001D+01  1  2  3  2  7  2        2 -.192114069491D-04 0.100000000000D+01
0.636926922569D-07 0.000000000000D+00 0.000000000000D+00 0.114159402337D-06 0.000000000000D+00  7 -2 2 23 -13 13 23 21 2 0.76624103D-02 0.16316693D+00 0.48072613D+05 0.48072613D+05 0.48072613D+05 0.11488001D+01  1  2 15  2  7  2        2 0.222333969098D-04 0.100000000000D+01
0.400502288826D-05 0.000000000000D+00 0.000000000000D+00 0.114159402337D-06 0.000000000000D+00  7 -2 2 23 -13 13 23 21 2 0.76624103D-02 0.19361335D+00 0.53827655D+05 0.53827655D+05 0.53827655D+05 0.11444882D+01  1  2 12  2  7  2        2 0.107202305793D-02 0.100000000000D+01
-.405289565603D-05 0.000000000000D+00 0.000000000000D+00 0.114159402337D-06 0.000000000000D+00  7 -2 2 23 -13 13 23 21 2 0.76624103D-02 0.16316693D+00 0.48072613D+05 0.48072613D+05 0.48072613D+05 0.11488001D+01  1  2  4  2  7  2        2 -.141475630189D-02 0.100000000000D+01
-.585116374599D-05 0.000000000000D+00 -.738455134516D-06 0.114159402337D-06 0.000000000000D+00  7 -2 2 23 -13 13 23 21 2 0.76624103D-02 0.19382303D+00 0.48072613D+05 0.48072613D+05 0.48072613D+05 0.11488001D+01  1  2  5  2  7  2        2 -.157487776574D-02 0.100000000000D+01
0.590143165667D-05 0.000000000000D+00 0.727643656494D-06 0.114159402337D-06 0.000000000000D+00  7 -2 2 23 -13 13 23 21 2 0.76624103D-02 0.16316693D+00 0.48072613D+05 0.48072613D+05 0.48072613D+05 0.11488001D+01  1  2  6  2  7  2        2 0.206003024381D-02 0.100000000000D+01
0.101494546263D-06 0.000000000000D+00 0.000000000000D+00 0.114159402337D-06 0.000000000000D+00  7 -2 21 23 -13 13 23 -2 2 0.76624103D-02 0.19361335D+00 0.53827655D+05 0.53827655D+05 0.53827655D+05 0.11444882D+01  1  2 12  4  7  2        2 0.140946495398D-04 0.100000000000D+01
-.142468535335D-06 0.000000000000D+00 -.188072093462D-07 0.114159402337D-06 0.000000000000D+00  7 -2 21 23 -13 13 23 -2 2 0.76624103D-02 0.19382303D+00 0.48072613D+05 0.48072613D+05 0.48072613D+05 0.11488001D+01  1  2  5  4  7  2        2 -.199748707419D-04 0.100000000000D+01
  </mgrwgt>
  </event>
  <event>
  8     66 0.27870365E-05 0.21343220E+03 0.75467711E-02 0.10414301E+00
       -2 -1    0    0    0  501 0.00000000E+00 0.00000000E+00 0.22556034E+03 0.22556057E+03 0.32000000E+00 0.0000E+00 0.9000E+01
        2 -1    0    0  501    0 0.00000000E+00 0.00000000E+00 -.30592379E+03 0.30592396E+03 0.32000000E+00 0.0000E+00 0.9000E+01
       25  2    1    2    0    0 -.35656044E+02 -.69733611E+02 -.19452881E+03 0.36570421E+03 0.29960638E+03 0.0000E+00 0.0000E+00
       23  2    3    3    0    0 -.42973206E+02 0.83770981E+02 -.66271377E+02 0.14574417E+03 0.89359909E+02 0.0000E+00 0.0000E+00
       23  1    1    2    0    0 0.35656044E+02 0.69733611E+02 0.11416537E+03 0.16578031E+03 0.91188000E+02 0.0000E+00 0.9000E+01
      -13  1    4    4    0    0 -.69022326E+02 0.70743850E+02 -.40356163E+02 0.10675863E+03 0.10565837E+00 0.0000E+00 0.9000E+01
       13  1    4    4    0    0 0.26049120E+02 0.13027131E+02 -.25915214E+02 0.38985539E+02 0.10565837E+00 0.0000E+00 0.9000E+01
       23  1    3    3    0    0 0.73171622E+01 -.15350459E+03 -.12825744E+03 0.21996005E+03 0.91188000E+02 0.0000E+00 0.9000E+01
#aMCatNLO 1  0  0  2  1 0.38682488D+02 0.00000000D+00  -5  7  0 0.00000000D+00 0.00000000D+00 0.00000000D+00 0.00000000D+00 0.00000000D+00
  <mgrwgt>
 0.2720147520D-03    4    2    0
 0.262686848503552D+03 0.000000000000000D+00 0.000000000000000D+00 0.262686848503552D+03
 0.262686848503552D+03 0.000000000000000D+00 0.000000000000000D+00 -.262686848503552D+03
 0.185171803935810D+03 0.356560438480839D+02 0.697336111190943D+02 0.140851750596990D+03
 0.101827419165108D+03 -.690224578232372D+02 0.707439305172057D+02 -.244953037303632D+02
 0.354747983646092D+02 0.260492520391547D+02 0.130270505277709D+02 -.202532402779698D+02
 0.202899675541577D+03 0.731716193599865D+01 -.153504592164071D+03 -.961032065886567D+02
 0.000000000000000D+00 0.000000000000000D+00 -.000000000000000D+00 0.000000000000000D+00
 0.311533428253757D+03 0.000000000000000D+00 0.000000000000000D+00 0.311533428253757D+03
 0.271169391098401D+03 0.000000000000000D+00 0.000000000000000D+00 -.271169391098401D+03
 0.187376523056099D+03 0.258473622001379D+02 0.792931792126595D+02 0.140851750596990D+03
 0.109377992102383D+03 -.745832038831472D+02 0.761634489110834D+02 -.244953037303632D+02
 0.348667392114619D+02 0.241972567442578D+02 0.148320102324460D+02 -.202532402779698D+02
 0.195174585038340D+03 -.316358220207581D+01 -.143290030120441D+03 -.961032065886567D+02
 0.559069799438738D+02 0.277021671408272D+02 -.269986082357476D+02 0.403640371553564D+02
0.376679175902D-05 0.000000000000D+00 0.000000000000D+00 0.759078138505D-07 0.000000000000D+00  7 -2 2 23 -13 13 23 21 0 0.34701622D-01 0.47065229D-01 0.45553305D+05 0.45553305D+05 0.45553305D+05 0.11508704D+01  1  2  2  2  7  2        2 0.371152993778D-03 0.100000000000D+01
-.198295950067D-06 0.000000000000D+00 -.144654721737D-07 0.759078138505D-07 0.000000000000D+00  7 -2 2 23 -13 13 23 21 2 0.34701622D-01 0.47065229D-01 0.45553305D+05 0.45553305D+05 0.45553305D+05 0.11508704D+01  1  2  3  2  7  2        2 -.258790349117D-04 0.100000000000D+01
0.231547682592D-06 0.000000000000D+00 0.000000000000D+00 0.759078138505D-07 0.000000000000D+00  7 -2 2 23 -13 13 23 21 2 0.34701622D-01 0.47065229D-01 0.45553305D+05 0.45553305D+05 0.45553305D+05 0.11508704D+01  1  2 15  2  7  2        2 0.302186230202D-04 0.100000000000D+01
-.792890255156D-06 0.000000000000D+00 0.000000000000D+00 0.759078138505D-07 0.000000000000D+00  7 -2 2 23 -13 13 23 21 2 0.34701622D-01 0.47065229D-01 0.45553305D+05 0.45553305D+05 0.45553305D+05 0.11508704D+01  1  2  4  2  7  2        2 -.103477829917D-03 0.100000000000D+01
  </mgrwgt>
  </event>
  <event>
  9     66 0.27870365E-05 0.22612501E+03 0.75467711E-02 0.99552983E-01
       -2 -1    0    0    0  502 0.00000000E+00 0.00000000E+00 0.87334396E+02 0.87334982E+02 0.32000000E+00 0.0000E+00 0.9000E+01
        2 -1    0    0  501    0 0.00000000E+00 0.00000000E+00 -.28012048E+04 0.28012048E+04 0.32000000E+00 0.0000E+00 0.9000E+01
       25  2    1    2    0    0 0.22909952E+02 0.21840268E+03 -.22923026E+04 0.23223779E+04 0.30093730E+03 0.0000E+00 0.0000E+00
       23  2    3    3    0    0 0.64580502E+02 0.23075139E+03 -.19032174E+04 0.19203935E+04 0.90872334E+02 0.0000E+00 0.0000E+00
       23  1    1    2    0    0 -.67661261E+02 -.39447714E+02 -.16842049E+02 0.12137988E+03 0.91188000E+02 0.0000E+00 0.9000E+01
      -13  1    4    4    0    0 0.31024137E+02 0.21823079E+03 -.16471100E+04 0.16617938E+04 0.10565837E+00 0.0000E+00 0.9000E+01
       13  1    4    4    0    0 0.33556364E+02 0.12520595E+02 -.25610742E+03 0.25859972E+03 0.10565837E+00 0.0000E+00 0.9000E+01
       23  1    3    3    0    0 -.41670550E+02 -.12348706E+02 -.38908513E+03 0.40198435E+03 0.91188000E+02 0.0000E+00 0.9000E+01
       21  1    1    2  501  502 0.44751309E+02 -.17895497E+03 -.40472578E+03 0.44478205E+03 0.75000000E+00 0.0000E+00 0.9000E+01
#aMCatNLO 2  0  0  1  2 0.18446561D+03 0.00000000D+00  -5  7  0 0.00000000D+00 0.00000000D+00 0.00000000D+00 0.00000000D+00 0.00000000D+00
  <mgrwgt>
 0.8048945332D-04    2    2    0
 0.389157887057525D+03 0.000000000000000D+00 0.000000000000000D+00 0.389157887057525D+03
 0.389157887057525D+03 0.000000000000000D+00 0.000000000000000D+00 -.389157887057525D+03
 0.336320716944749D+03 -.489877910120915D+02 -.114120618711625D+03 0.298953263937461D+03
 0.282586234515344D+03 0.481694469251745D+02 0.149669077138691D+03 -.234805987293630D+03
 0.511705259188320D+02 0.364454368896769D+02 0.967284857198933D+00 -.359056710386462D+02
 0.108238296736126D+03 -.356270928027599D+02 -.365157432842653D+02 -.282416056051848D+02
 0.000000000000000D+00 0.000000000000000D+00 -.000000000000000D+00 0.000000000000000D+00
 0.518945706670525D+03 0.000000000000000D+00 0.000000000000000D+00 0.518945706670525D+03
 0.471420536236713D+03 0.000000000000000D+00 0.000000000000000D+00 -.471420536236713D+03
 0.322214949646862D+03 -.676612612320278D+02 -.394477140219757D+02 0.298953263937461D+03
 0.322057678390754D+03 0.310241339617087D+02 0.218231069404500D+03 -.234805987293630D+03
 0.507149421095197D+02 0.335563674746234D+02 0.125203171822643D+02 -.359056710386462D+02
 0.104889298056127D+03 -.416705495148287D+02 -.123487051418566D+02 -.282416056051848D+02
 0.190489374703976D+03 0.447513093105245D+02 -.178954967422932D+03 0.475251704338111D+02
-.391922757756D-06 0.000000000000D+00 0.000000000000D+00 0.343219405174D-06 0.000000000000D+00  7 -2 2 23 -13 13 23 21 2 0.14209305D-01 0.35575272D+00 0.10953729D+06 0.10953729D+06 0.10953729D+06 0.11184899D+01  1  2 13  1  7  1       -2 -.103162308660D-04 0.100000000000D+01
0.603414260728D-05 0.000000000000D+00 0.000000000000D+00 0.343219405174D-06 0.704565582659D-10  7 -2 2 23 -13 13 23 21 2 0.13436087D-01 0.43095398D+00 0.10953729D+06 0.10953729D+06 0.10953729D+06 0.11184899D+01  1  2  1  1  7  1       -2 0.908056841825D-04 0.100000000000D+01
  </mgrwgt>
  </event>
  <event>
  8     66 0.27870365E-05 0.43919660E+03 0.75467711E-02 0.90622590E-01
       -2 -1    0    0    0  501 0.00000000E+00 0.00000000E+00 0.99967668E+02 0.99968180E+02 0.32000000E+00 0.0000E+00 0.9000E+01
        2 -1    0    0  501    0 0.00000000E+00 0.00000000E+00 -.23683678E+04 0.23683678E+04 0.32000000E+00 0.0000E+00 0.9000E+01
       25  2    1    2    0    0 -.28695371E+03 0.29540248E+03 -.15835167E+04 0.16639818E+04 0.30282890E+03 0.0000E+00 0.0000E+00
       23  2    3    3    0    0 -.24424787E+03 0.18252980E+03 -.71784377E+03 0.78519352E+03 0.90857196E+02 0.0000E+00 0.0000E+00
       23  1    1    2    0    0 0.28695371E+03 -.29540248E+03 -.68488340E+03 0.80435414E+03 0.91188000E+02 0.0000E+00 0.9000E+01
      -13  1    4    4    0    0 -.12050344E+03 0.99942849E+02 -.25698733E+03 0.30091884E+03 0.10565837E+00 0.0000E+00 0.9000E+01
       13  1    4    4    0    0 -.12374444E+03 0.82586951E+02 -.46085645E+03 0.48427468E+03 0.10565837E+00 0.0000E+00 0.9000E+01
       23  1    3    3    0    0 -.42705837E+02 0.11287268E+03 -.86567293E+03 0.87878832E+03 0.91188000E+02 0.0000E+00 0.9000E+01
#aMCatNLO 1  0  0  1  2 0.45089703D+03 0.00000000D+00  -5  7  0 0.00000000D+00 0.00000000D+00 0.00000000D+00 0.00000000D+00 0.00000000D+00
  <mgrwgt>
 0.3655639964D-03    5    2    0
 0.486580786104488D+03 0.000000000000000D+00 0.000000000000000D+00 0.486580786104488D+03
 0.486580786104488D+03 0.000000000000000D+00 0.000000000000000D+00 -.486580786104488D+03
 0.443735850012102D+03 0.286953711501082D+03 -.295402476661314D+03 0.137772266730564D+03
 0.164226308481476D+03 -.120503431606255D+03 0.999428719597353D+02 0.496046944654400D+02
 0.154081082917925D+03 -.123744441085266D+03 0.825869275897288D+02 -.400960447543707D+02
 0.211118330797474D+03 -.427058388095621D+02 0.112872677111850D+03 -.147280916441633D+03
 0.000000000000000D+00 -.000000000000000D+00 -.000000000000000D+00 0.000000000000000D+00
 0.770088305993258D+03 0.000000000000000D+00 0.000000000000000D+00 0.770088305993258D+03
 0.753652620940055D+03 0.000000000000000D+00 0.000000000000000D+00 -.753652620940055D+03
 0.422145239712370D+03 0.368529893117862D+03 -.122865261430050D+03 0.137772266730564D+03
 0.198996045735832D+03 -.862836142588937D+02 0.172319292059567D+03 0.496046944654400D+02
 0.179902943375013D+03 -.922792180779756D+02 0.149137259398737D+03 -.400960447543707D+02
 0.271500213777990D+03 0.276250379674369D+01 0.209040223312118D+03 -.147280916441633D+03
 0.451196484332107D+03 -.192729564577736D+03 -.407631513340371D+03 0.164356850532036D+02
0.194167983871D-04 0.000000000000D+00 0.000000000000D+00 0.402402931444D-07 0.000000000000D+00  7 -2 2 23 -13 13 23 21 0 0.15379682D-01 0.36436431D+00 0.19289365D+06 0.19289365D+06 0.19289365D+06 0.10990342D+01  1  2  2  1  7  1       -2 0.327714232815D-03 0.100000000000D+01
-.106494337392D-05 0.000000000000D+00 -.745656183668D-07 0.402402931444D-07 0.000000000000D+00  7 -2 2 23 -13 13 23 21 2 0.15379682D-01 0.36436431D+00 0.19289365D+06 0.19289365D+06 0.19289365D+06 0.10990342D+01  1  2  3  1  7  1       -2 -.217103374987D-04 0.100000000000D+01
0.120768472165D-05 0.000000000000D+00 0.000000000000D+00 0.402402931444D-07 0.000000000000D+00  7 -2 2 23 -13 13 23 21 2 0.15379682D-01 0.36436431D+00 0.19289365D+06 0.19289365D+06 0.19289365D+06 0.10990342D+01  1  2 15  1  7  1       -2 0.246203164798D-04 0.100000000000D+01
0.360420537535D-05 0.000000000000D+00 -.631289848856D-05 0.402402931444D-07 0.000000000000D+00  7 -2 2 23 -13 13 23 21 2 0.46354058D-01 0.36436431D+00 0.19289365D+06 0.19289365D+06 0.19289365D+06 0.10990342D+01  1  2  5  1  7  1       -2 0.106636639466D-04 0.100000000000D+01
0.765666924871D-06 0.000000000000D+00 -.793150849534D-06 0.402402931444D-07 0.000000000000D+00  7 21 2 23 -13 13 23 2 2 0.46354058D-01 0.36436431D+00 0.19289365D+06 0.19289365D+06 0.19289365D+06 0.10990342D+01  1  2  5  3  7  1       -2 0.242761206496D-04 0.100000000000D+01
  </mgrwgt>
  </event>
  <event>
  8     66 0.27870365E-05 0.18645082E+03 0.75467711E-02 0.10181706E+00
       -2 -1    0    0    0  501 0.00000000E+00 0.00000000E+00 0.10078542E+03 0.10078593E+03 0.32000000E+00 0.0000E+00 0.9000E+01
        2 -1    0    0  501    0 0.00000000E+00 0.00000000E+00 -.98693819E+03 0.98693825E+03 0.32000000E+00 0.0000E+00 0.9000E+01
       25  2    1    2    0    0 -.16570099E+03 0.16008354E+02 -.81706527E+03 0.88573057E+03 0.29868027E+03 0.0000E+00 0.0000E+00
       23  2    3    3    0    0 -.20395684E+03 0.60757404E+02 -.50657919E+03 0.55681896E+03 0.90194378E+02 0.0000E+00 0.0000E+00
       23  1    1    2    0    0 0.16570099E+03 -.16008354E+02 -.69087500E+02 0.20199361E+03 0.91188000E+02 0.0000E+00 0.9000E+01
      -13  1    4    4    0    0 -.20694809E+03 0.68357254E+02 -.45393233E+03 0.50354225E+03 0.10565837E+00 0.0000E+00 0.9000E+01
       13  1    4    4    0    0 0.29912448E+01 -.75998504E+01 -.52646854E+02 0.53276708E+02 0.10565837E+00 0.0000E+00 0.9000E+01
       23  1    3    3    0    0 0.38255855E+02 -.44749050E+02 -.31048608E+03 0.32891161E+03 0.91188000E+02 0.0000E+00 0.9000E+01
#aMCatNLO 1  0  0  2  1 0.27611507D+02 0.00000000D+00  -5  7  0 0.00000000D+00 0.00000000D+00 0.00000000D+00 0.00000000D+00 0.00000000D+00
  <mgrwgt>
 0.6983172818D-03    9    2    0
 0.315387521541759D+03 0.000000000000000D+00 0.000000000000000D+00 0.315387521541759D+03
 0.315387521541759D+03 0.000000000000000D+00 0.000000000000000D+00 -.315387521541759D+03
 0.251264304455337D+03 0.165700985726993D+03 -.160083536193866D+02 0.164637223290858D+03
 0.230608157647823D+03 -.206948373454830D+03 0.683573584759011D+02 -.753642132601435D+02
 0.179097515085899D+02 0.299153274788096D+01 -.759995451349132D+01 -.159389655345213D+02
 0.130992829471767D+03 0.382558549799563D+02 -.447490503430232D+02 -.733340444961935D+02
 0.000000000000000D+00 -.000000000000000D+00 0.000000000000000D+00 -.000000000000000D+00
 0.320822180401137D+03 0.000000000000000D+00 0.000000000000000D+00 0.320822180401137D+03
 0.352824220820388D+03 0.000000000000000D+00 0.000000000000000D+00 -.352824220820388D+03
 0.258322208677043D+03 0.175703101776927D+03 -.209312418367533D+02 0.164637223290858D+03
 0.221379804202157D+03 -.198076796340657D+03 0.639909041949479D+02 -.753642132601435D+02
 0.181913033805889D+02 0.370012085062927D+01 -.794871071713575D+01 -.159389655345213D+02
 0.133485769802453D+03 0.434470159987282D+02 -.473040602315492D+02 -.733340444961935D+02
 0.422673151592833D+02 -.247734422856274D+02 0.121931085904904D+02 -.320020404192510D+02
0.449040037537D-05 0.000000000000D+00 0.000000000000D+00 0.590895964610D-07 0.000000000000D+00  7 -2 2 23 -13 13 23 21 0 0.15505493D-01 0.15183669D+00 0.68766155D+05 0.68766155D+05 0.68766155D+05 0.11353168D+01  1  2  2  2  7  2        2 0.442337567668D-03 0.100000000000D+01
-.239134082648D-06 0.000000000000D+00 -.172443197910D-07 0.590895964610D-07 0.000000000000D+00  7 -2 2 23 -13 13 23 21 2 0.15505493D-01 0.15183669D+00 0.68766155D+05 0.68766155D+05 0.68766155D+05 0.11353168D+01  1  2  3  2  7  2        2 -.303629761928D-04 0.100000000000D+01
0.286763549922D-06 0.000000000000D+00 0.000000000000D+00 0.590895964610D-07 0.000000000000D+00  7 -2 2 23 -13 13 23 21 2 0.15505493D-01 0.15183669D+00 0.68766155D+05 0.68766155D+05 0.68766155D+05 0.11353168D+01  1  2 15  2  7  2        2 0.364105138959D-04 0.100000000000D+01
0.188006179506D-04 0.000000000000D+00 0.000000000000D+00 0.590895964610D-07 0.000000000000D+00  7 -2 2 23 -13 13 23 21 2 0.15505493D-01 0.17106837D+00 0.77043297D+05 0.77043297D+05 0.77043297D+05 0.11311370D+01  1  2 12  2  7  2        2 0.199623762574D-02 0.100000000000D+01
-.191289238259D-04 0.000000000000D+00 0.000000000000D+00 0.590895964610D-07 0.000000000000D+00  7 -2 2 23 -13 13 23 21 2 0.15505493D-01 0.15183669D+00 0.68766155D+05 0.68766155D+05 0.68766155D+05 0.11353168D+01  1  2  4  2  7  2        2 -.242880919478D-02 0.100000000000D+01
-.324911876632D-04 0.000000000000D+00 -.467542900908D-05 0.590895964610D-07 0.000000000000D+00  7 -2 2 23 -13 13 23 21 2 0.15505493D-01 0.17129677D+00 0.68766155D+05 0.68766155D+05 0.68766155D+05 0.11353168D+01  1  2  5  2  7  2        2 -.347194941706D-02 0.100000000000D+01
0.328496517702D-04 0.000000000000D+00 0.464163774296D-05 0.590895964610D-07 0.000000000000D+00  7 -2 2 23 -13 13 23 21 2 0.15505493D-01 0.15183669D+00 0.68766155D+05 0.68766155D+05 0.68766155D+05 0.11353168D+01  1  2  6  2  7  2        2 0.417093700570D-02 0.100000000000D+01
0.354861530178D-06 0.000000000000D+00 0.000000000000D+00 0.590895964610D-07 0.000000000000D+00  7 -2 21 23 -13 13 23 -2 2 0.15505493D-01 0.17106837D+00 0.77043297D+05 0.77043297D+05 0.77043297D+05 0.11311370D+01  1  2 12  4  7  2        2 0.235650551011D-04 0.100000000000D+01
-.597214780848D-06 0.000000000000D+00 -.890781713859D-07 0.590895964610D-07 0.000000000000D+00  7 -2 21 23 -13 13 23 -2 2 0.15505493D-01 0.17129677D+00 0.68766155D+05 0.68766155D+05 0.68766155D+05 0.11353168D+01  1  2  5  4  7  2        2 -.400488982335D-04 0.100000000000D+01
  </mgrwgt>
  </event>
  <event>
  8     66 0.27870365E-05 0.38630475E+03 0.75467711E-02 0.96102321E-01
       -2 -1    0    0    0  501 0.00000000E+00 0.00000000E+00 0.10644215E+03 0.10644263E+03 0.32000000E+00 0.0000E+00 0.9000E+01
        2 -1    0    0  501    0 0.00000000E+00 0.00000000E+00 -.23252792E+04 0.23252793E+04 0.32000000E+00 0.0000E+00 0.9000E+01
       25  2    1    2    0    0 -.17964118E+03 0.37000019E+03 -.16301048E+04 0.17077799E+04 0.30016555E+03 0.0000E+00 0.0000E+00
       23  2    3    3    0    0 -.37571018E+02 0.86692067E+02 -.86234784E+03 0.87218822E+03 0.90229644E+02 0.0000E+00 0.0000E+00
       23  1    1    2    0    0 0.17964118E+03 -.37000019E+03 -.58873230E+03 0.72394204E+03 0.91188000E+02 0.0000E+00 0.9000E+01
      -11  1    4    4    0    0 0.39682001E+01 -.14645995E+02 -.43974804E+02 0.46519191E+02 0.51099893E-03 0.0000E+00 0.9000E+01
       11  1    4    4    0    0 -.41539218E+02 0.10133806E+03 -.81837304E+03 0.82566903E+03 0.51099893E-03 0.0000E+00 0.9000E+01
       23  1    3    3    0    0 -.14207016E+03 0.28330812E+03 -.76775693E+03 0.83559164E+03 0.91188000E+02 0.0000E+00 0.9000E+01
#aMCatNLO 1  0  0  2  1 0.37339925D+01 0.00000000D+00  -5  7  0 0.00000000D+00 0.00000000D+00 0.00000000D+00 0.00000000D+00 0.00000000D+00
  <mgrwgt>
 0.8833019695D-03   10    2    0
 0.497502101237078D+03 0.000000000000000D+00 0.000000000000000D+00 0.497502101237078D+03
 0.497502101237078D+03 0.000000000000000D+00 0.000000000000000D+00 -.497502101237078D+03
 0.456404735279711D+03 0.179641179624142D+03 -.370000190086794D+03 0.175553231131548D+03
 0.156268793063434D+02 0.396820005531822D+01 -.146459953759225D+02 -.373464384171412D+01
 0.192924813661421D+03 -.415392179537134D+02 0.101338062214643D+03 -.158824035475331D+03
 0.330047774226680D+03 -.142070161725747D+03 0.283308123248074D+03 -.129945518145030D+02
 0.000000000000000D+00 0.000000000000000D+00 -.000000000000000D+00 -.000000000000000D+00
 0.498651239881619D+03 0.000000000000000D+00 0.000000000000000D+00 0.498651239881619D+03
 0.500548173418770D+03 0.000000000000000D+00 0.000000000000000D+00 -.500548173418770D+03
 0.454924536999386D+03 0.179348497012212D+03 -.368315439099204D+03 0.175553231131548D+03
 0.155702889383642D+02 0.395818076924411D+01 -.145883219733346D+02 -.373464384171412D+01
 0.193327537174230D+03 -.416632668022968D+02 0.102052117001780D+03 -.158824035475331D+03
 0.331188845689864D+03 -.142282524553220D+03 0.284530534381263D+03 -.129945518145030D+02
 0.418820449854513D+01 0.639113574061050D+00 -.367889031050365D+01 -.189693353715068D+01
0.140423324280D-04 0.000000000000D+00 0.000000000000D+00 0.783039819261D-06 0.000000000000D+00  7 -2 2 23 -11 11 23 21 0 0.16375755D-01 0.35773531D+00 0.19174698D+06 0.19174698D+06 0.19174698D+06 0.10992338D+01  1  2  2  2  7  2        2 0.226436368028D-03 0.100000000000D+01
-.764677762576D-06 0.000000000000D+00 -.539262539547D-07 0.783039819261D-06 0.000000000000D+00  7 -2 2 23 -11 11 23 21 2 0.16375755D-01 0.35773531D+00 0.19174698D+06 0.19174698D+06 0.19174698D+06 0.10992338D+01  1  2  3  2  7  2        2 -.148992875767D-04 0.100000000000D+01
0.868872883864D-06 0.000000000000D+00 0.000000000000D+00 0.783039819261D-06 0.000000000000D+00  7 -2 2 23 -11 11 23 21 2 0.16375755D-01 0.35773531D+00 0.19174698D+06 0.19174698D+06 0.19174698D+06 0.10992338D+01  1  2 15  2  7  2        2 0.169294670224D-04 0.100000000000D+01
-.340566592921D-03 0.000000000000D+00 0.000000000000D+00 0.783039819261D-06 0.000000000000D+00  7 -2 2 23 -11 11 23 21 2 0.16375755D-01 0.35773531D+00 0.19174698D+06 0.19174698D+06 0.19174698D+06 0.10992338D+01  1  2  4  2  7  2        2 -.663573580308D-02 0.100000000000D+01
-.193219941354D-02 0.000000000000D+00 -.178950477185D-03 0.783039819261D-06 0.000000000000D+00  7 -2 2 23 -11 11 23 21 2 0.16375755D-01 0.36024914D+00 0.19174698D+06 0.19174698D+06 0.19174698D+06 0.10992338D+01  1  2  5  2  7  2        2 -.368598337912D-01 0.100000000000D+01
0.193340949832D-02 0.000000000000D+00 0.178946089861D-03 0.783039819261D-06 0.000000000000D+00  7 -2 2 23 -11 11 23 21 2 0.16375755D-01 0.35773531D+00 0.19174698D+06 0.19174698D+06 0.19174698D+06 0.10992338D+01  1  2  6  2  7  2        2 0.376713244830D-01 0.100000000000D+01
0.340573545574D-03 0.000000000000D+00 0.000000000000D+00 0.783039819261D-06 0.361733140190D-06  7 -2 2 23 -11 11 23 21 2 0.16413580D-01 0.35992562D+00 0.19346801D+06 0.19346801D+06 0.19346801D+06 0.10989347D+01  1  2 11  2  7  2        2 0.648447147654D-02 0.100000000000D+01
0.336209470349D-07 0.000000000000D+00 0.000000000000D+00 0.783039819261D-06 0.000000000000D+00  7 -2 21 23 -11 11 23 -2 2 0.16375755D-01 0.36033703D+00 0.19346801D+06 0.19346801D+06 0.19346801D+06 0.10989347D+01  1  2 12  4  7  2        2 0.905463739160D-07 0.100000000000D+01
-.250721397218D-05 0.000000000000D+00 -.232507493722D-06 0.783039819261D-06 0.000000000000D+00  7 -2 21 23 -11 11 23 -2 2 0.16375755D-01 0.36024914D+00 0.19174698D+06 0.19174698D+06 0.19174698D+06 0.10992338D+01  1  2  5  4  7  2        2 -.677098435309D-05 0.100000000000D+01
0.477595878052D-06 0.000000000000D+00 0.000000000000D+00 0.783039819261D-06 0.411619917486D-09  7 -2 21 23 -11 11 23 -2 2 0.16413580D-01 0.35992562D+00 0.19346801D+06 0.19346801D+06 0.19346801D+06 0.10989347D+01  1  2 11  4  7  2        2 0.128949468594D-05 0.100000000000D+01
  </mgrwgt>
  </event>
  <event>
  8     66 0.27870365E-05 0.54673556E+02 0.75467711E-02 0.10655784E+00
       -2 -1    0    0    0  501 0.00000000E+00 0.00000000E+00 0.79273632E+02 0.79274278E+02 0.32000000E+00 0.0000E+00 0.9000E+01
        2 -1    0    0  501    0 0.00000000E+00 0.00000000E+00 -.16159863E+04 0.16159863E+04 0.32000000E+00 0.0000E+00 0.9000E+01
       25  2    1    2    0    0 -.37536025E+02 -.77914110E+02 -.15382203E+04 0.15695741E+04 0.29993623E+03 0.0000E+00 0.0000E+00
       23  2    3    3    0    0 -.45498956E+02 -.94311265E+02 -.13734125E+04 0.13803411E+04 0.90082919E+02 0.0000E+00 0.0000E+00
       23  1    1    2    0    0 0.37536025E+02 0.77914110E+02 0.15076377E+01 0.12568646E+03 0.91188000E+02 0.0000E+00 0.9000E+01
      -13  1    4    4    0    0 0.20095678E+02 -.45277051E+02 -.74000749E+03 0.74166363E+03 0.10565837E+00 0.0000E+00 0.9000E+01
       13  1    4    4    0    0 -.65594634E+02 -.49034214E+02 -.63340502E+03 0.63867750E+03 0.10565837E+00 0.0000E+00 0.9000E+01
       23  1    3    3    0    0 0.79629311E+01 0.16397155E+02 -.16480776E+03 0.18923299E+03 0.91188000E+02 0.0000E+00 0.9000E+01
#aMCatNLO 1  0  0  1  2 0.42778710D+02 0.00000000D+00  -5  7  0 0.00000000D+00 0.00000000D+00 0.00000000D+00 0.00000000D+00 0.00000000D+00
  <mgrwgt>
 0.2923505662D-03    9    2    0
 0.357918530775813D+03 0.000000000000000D+00 0.000000000000000D+00 0.357918530775813D+03
 0.357918530775813D+03 0.000000000000000D+00 0.000000000000000D+00 -.357918530775813D+03
 0.300889848074651D+03 0.375360252192349D+02 0.779141097263252D+02 0.273385968269554D+03
 0.167823486844567D+03 0.200957957651586D+02 -.452770459872000D+02 -.160346097039829D+03
 0.152776755761083D+03 -.655947520432353D+02 -.490342189765470D+02 -.128971744869285D+03
 0.943469708713264D+02 0.796293105884190D+01 0.163971552374218D+02 0.159318736395608D+02
 0.000000000000000D+00 -.000000000000000D+00 -.000000000000000D+00 0.000000000000000D+00
 0.390149795532474D+03 0.000000000000000D+00 0.000000000000000D+00 0.390149795532474D+03
 0.373038408288120D+03 0.000000000000000D+00 0.000000000000000D+00 -.373038408288120D+03
 0.306594651044384D+03 0.455965746189868D+02 0.941599354362643D+02 0.273385968269554D+03
 0.166232832867082D+03 0.245282997570134D+02 -.363434505535563D+02 -.160346097039829D+03
 0.148682085292485D+03 -.615947752803252D+02 -.409723708181517D+02 -.128971744869285D+03
 0.956045895898698D+02 0.104833475285260D+02 0.214769884661852D+02 0.159318736395608D+02
 0.460740450267737D+02 -.190134466242010D+02 -.383211025307414D+02 0.171113872443538D+02
0.385589252694D-05 0.000000000000D+00 0.000000000000D+00 0.460730005786D-06 0.000000000000D+00  7 -2 2 23 -13 13 23 21 0 0.12195995D-01 0.24861332D+00 0.30642905D+05 0.30642905D+05 0.30642905D+05 0.11664825D+01  1  2  2  1  7  1       -2 0.250899631409D-03 0.100000000000D+01
-.809801433725D-07 0.000000000000D+00 -.148076425833D-07 0.460730005786D-06 0.000000000000D+00  7 -2 2 23 -13 13 23 21 2 0.12195995D-01 0.24861332D+00 0.30642905D+05 0.30642905D+05 0.30642905D+05 0.11664825D+01  1  2  3  1  7  1       -2 -.716985031489D-05 0.100000000000D+01
0.228507449107D-06 0.000000000000D+00 0.000000000000D+00 0.460730005786D-06 0.000000000000D+00  7 -2 2 23 -13 13 23 21 2 0.12195995D-01 0.24861332D+00 0.30642905D+05 0.30642905D+05 0.30642905D+05 0.11664825D+01  1  2 15  1  7  1       -2 0.202316782572D-04 0.100000000000D+01
0.717348638307D-05 0.000000000000D+00 0.000000000000D+00 0.460730005786D-06 0.000000000000D+00  7 -2 2 23 -13 13 23 21 2 0.13534295D-01 0.24861332D+00 0.38740437D+05 0.38740437D+05 0.38740437D+05 0.11571712D+01  1  2 12  1  7  1       -2 0.529556894660D-03 0.100000000000D+01
-.704951517160D-05 0.000000000000D+00 0.000000000000D+00 0.460730005786D-06 0.000000000000D+00  7 -2 2 23 -13 13 23 21 2 0.12195995D-01 0.24861332D+00 0.30642905D+05 0.30642905D+05 0.30642905D+05 0.11664825D+01  1  2  4  1  7  1       -2 -.624152619000D-03 0.100000000000D+01
-.144610213961D-04 0.000000000000D+00 -.414832270868D-05 0.460730005786D-06 0.000000000000D+00  7 -2 2 23 -13 13 23 21 2 0.13892740D-01 0.24861332D+00 0.30642905D+05 0.30642905D+05 0.30642905D+05 0.11664825D+01  1  2  5  1  7  1       -2 -.104567993552D-02 0.100000000000D+01
0.149096551485D-04 0.000000000000D+00 0.411337678906D-05 0.460730005786D-06 0.000000000000D+00  7 -2 2 23 -13 13 23 21 2 0.12195995D-01 0.24861332D+00 0.30642905D+05 0.30642905D+05 0.30642905D+05 0.11664825D+01  1  2  6  1  7  1       -2 0.132007664113D-02 0.100000000000D+01
0.120636661824D-06 0.000000000000D+00 0.000000000000D+00 0.460730005786D-06 0.000000000000D+00  7 21 2 23 -13 13 23 2 2 0.13534295D-01 0.24861332D+00 0.38740437D+05 0.38740437D+05 0.38740437D+05 0.11571712D+01  1  2 12  3  7  1       -2 0.125624607094D-03 0.100000000000D+01
-.271540855099D-06 0.000000000000D+00 -.842914087731D-07 0.460730005786D-06 0.000000000000D+00  7 21 2 23 -13 13 23 2 2 0.13892740D-01 0.24861332D+00 0.30642905D+05 0.30642905D+05 0.30642905D+05 0.11664825D+01  1  2  5  3  7  1       -2 -.277036481466D-03 0.100000000000D+01
  </mgrwgt>
  </event>
  <event>
  9     66 0.27870365E-05 0.40132825E+03 0.75467711E-02 0.90360680E-01
       -2 -1    0    0    0  501 0.00000000E+00 0.00000000E+00 0.60640873E+03 0.60640882E+03 0.32000000E+00 0.0000E+00 0.9000E+01
        2 -1    0    0  502    0 0.00000000E+00 0.00000000E+00 -.13677461E+04 0.13677461E+04 0.32000000E+00 0.0000E+00 0.9000E+01
       25  2    1    2    0    0 0.26268681E+03 -.45966860E+03 0.12927036E+03 0.62146665E+03 0.29868107E+03 0.0000E+00 0.0000E+00
       23  2    3    3    0    0 0.64726553E+02 -.19577999E+03 0.16319772E+03 0.27753092E+03 0.88716332E+02 0.0000E+00 0.0000E+00
       23  1    1    2    0    0 -.38967369E+03 -.39943123E+02 -.69173629E+03 0.80015960E+03 0.91188000E+02 0.0000E+00 0.9000E+01
      -11  1    4    4    0    0 0.16147440E+02 -.16478521E+03 0.13357922E+03 0.21274002E+03 0.51099893E-03 0.0000E+00 0.9000E+01
       11  1    4    4    0    0 0.48579112E+02 -.30994776E+02 0.29618499E+02 0.64790908E+02 0.51099893E-03 0.0000E+00 0.9000E+01
       23  1    3    3    0    0 0.19796026E+03 -.26388861E+03 -.33927362E+02 0.34393572E+03 0.91188000E+02 0.0000E+00 0.9000E+01
       21  1    1    2  502  501 0.12698688E+03 0.49961172E+03 -.19887140E+03 0.55252867E+03 0.75000000E+00 0.0000E+00 0.9000E+01
#aMCatNLO 2  0  0  2  2 0.51549737D+03 0.00000000D+00  -5  7  0 0.00000000D+00 0.00000000D+00 0.00000000D+00 0.00000000D+00 0.00000000D+00
  <mgrwgt>
 0.3688648395D-04    1    2    0
 0.599774063878575D+03 0.000000000000000D+00 0.000000000000000D+00 0.599774063878575D+03
 0.599774063878575D+03 0.000000000000000D+00 0.000000000000000D+00 -.599774063878575D+03
 0.566055061497111D+03 -.331922403251024D+03 0.187271051586076D+03 -.408485192828832D+03
 0.247837026624022D+03 0.433691723424642D+02 -.576851983812419D+02 0.237096445658476D+03
 0.829073925159967D+02 0.570045108418671D+02 0.215375208261591D+01 0.601621378397379D+02
 0.302748647120021D+03 0.231548720066693D+03 -.131739605287450D+03 0.111226609330618D+03
 0.000000000000000D+00 0.000000000000000D+00 0.000000000000000D+00 0.000000000000000D+00
 0.921529368981462D+03 0.000000000000000D+00 0.000000000000000D+00 0.921529368981462D+03
 0.900039445816406D+03 0.000000000000000D+00 0.000000000000000D+00 -.900039445816406D+03
 0.573250764712728D+03 -.389673686694723D+03 -.399431225251904D+02 -.408485192828832D+03
 0.289187881679549D+03 0.161474404928691D+02 -.164785213329204D+03 0.237096445658476D+03
 0.833071970164956D+02 0.485791121019146D+02 -.309947755708472D+02 0.601621378397379D+02
 0.359877859196164D+03 0.197960257422840D+03 -.263888612966742D+03 0.111226609330618D+03
 0.515945112192932D+03 0.126986876677099D+03 0.499611724391984D+03 0.214899231650552D+02
0.175854151158D-04 0.000000000000D+00 0.000000000000D+00 0.856711470266D-07 0.219782240592D-11  7 -2 2 23 -11 11 23 21 2 0.93293633D-01 0.21042242D+00 0.54992916D+06 0.54992916D+06 0.54992916D+06 0.10656011D+01  1  2  1  2  7  2        2 0.368864839503D-04 0.100000000000D+01
  </mgrwgt>
  </event>
  <event>
  8     66 0.27870365E-05 0.14207518E+03 0.75467711E-02 0.93211971E-01
       -2 -1    0    0    0  501 0.00000000E+00 0.00000000E+00 0.13753642E+03 0.13753679E+03 0.32000000E+00 0.0000E+00 0.9000E+01
        2 -1    0    0  501    0 0.00000000E+00 0.00000000E+00 -.42480455E+03 0.42480468E+03 0.32000000E+00 0.0000E+00 0.9000E+01
       25  2    1    2    0    0 0.44114436E+02 0.17569596E+01 -.33253522E+03 0.45137512E+03 0.30201101E+03 0.0000E+00 0.0000E+00
       23  2    3    3    0    0 0.31042956E+02 -.53991238E+02 -.72736468E+01 0.10875423E+03 0.88858642E+02 0.0000E+00 0.0000E+00
       23  1    1    2    0    0 -.44114436E+02 -.17569596E+01 0.45267086E+02 0.11096635E+03 0.91188000E+02 0.0000E+00 0.9000E+01
      -13  1    4    4    0    0 0.34515834E+01 -.46422767E+02 -.42733470E+02 0.63191355E+02 0.10565837E+00 0.0000E+00 0.9000E+01
       13  1    4    4    0    0 0.27591372E+02 -.75684716E+01 0.35459823E+02 0.45562878E+02 0.10565837E+00 0.0000E+00 0.9000E+01
       23  1    3    3    0    0 0.13071481E+02 0.55748198E+02 -.32526158E+03 0.34262088E+03 0.91188000E+02 0.0000E+00 0.9000E+01
#aMCatNLO 1  0  0  2  2 0.53726952D+03 0.00000000D+00  -5  7  0 0.00000000D+00 0.00000000D+00 0.00000000D+00 0.00000000D+00 0.00000000D+00
  <mgrwgt>
 0.3894748736D-03    3    2    0
 0.241715194785246D+03 0.000000000000000D+00 0.000000000000000D+00 0.241715194785246D+03
 0.241715194785246D+03 0.000000000000000D+00 0.000000000000000D+00 -.241715194785246D+03
 0.155978611007502D+03 -.441144624542488D+02 -.175696059697859D+01 0.118595543928358D+03
 0.481126912289009D+02 0.345155422363918D+01 -.464228144249523D+02 -.121589527343135D+02
 0.740714021949188D+02 0.275914046932782D+02 -.756839695521017D+01 0.683228100834672D+02
 0.205267685139171D+03 0.130715035373313D+02 0.557481719771411D+02 -.174759401277512D+03
 0.000000000000000D+00 0.000000000000000D+00 0.000000000000000D+00 0.000000000000000D+00
 0.102644771790182D+04 0.000000000000000D+00 0.000000000000000D+00 0.102644771790182D+04
 0.469879738898536D+03 0.000000000000000D+00 0.000000000000000D+00 -.469879738898536D+03
 0.280748967848241D+03 -.230598405974467D+03 -.571332103616172D+02 0.118595543928358D+03
 0.829397057439885D+02 -.525081995874523D+02 -.630400161277613D+02 -.121589527343135D+02
 0.837384303873997D+02 -.397938517709966D+02 -.275783920356465D+02 0.683228100834672D+02
 0.275320070929587D+03 -.192140862931601D+03 -.518946718826042D+01 -.174759401277512D+03
 0.773580281891137D+03 0.515041320264516D+03 0.152941085713285D+03 0.556567979003280D+03
0.235285910510D-05 0.000000000000D+00 0.000000000000D+00 0.379159728518D-08 0.000000000000D+00  7 -2 2 23 -13 13 23 21 0 0.21159487D-01 0.65354585D-01 0.20185357D+05 0.20185357D+05 0.20185357D+05 0.11836471D+01  1  2  2  2  7  2        2 0.376514190186D-03 0.100000000000D+01
-.858342518808D-07 0.000000000000D+00 -.903559848562D-08 0.379159728518D-08 0.000000000000D+00  7 -2 2 23 -13 13 23 21 2 0.21159487D-01 0.65354585D-01 0.20185357D+05 0.20185357D+05 0.20185357D+05 0.11836471D+01  1  2  3  2  7  2        2 -.192437866105D-04 0.100000000000D+01
0.143643589952D-06 0.000000000000D+00 0.000000000000D+00 0.379159728518D-08 0.000000000000D+00  7 -2 2 23 -13 13 23 21 2 0.21159487D-01 0.65354585D-01 0.20185357D+05 0.20185357D+05 0.20185357D+05 0.11836471D+01  1  2 15  2  7  2        2 0.322044700390D-04 0.100000000000D+01
  </mgrwgt>
  </event>
  <event>
  8     66 0.27870365E-05 0.35686820E+03 0.75467711E-02 0.94562581E-01
       -2 -1    0    0    0  501 0.00000000E+00 0.00000000E+00 0.20309256E+03 0.20309281E+03 0.32000000E+00 0.0000E+00 0.9000E+01
        2 -1    0    0  501    0 0.00000000E+00 0.00000000E+00 -.15180175E+04 0.15180175E+04 0.32000000E+00 0.0000E+00 0.9000E+01
       25  2    1    2    0    0 0.19446839E+03 -.23831959E+03 -.13322808E+04 0.13998151E+04 0.29982640E+03 0.0000E+00 0.0000E+00
       23  2    3    3    0    0 0.20270678E+03 -.13949611E+03 -.59600826E+03 0.65131892E+03 0.91876490E+02 0.0000E+00 0.0000E+00
       23  1    1    2    0    0 -.19446839E+03 0.23831959E+03 0.17355862E+02 0.32129528E+03 0.91188000E+02 0.0000E+00 0.9000E+01
      -11  1    4    4    0    0 0.20678696E+03 -.14409740E+03 -.55120523E+03 0.60609580E+03 0.51099893E-03 0.0000E+00 0.9000E+01
       11  1    4    4    0    0 -.40801812E+01 0.46012880E+01 -.44803031E+02 0.45223128E+02 0.51099893E-03 0.0000E+00 0.9000E+01
       23  1    3    3    0    0 -.82383852E+01 -.98823472E+02 -.73627256E+03 0.74849615E+03 0.91188000E+02 0.0000E+00 0.9000E+01
#aMCatNLO 1  0  0  2  1 0.27712432D+03 0.00000000D+00  -5  7  0 0.00000000D+00 0.00000000D+00 0.00000000D+00 0.00000000D+00 0.00000000D+00
  <mgrwgt>
 0.7941203289D-03    4    2    0
 0.555246163119662D+03 0.000000000000000D+00 0.000000000000000D+00 0.555246163119662D+03
 0.555246163119662D+03 0.000000000000000D+00 0.000000000000000D+00 -.555246163119662D+03
 0.518514429208797D+03 -.194468394718557D+03 0.238319585764939D+03 0.407342338150774D+03
 0.286687471009149D+03 0.206786961088131D+03 -.144097401650937D+03 -.136619169939676D+03
 0.170387221519736D+02 -.408018115938242D+01 0.460128796389971D+01 -.158901958248490D+02
 0.288251703869404D+03 -.823838521019219D+01 -.988234720779011D+02 -.254832972386250D+03
 0.000000000000000D+00 -.000000000000000D+00 0.000000000000000D+00 0.000000000000000D+00
 0.920949745444460D+03 0.000000000000000D+00 0.000000000000000D+00 0.920949745444460D+03
 0.627338218982765D+03 0.000000000000000D+00 0.000000000000000D+00 -.627338218982765D+03
 0.459342041068353D+03 -.139572588138554D+03 0.131421351153478D+03 0.407342338150774D+03
 0.351041329368698D+03 0.242588367470519D+03 -.213813239295244D+03 -.136619169939676D+03
 0.160746778604128D+02 -.222123063081351D+01 0.981366113503859D+00 -.158901958248490D+02
 0.318090375634319D+03 0.258010045463835D+02 -.165108146608120D+03 -.254832972386250D+03
 0.403739540495442D+03 -.126595553247536D+03 0.246518668636382D+03 0.293611526461695D+03
0.583166110247D-04 0.000000000000D+00 0.000000000000D+00 0.241832684030D-05 0.000000000000D+00  7 -2 2 23 -11 11 23 21 0 0.31245030D-01 0.23354118D+00 0.12735491D+06 0.12735491D+06 0.12735491D+06 0.11132048D+01  1  2  2  2  7  2        2 0.878577964106D-03 0.100000000000D+01
-.247008902529D-05 0.000000000000D+00 -.223951141451D-06 0.241832684030D-05 0.000000000000D+00  7 -2 2 23 -11 11 23 21 2 0.31245030D-01 0.23354118D+00 0.12735491D+06 0.12735491D+06 0.12735491D+06 0.11132048D+01  1  2  3  2  7  2        2 -.461159113312D-04 0.100000000000D+01
0.355982497665D-05 0.000000000000D+00 0.000000000000D+00 0.241832684030D-05 0.000000000000D+00  7 -2 2 23 -11 11 23 21 2 0.31245030D-01 0.23354118D+00 0.12735491D+06 0.12735491D+06 0.12735491D+06 0.11132048D+01  1  2 15  2  7  2        2 0.664609944407D-04 0.100000000000D+01
-.561350815592D-05 0.000000000000D+00 0.000000000000D+00 0.241832684030D-05 0.000000000000D+00  7 -2 2 23 -11 11 23 21 2 0.31245030D-01 0.23354118D+00 0.12735491D+06 0.12735491D+06 0.12735491D+06 0.11132048D+01  1  2  4  2  7  2        2 -.104802718333D-03 0.100000000000D+01
  </mgrwgt>
  </event>
  <event>
  8     66 0.27870365E-05 0.51719772E+03 0.75467711E-02 0.86844729E-01
       -2 -1    0    0    0  501 0.00000000E+00 0.00000000E+00 0.11120011E+04 0.11120012E+04 0.32000000E+00 0.0000E+00 0.9000E+01
        2 -1    0    0  501    0 0.00000000E+00 0.00000000E+00 -.59268645E+03 0.59268654E+03 0.32000000E+00 0.0000E+00 0.9000E+01
       25  2    1    2    0    0 -.48277083E+03 -.81174526E+01 0.91423558E+03 0.10742820E+04 0.29175598E+03 0.0000E+00 0.0000E+00
       23  2    3    3    0    0 -.20354062E+03 -.79426837E+02 0.55244031E+03 0.60283146E+03 0.10236245E+03 0.0000E+00 0.0000E+00
       23  1    1    2    0    0 0.48277083E+03 0.81174526E+01 -.39492091E+03 0.63040570E+03 0.91188000E+02 0.0000E+00 0.9000E+01
      -11  1    4    4    0    0 -.17709245E+02 -.49434117E+02 0.13772422E+03 0.14739509E+03 0.51099893E-03 0.0000E+00 0.9000E+01
       11  1    4    4    0    0 -.18583137E+03 -.29992719E+02 0.41471608E+03 0.45543637E+03 0.51099893E-03 0.0000E+00 0.9000E+01
       23  1    3    3    0    0 -.27923021E+03 0.71309384E+02 0.36179527E+03 0.47145054E+03 0.91188000E+02 0.0000E+00 0.9000E+01
#aMCatNLO 1  0  0  1  1 0.89820241D+03 0.00000000D+00  -5  7  0 0.00000000D+00 0.00000000D+00 0.00000000D+00 0.00000000D+00 0.00000000D+00
  <mgrwgt>
 0.7082673951D-02    3    2    0
 0.811830096640384D+03 0.000000000000000D+00 0.000000000000000D+00 0.811830096640384D+03
 0.811830096640384D+03 0.000000000000000D+00 0.000000000000000D+00 -.811830096640384D+03
 0.788177887930548D+03 0.482770827309987D+03 0.811745263085259D+01 -.616259334160446D+03
 0.110700737120553D+03 -.177092451585146D+02 -.494341174264305D+02 0.974541116075623D+02
 0.345520965938853D+03 -.185831370264861D+03 -.299927191819399D+02 0.289744502147798D+03
 0.379260602290815D+03 -.279230211886612D+03 0.713093839775178D+02 0.229060720405086D+03
 0.000000000000000D+00 0.000000000000000D+00 -.000000000000000D+00 -.000000000000000D+00
 0.112346853354095D+04 0.000000000000000D+00 0.000000000000000D+00 0.112346853354095D+04
 0.195840500222757D+04 0.000000000000000D+00 0.000000000000000D+00 -.195840500222757D+04
 0.645509661988097D+03 0.127313003146677D+03 0.111280297743518D+03 -.616259334160446D+03
 0.128296706561006D+03 -.769644931492366D+02 -.322367467257903D+02 0.974541116075623D+02
 0.488969254009812D+03 -.392728666600695D+03 0.300541057440932D+02 0.289744502147798D+03
 0.592767421993686D+03 -.520227608116729D+03 0.141252919805894D+03 0.229060720405086D+03
 0.122633049121592D+04 0.862607764719984D+03 -.250350576567715D+03 -.834936468686625D+03
0.550694819777D-02 0.000000000000D+00 0.000000000000D+00 0.218359467970D-09 0.000000000000D+00  7 -2 2 23 -11 11 23 21 0 0.17107711D+00 0.91182541D-01 0.26749348D+06 0.26749348D+06 0.26749348D+06 0.10882562D+01  1  2  2  1  7  1       -2 0.693122941978D-02 0.100000000000D+01
-.230325398886D-03 0.000000000000D+00 -.211481310922D-04 0.218359467970D-09 0.000000000000D+00  7 -2 2 23 -11 11 23 21 2 0.17107711D+00 0.91182541D-01 0.26749348D+06 0.26749348D+06 0.26749348D+06 0.10882562D+01  1  2  3  1  7  1       -2 -.343323427478D-03 0.100000000000D+01
0.331924996213D-03 0.000000000000D+00 0.000000000000D+00 0.218359467970D-09 0.000000000000D+00  7 -2 2 23 -11 11 23 21 2 0.17107711D+00 0.91182541D-01 0.26749348D+06 0.26749348D+06 0.26749348D+06 0.10882562D+01  1  2 15  1  7  1       -2 0.494767958362D-03 0.100000000000D+01
  </mgrwgt>
  </event>
  <event>
  8     66 0.27870365E-05 0.26708888E+03 0.75467711E-02 0.10092272E+00
       -2 -1    0    0    0  501 0.00000000E+00 0.00000000E+00 0.17480876E+03 0.17480905E+03 0.32000000E+00 0.0000E+00 0.9000E+01
        2 -1    0    0  501    0 0.00000000E+00 0.00000000E+00 -.94517963E+03 0.94517969E+03 0.32000000E+00 0.0000E+00 0.9000E+01
       25  2    1    2    0    0 0.70607238E+02 0.15418958E+03 -.19785718E+02 0.34509963E+03 0.29990411E+03 0.0000E+00 0.0000E+00
       23  2    3    3    0    0 0.11890338E+03 -.11193232E+02 -.51862027E+01 0.14961974E+03 0.89977035E+02 0.0000E+00 0.0000E+00
       23  1    1    2    0    0 -.70607238E+02 -.15418958E+03 -.75058515E+03 0.77488911E+03 0.91188000E+02 0.0000E+00 0.9000E+01
      -13  1    4    4    0    0 0.68467809E+02 0.36232456E+02 -.17209123E+02 0.79352359E+02 0.10565837E+00 0.0000E+00 0.9000E+01
       13  1    4    4    0    0 0.50435574E+02 -.47425688E+02 0.12022920E+02 0.70267381E+02 0.10565837E+00 0.0000E+00 0.9000E+01
       23  1    3    3    0    0 -.48296144E+02 0.16538281E+03 -.14599515E+02 0.19547989E+03 0.91188000E+02 0.0000E+00 0.9000E+01
#aMCatNLO 1  0  0  1  1 0.61035362D+02 0.00000000D+00  -5  7  0 0.00000000D+00 0.00000000D+00 0.00000000D+00 0.00000000D+00 0.00000000D+00
  <mgrwgt>
 0.4988547557D-03    3    2    0
 0.406479857044659D+03 0.000000000000000D+00 0.000000000000000D+00 0.406479857044659D+03
 0.406479857044659D+03 0.000000000000000D+00 0.000000000000000D+00 -.406479857044659D+03
 0.356276126142962D+03 -.706072383628909D+02 -.154189575881530D+03 -.299762604898736D+03
 0.930136174261354D+02 0.684678336294756D+02 0.362325714606804D+02 0.514867900546209D+02
 0.108198226857965D+03 0.504355490324986D+02 -.474258034612815D+02 0.831498938968053D+02
 0.255471743662255D+03 -.482961442990833D+02 0.165382807882131D+03 0.165125920947310D+03
 0.000000000000000D+00 0.000000000000000D+00 -.000000000000000D+00 -.000000000000000D+00
 0.409630877905128D+03 0.000000000000000D+00 0.000000000000000D+00 0.409630877905128D+03
 0.871657674678304D+03 0.000000000000000D+00 0.000000000000000D+00 -.871657674678304D+03
 0.352603138304660D+03 -.890167032492177D+02 -.135026401289749D+03 -.299762604898736D+03
 0.916759066085317D+02 0.636714804589001D+02 0.412252941595270D+02 0.514867900546209D+02
 0.103311711349073D+03 0.449426746097070D+02 -.417080429383853D+02 0.831498938968053D+02
 0.267656943627341D+03 -.618817006592236D+02 0.179524576263960D+03 0.165125920947310D+03
 0.466040852693826D+03 0.422842488398341D+02 -.440154261953531D+02 -.462026796773175D+03
0.115834930279D-04 0.000000000000D+00 0.000000000000D+00 0.572733732721D-06 0.000000000000D+00  7 -2 2 23 -13 13 23 21 0 0.26893682D-01 0.14541228D+00 0.71336469D+05 0.71336469D+05 0.71336469D+05 0.11339620D+01  1  2  2  1  7  1       -2 0.487022141942D-03 0.100000000000D+01
-.505536728250D-06 0.000000000000D+00 -.444836632309D-07 0.572733732721D-06 0.000000000000D+00  7 -2 2 23 -13 13 23 21 2 0.26893682D-01 0.14541228D+00 0.71336469D+05 0.71336469D+05 0.71336469D+05 0.11339620D+01  1  2  3  1  7  1       -2 -.273312135948D-04 0.100000000000D+01
0.724400805927D-06 0.000000000000D+00 0.000000000000D+00 0.572733732721D-06 0.000000000000D+00  7 -2 2 23 -13 13 23 21 2 0.26893682D-01 0.14541228D+00 0.71336469D+05 0.71336469D+05 0.71336469D+05 0.11339620D+01  1  2 15  1  7  1       -2 0.391638273713D-04 0.100000000000D+01
  </mgrwgt>
  </event>
  <event>
  7     66 0.27870365E-05 0.20376271E+03 0.75467711E-02 0.91262663E-01
       -2 -1    0    0    0  501 0.00000000E+00 0.00000000E+00 0.41213828E+03 0.41213841E+03 0.32000000E+00 0.0000E+00 0.9000E+01
        2 -1    0    0  501    0 0.00000000E+00 0.00000000E+00 -.39038051E+03 0.39038064E+03 0.32000000E+00 0.0000E+00 0.9000E+01
       25  2    1    2    0    0 -.47914925E+02 -.32021562E+02 0.34555608E+03 0.46122473E+03 0.29999671E+03 0.0000E+00 0.0000E+00
       23  1    1    2    0    0 0.47914925E+02 0.32021562E+02 -.32379830E+03 0.34129432E+03 0.91188000E+02 0.0000E+00 0.9000E+01
      -13  1    3    3    0    0 -.69758849E+01 0.37998850E+02 0.53073212E+02 0.65645659E+02 0.10565837E+00 0.0000E+00 0.9000E+01
       13  1    3    3    0    0 0.45294267E+02 -.11820229E+03 0.10269771E+03 0.16300363E+03 0.10565837E+00 0.0000E+00 0.9000E+01
       23  1    3    3    0    0 -.86233307E+02 0.48181883E+02 0.18978516E+03 0.23257544E+03 0.91188000E+02 0.0000E+00 0.9000E+01
#aMCatNLO 1  0  0  2  2 0.63577252D+03 0.00000000D+00  -5  7  0 0.00000000D+00 0.00000000D+00 0.00000000D+00 0.00000000D+00 0.00000000D+00
  <mgrwgt>
 0.1084465582D-02    3    2    0
 0.401112021431152D+03 0.000000000000000D+00 0.000000000000000D+00 0.401112021431152D+03
 0.401112021431152D+03 0.000000000000000D+00 0.000000000000000D+00 -.401112021431152D+03
 0.350201820595389D+03 0.479149248373373D+02 0.320215619659765D+02 -.333173893562230D+03
 0.642296597289024D+02 -.697564616190389D+01 0.379984738259108D+02 0.513118459657814D+02
 0.160278074397969D+03 0.452945165308510D+02 -.118202271747507D+03 0.983142454514384D+02
 0.227514488140044D+03 -.862337952062844D+02 0.481822359556199D+02 0.183547802145010D+03
 0.000000000000000D+00 -.000000000000000D+00 0.000000000000000D+00 0.000000000000000D+00
 0.479840517469503D+04 0.000000000000000D+00 0.000000000000000D+00 0.479840517469503D+04
 0.535377053542319D+03 0.000000000000000D+00 0.000000000000000D+00 -.535377053542319D+03
 0.451586818333602D+03 0.226311746938231D+03 -.182739029752857D+03 -.333173893562230D+03
 0.552574304541404D+02 0.196100600152393D+02 0.599363246927929D+01 0.513118459657814D+02
 0.299504104303513D+03 0.147595391794605D+03 -.241355791223168D+03 0.983142454514384D+02
 0.217258071413690D+03 0.127274613264284D+02 -.709509288615477D+02 0.183547802145010D+03
 0.431017580373241D+04 -.406244660074503D+03 0.489052117368293D+03 0.426302812115272D+04
0.432771485404D-04 0.000000000000D+00 0.000000000000D+00 0.115530437671D-08 0.000000000000D+00  7 -2 2 23 -13 13 23 21 0 0.63405909D-01 0.60058559D-01 0.41519241D+05 0.41519241D+05 0.41519241D+05 0.11544639D+01  1  2  2  2  7  2        2 0.103429134166D-02 0.100000000000D+01
-.106334380599D-05 0.000000000000D+00 -.166195645530D-06 0.115530437671D-08 0.000000000000D+00  7 -2 2 23 -13 13 23 21 2 0.63405909D-01 0.60058559D-01 0.41519241D+05 0.41519241D+05 0.41519241D+05 0.11544639D+01  1  2  3  2  7  2        2 -.338702737522D-04 0.100000000000D+01
0.263854417620D-05 0.000000000000D+00 0.000000000000D+00 0.115530437671D-08 0.000000000000D+00  7 -2 2 23 -13 13 23 21 2 0.63405909D-01 0.60058559D-01 0.41519241D+05 0.41519241D+05 0.41519241D+05 0.11544639D+01  1  2 15  2  7  2        2 0.840445141558D-04 0.100000000000D+01
  </mgrwgt>
  </event>
  <event>
  8     66 0.27870365E-05 0.17297790E+03 0.75467711E-02 0.96023666E-01
       -2 -1    0    0    0  501 0.00000000E+00 0.00000000E+00 0.39371285E+02 0.39372585E+02 0.32000000E+00 0.0000E+00 0.9000E+01
        2 -1    0    0  501    0 0.00000000E+00 0.00000000E+00 -.12831038E+04 0.12831038E+04 0.32000000E+00 0.0000E+00 0.9000E+01
       25  2    1    2    0    0 0.17465015E+00 0.11377838E+02 -.62457217E+03 0.69653372E+03 0.30812228E+03 0.0000E+00 0.0000E+00
       23  2    3    3    0    0 -.10029157E+02 0.95451994E+02 -.12827366E+03 0.18486973E+03 0.92255171E+02 0.0000E+00 0.0000E+00
       23  1    1    2    0    0 -.17465015E+00 -.11377838E+02 -.61916034E+03 0.62594270E+03 0.91188000E+02 0.0000E+00 0.9000E+01
      -13  1    4    4    0    0 -.48106231E+02 0.64949050E+02 -.99640460E+02 0.12829973E+03 0.10565837E+00 0.0000E+00 0.9000E+01
       13  1    4    4    0    0 0.38077073E+02 0.30502944E+02 -.28633203E+02 0.56569997E+02 0.10565837E+00 0.0000E+00 0.9000E+01
       23  1    3    3    0    0 0.10203808E+02 -.84074156E+02 -.49629850E+03 0.51166399E+03 0.91188000E+02 0.0000E+00 0.9000E+01
#aMCatNLO 1  0  0  1  2 0.37134277D+03 0.00000000D+00  -5  7  0 0.00000000D+00 0.00000000D+00 0.00000000D+00 0.00000000D+00 0.00000000D+00
  <mgrwgt>
 0.5370507037D-03    3    2    0
 0.224762833280707D+03 0.000000000000000D+00 0.000000000000000D+00 0.224762833280707D+03
 0.224762833280707D+03 0.000000000000000D+00 0.000000000000000D+00 -.224762833280707D+03
 0.128415019597143D+03 -.174657659321306D+00 -.113783265539813D+02 -.896976537801719D+02
 0.101767362951595D+03 -.481062164687889D+02 0.649481762457349D+02 0.618394898227063D+02
 0.872042057050686D+02 0.380772664614668D+02 0.305023200055529D+02 0.722793452222226D+02
 0.132139078307607D+03 0.102036076666435D+02 -.840721696973064D+02 -.444211812647570D+02
 0.000000000000000D+00 -.000000000000000D+00 -.000000000000000D+00 -.000000000000000D+00
 0.379886825260177D+03 0.000000000000000D+00 0.000000000000000D+00 0.379886825260177D+03
 0.681719167522301D+03 0.000000000000000D+00 0.000000000000000D+00 -.681719167522301D+03
 0.161719146869494D+03 0.900546935640118D+02 0.410160236203028D+02 -.896976537801719D+02
 0.124576040413649D+03 0.222847295133541D+02 0.105822767749323D+03 0.618394898227063D+02
 0.152964692817135D+03 0.112767828285294D+03 0.738736110306361D+02 0.722793452222226D+02
 0.143808534354017D+03 0.960210567637634D+02 -.342397214075135D+02 -.444211812647570D+02
 0.478537578328184D+03 -.321128308126424D+03 -.186472680992748D+03 -.301832342262124D+03
0.188854103749D-05 0.000000000000D+00 0.000000000000D+00 0.423938137803D-08 0.000000000000D+00  7 -2 2 23 -13 13 23 21 0 0.60572238D-02 0.19740069D+00 0.29921354D+05 0.29921354D+05 0.29921354D+05 0.11674417D+01  1  2  2  1  7  1       -2 0.529478350338D-03 0.100000000000D+01
-.961701871383D-07 0.000000000000D+00 -.725249484825D-08 0.423938137803D-08 0.000000000000D+00  7 -2 2 23 -13 13 23 21 2 0.60572238D-02 0.19740069D+00 0.29921354D+05 0.29921354D+05 0.29921354D+05 0.11674417D+01  1  2  3  1  7  1       -2 -.367479104059D-04 0.100000000000D+01
0.115987222535D-06 0.000000000000D+00 0.000000000000D+00 0.423938137803D-08 0.000000000000D+00  7 -2 2 23 -13 13 23 21 2 0.60572238D-02 0.19740069D+00 0.29921354D+05 0.29921354D+05 0.29921354D+05 0.11674417D+01  1  2 15  1  7  1       -2 0.443202637820D-04 0.100000000000D+01
  </mgrwgt>
  </event>
  <event>
  8     66 0.27870365E-05 0.16206789E+03 0.75467711E-02 0.10398076E+00
       -2 -1    0    0    0  501 0.00000000E+00 0.00000000E+00 0.40285784E+02 0.40287055E+02 0.32000000E+00 0.0000E+00 0.9000E+01
        2 -1    0    0  501    0 0.00000000E+00 0.00000000E+00 -.10581939E+04 0.10581940E+04 0.32000000E+00 0.0000E+00 0.9000E+01
       25  2    1    2    0    0 -.58519449E+02 0.42749016E+01 -.73115687E+03 0.79191237E+03 0.29848288E+03 0.0000E+00 0.0000E+00
       23  2    3    3    0    0 -.10517740E+03 -.24839484E+02 -.17358979E+03 0.22426731E+03 0.92103890E+02 0.0000E+00 0.0000E+00
       23  1    1    2    0    0 0.58519449E+02 -.42749016E+01 -.28675127E+03 0.30656866E+03 0.91188000E+02 0.0000E+00 0.9000E+01
      -13  1    4    4    0    0 -.64267475E+02 -.23006740E+02 -.16995989E+03 0.18315566E+03 0.10565837E+00 0.0000E+00 0.9000E+01
       13  1    4    4    0    0 -.40909920E+02 -.18327442E+01 -.36298950E+01 0.41111651E+02 0.10565837E+00 0.0000E+00 0.9000E+01
       23  1    3    3    0    0 0.46657946E+02 0.29114386E+02 -.55756708E+03 0.56764506E+03 0.91188000E+02 0.0000E+00 0.9000E+01
#aMCatNLO 1  0  0  1  2 0.12096654D+03 0.00000000D+00  -5  7  0 0.00000000D+00 0.00000000D+00 0.00000000D+00 0.00000000D+00 0.00000000D+00
  <mgrwgt>
 0.1320606199D-02    7    2    0
 0.206472507920502D+03 0.000000000000000D+00 0.000000000000000D+00 0.206472507920502D+03
 0.206472507920502D+03 0.000000000000000D+00 0.000000000000000D+00 -.206472507920502D+03
 0.108666864510457D+03 0.585196082640919D+02 -.427491325883099D+01 -.710046926482596D+01
 0.682644081146676D+02 -.642675308887424D+02 -.230067582339162D+02 -.634794672754971D+00
 0.100414034379271D+03 -.409099075280117D+02 -.183270330053449D+01 0.916842350951521D+02
 0.135599708836609D+03 0.466578301526623D+02 0.291143747932816D+02 -.839489711575712D+02
 0.000000000000000D+00 0.000000000000000D+00 0.000000000000000D+00 0.000000000000000D+00
 0.282324316781298D+03 0.000000000000000D+00 0.000000000000000D+00 0.282324316781298D+03
 0.269607019044007D+03 0.000000000000000D+00 0.000000000000000D+00 -.269607019044007D+03
 0.100774592048660D+03 0.352913631675655D+02 -.233317397672816D+02 -.710046926482596D+01
 0.899625469810216D+02 -.818157973791559D+02 -.374036387835310D+02 -.634794672754971D+00
 0.114239181527813D+03 -.647161662876761D+02 -.213637415306266D+02 0.916842350951521D+02
 0.125321820788149D+03 0.177201530535074D+02 0.537343828496878D+01 -.839489711575712D+02
 0.121633194479661D+03 0.935204474457591D+02 0.767256817964705D+02 0.127172977372904D+02
0.353143362579D-05 0.000000000000D+00 0.000000000000D+00 0.756021831935D-08 0.000000000000D+00  7 -2 2 23 -13 13 23 21 0 0.61979144D-02 0.16279917D+00 0.26265999D+05 0.26265999D+05 0.26265999D+05 0.11727301D+01  1  2  2  1  7  1       -2 0.127630756254D-02 0.100000000000D+01
-.182203386402D-06 0.000000000000D+00 -.135616349708D-07 0.756021831935D-08 0.000000000000D+00  7 -2 2 23 -13 13 23 21 2 0.61979144D-02 0.16279917D+00 0.26265999D+05 0.26265999D+05 0.26265999D+05 0.11727301D+01  1  2  3  1  7  1       -2 -.905642743160D-04 0.100000000000D+01
0.231606196301D-06 0.000000000000D+00 0.000000000000D+00 0.756021831935D-08 0.000000000000D+00  7 -2 2 23 -13 13 23 21 2 0.61979144D-02 0.16279917D+00 0.26265999D+05 0.26265999D+05 0.26265999D+05 0.11727301D+01  1  2 15  1  7  1       -2 0.115119962967D-03 0.100000000000D+01
-.116905572491D-05 0.000000000000D+00 0.000000000000D+00 0.756021831935D-08 0.000000000000D+00  7 -2 2 23 -13 13 23 21 2 0.61979144D-02 0.16279917D+00 0.26265999D+05 0.26265999D+05 0.26265999D+05 0.11727301D+01  1  2  4  1  7  1       -2 -.581079668452D-03 0.100000000000D+01
-.946049195062D-06 0.000000000000D+00 -.122211505047D-05 0.756021831935D-08 0.000000000000D+00  7 -2 2 23 -13 13 23 21 2 0.11214666D-01 0.16279917D+00 0.26265999D+05 0.26265999D+05 0.26265999D+05 0.11727301D+01  1  2  5  1  7  1       -2 -.193240547285D-03 0.100000000000D+01
0.157328190713D-05 0.000000000000D+00 0.103477552684D-05 0.756021831935D-08 0.000000000000D+00  7 -2 2 23 -13 13 23 21 2 0.61979144D-02 0.16279917D+00 0.26265999D+05 0.26265999D+05 0.26265999D+05 0.11727301D+01  1  2  6  1  7  1       -2 0.782000472263D-03 0.100000000000D+01
0.402193307870D-08 0.000000000000D+00 -.793936041517D-07 0.756021831935D-08 0.000000000000D+00  7 21 2 23 -13 13 23 2 2 0.11214666D-01 0.16279917D+00 0.26265999D+05 0.26265999D+05 0.26265999D+05 0.11727301D+01  1  2  5  3  7  1       -2 0.120626910720D-04 0.100000000000D+01
  </mgrwgt>
  </event>
  <event>
  8     66 0.27870365E-05 0.68162168E+03 0.75467711E-02 0.88360071E-01
       -2 -1    0    0    0  501 0.00000000E+00 0.00000000E+00 0.77865834E+03 0.77865840E+03 0.32000000E+00 0.0000E+00 0.9000E+01
        2 -1    0    0  501    0 0.00000000E+00 0.00000000E+00 -.64067658E+03 0.64067666E+03 0.32000000E+00 0.0000E+00 0.9000E+01
       25  2    1    2    0    0 0.59126657E+03 0.26764865E+03 -.10043936E+03 0.72191708E+03 0.29974030E+03 0.0000E+00 0.0000E+00
       23  2    3    3    0    0 0.55014285E+03 0.23742586E+03 -.58118460E+02 0.60917451E+03 0.93207442E+02 0.0000E+00 0.0000E+00
       23  1    1    2    0    0 -.59126657E+03 -.26764865E+03 0.23842112E+03 0.69741798E+03 0.91188000E+02 0.0000E+00 0.9000E+01
      -13  1    4    4    0    0 0.93664490E+02 0.70782546E+02 -.35711654E+02 0.12271324E+03 0.10565837E+00 0.0000E+00 0.9000E+01
       13  1    4    4    0    0 0.45647836E+03 0.16664331E+03 -.22406806E+02 0.48646127E+03 0.10565837E+00 0.0000E+00 0.9000E+01
       23  1    3    3    0    0 0.41123715E+02 0.30222794E+02 -.42320904E+02 0.11274257E+03 0.91188000E+02 0.0000E+00 0.9000E+01
#aMCatNLO 1  0  0  2  2 0.39209007D+03 0.00000000D+00  -5  7  0 0.00000000D+00 0.00000000D+00 0.00000000D+00 0.00000000D+00 0.00000000D+00
  <mgrwgt>
 0.4576009692D-03    7    2    0
 0.706306067365548D+03 0.000000000000000D+00 0.000000000000000D+00 0.706306067365548D+03
 0.706306067365548D+03 0.000000000000000D+00 0.000000000000000D+00 -.706306067365548D+03
 0.677448536975152D+03 -.591266568185882D+03 -.267648652211272D+03 0.171433115881829D+03
 0.126785047984329D+03 0.936640240013213D+02 0.707824225995438D+02 -.478680232640553D+02
 0.490965571812520D+03 0.456478829184222D+03 0.166643435458944D+03 -.700302551061863D+02
 0.117412977959094D+03 0.411237150003386D+02 0.302227941527838D+02 -.535348375115879D+02
 0.000000000000000D+00 -.000000000000000D+00 0.000000000000000D+00 -.000000000000000D+00
 0.905849309675303D+03 0.000000000000000D+00 0.000000000000000D+00 0.905849309675303D+03
 0.955373685010954D+03 0.000000000000000D+00 0.000000000000000D+00 -.955373685010954D+03
 0.568723618385523D+03 -.429318163227722D+03 -.318477478430334D+03 0.171433115881829D+03
 0.150499736424113D+03 0.129699035986578D+03 0.594725405264624D+02 -.478680232640553D+02
 0.616563757007435D+03 0.600409671704822D+03 0.121469567992125D+03 -.700302551061863D+02
 0.130230509651748D+03 0.733066422502612D+02 0.201219202551393D+02 -.535348375115879D+02
 0.395205373217439D+03 -.374097186713939D+03 0.117413449656608D+03 -.495243753356516D+02
0.147800247738D-03 0.000000000000D+00 0.000000000000D+00 0.691374427146D-06 0.000000000000D+00  7 -2 2 23 -13 13 23 21 0 0.11979360D+00 0.98565638D-01 0.46460812D+06 0.46460812D+06 0.46460812D+06 0.10707710D+01  1  2  2  2  7  2        2 0.437643076894D-03 0.100000000000D+01
-.819849070897D-05 0.000000000000D+00 -.567591868011D-06 0.691374427146D-06 0.000000000000D+00  7 -2 2 23 -13 13 23 21 2 0.11979360D+00 0.98565638D-01 0.46460812D+06 0.46460812D+06 0.46460812D+06 0.10707710D+01  1  2  3  2  7  2        2 -.278337710751D-04 0.100000000000D+01
0.941219951985D-05 0.000000000000D+00 0.000000000000D+00 0.691374427146D-06 0.000000000000D+00  7 -2 2 23 -13 13 23 21 2 0.11979360D+00 0.98565638D-01 0.46460812D+06 0.46460812D+06 0.46460812D+06 0.10707710D+01  1  2 15  2  7  2        2 0.319542969612D-04 0.100000000000D+01
-.553483135764D-04 0.000000000000D+00 0.000000000000D+00 0.691374427146D-06 0.000000000000D+00  7 -2 2 23 -13 13 23 21 2 0.11979360D+00 0.98565638D-01 0.46460812D+06 0.46460812D+06 0.46460812D+06 0.10707710D+01  1  2  4  2  7  2        2 -.187906816530D-03 0.100000000000D+01
-.883942065106D-04 0.000000000000D+00 -.535496443514D-04 0.691374427146D-06 0.000000000000D+00  7 -2 2 23 -13 13 23 21 2 0.11979360D+00 0.16062851D+00 0.46460812D+06 0.46460812D+06 0.46460812D+06 0.10707710D+01  1  2  5  2  7  2        2 -.157652422170D-03 0.100000000000D+01
0.107301395051D-03 0.000000000000D+00 0.477421645232D-04 0.691374427146D-06 0.000000000000D+00  7 -2 2 23 -13 13 23 21 2 0.11979360D+00 0.98565638D-01 0.46460812D+06 0.46460812D+06 0.46460812D+06 0.10707710D+01  1  2  6  2  7  2        2 0.364286863508D-03 0.100000000000D+01
-.254103610726D-05 0.000000000000D+00 -.296379260099D-05 0.691374427146D-06 0.000000000000D+00  7 -2 21 23 -13 13 23 -2 2 0.11979360D+00 0.16062851D+00 0.46460812D+06 0.46460812D+06 0.46460812D+06 0.10707710D+01  1  2  5  4  7  2        2 -.289025839373D-05 0.100000000000D+01
  </mgrwgt>
  </event>
  <event>
  8     66 0.27870365E-05 0.14073320E+03 0.75467711E-02 0.10214695E+00
       -2 -1    0    0    0  501 0.00000000E+00 0.00000000E+00 0.31768388E+02 0.31769999E+02 0.32000000E+00 0.0000E+00 0.9000E+01
        2 -1    0    0  501    0 0.00000000E+00 0.00000000E+00 -.22088600E+04 0.22088600E+04 0.32000000E+00 0.0000E+00 0.9000E+01
       25  2    1    2    0    0 0.79897832E+00 0.10851616E+02 -.71661964E+03 0.77727360E+03 0.30081911E+03 0.0000E+00 0.0000E+00
       23  2    3    3    0    0 -.89212320E+01 -.24235205E+02 -.61892459E+02 0.11522488E+03 0.93697190E+02 0.0000E+00 0.0000E+00
       23  1    1    2    0    0 -.79897832E+00 -.10851616E+02 -.14604719E+04 0.14633564E+04 0.91188000E+02 0.0000E+00 0.9000E+01
      -13  1    4    4    0    0 0.25548107E+02 -.44606409E+02 -.53734837E+02 0.74363173E+02 0.10565837E+00 0.0000E+00 0.9000E+01
       13  1    4    4    0    0 -.34469339E+02 0.20371205E+02 -.81576213E+01 0.40861709E+02 0.10565837E+00 0.0000E+00 0.9000E+01
       23  1    3    3    0    0 0.97202103E+01 0.35086821E+02 -.65472718E+03 0.66204871E+03 0.91188000E+02 0.0000E+00 0.9000E+01
#aMCatNLO 1  0  0  2  2 0.19799512D+03 0.00000000D+00  -5  7  0 0.00000000D+00 0.00000000D+00 0.00000000D+00 0.00000000D+00 0.00000000D+00
  <mgrwgt>
 0.4417171781D-03    6    2    0
 0.264903286010520D+03 0.000000000000000D+00 0.000000000000000D+00 0.264903286010520D+03
 0.264903286010520D+03 0.000000000000000D+00 0.000000000000000D+00 -.264903286010520D+03
 0.187349620669415D+03 -.798978347525524D+00 -.108516166396025D+02 -.163297988569611D+03
 0.936844938179433D+02 0.255481793015652D+02 -.446064865052199D+02 0.783220037917760D+02
 0.139288781678705D+03 -.344694112695595D+02 0.203712820131393D+02 0.133410026824857D+03
 0.109483675854976D+03 0.972021031551984D+01 0.350868211316831D+02 -.484340420470223D+02
 0.000000000000000D+00 0.000000000000000D+00 -.000000000000000D+00 -.000000000000000D+00
 0.358815491075623D+03 0.000000000000000D+00 0.000000000000000D+00 0.358815491075623D+03
 0.411720402768261D+03 0.000000000000000D+00 0.000000000000000D+00 -.411720402768261D+03
 0.197785179767048D+03 -.561783002709784D+02 0.313287647261519D+02 -.163297988569611D+03
 0.823166802244116D+02 0.240609938445012D+00 -.253306468939621D+02 0.783220037917760D+02
 0.163558123749882D+03 -.780163881987921D+02 0.535394038030677D+02 0.133410026824857D+03
 0.121934458218469D+03 -.235558772549991D+02 0.604319863546309D+02 -.484340420470223D+02
 0.204941451884073D+03 0.157509955786325D+03 -.119969507989888D+03 -.529049116926379D+02
0.258002674264D-05 0.000000000000D+00 0.000000000000D+00 0.208305392033D-07 0.000000000000D+00  7 -2 2 23 -13 13 23 21 0 0.48875700D-02 0.33982473D+00 0.19805835D+05 0.19805835D+05 0.19805835D+05 0.11844462D+01  1  2  2  2  7  2        2 0.324276846898D-03 0.100000000000D+01
-.736155690928D-07 0.000000000000D+00 -.990798202839D-08 0.208305392033D-07 0.000000000000D+00  7 -2 2 23 -13 13 23 21 2 0.48875700D-02 0.33982473D+00 0.19805835D+05 0.19805835D+05 0.19805835D+05 0.11844462D+01  1  2  3  2  7  2        2 -.129805199387D-04 0.100000000000D+01
0.156846023738D-06 0.000000000000D+00 0.000000000000D+00 0.208305392033D-07 0.000000000000D+00  7 -2 2 23 -13 13 23 21 2 0.48875700D-02 0.33982473D+00 0.19805835D+05 0.19805835D+05 0.19805835D+05 0.11844462D+01  1  2 15  2  7  2        2 0.276564178412D-04 0.100000000000D+01
-.273357957308D-06 0.000000000000D+00 -.657685737023D-06 0.208305392033D-07 0.000000000000D+00  7 -2 2 23 -13 13 23 21 2 0.48875700D-02 0.57545262D+00 0.19805835D+05 0.19805835D+05 0.19805835D+05 0.11844462D+01  1  2  5  2  7  2        2 -.556820265143D-05 0.100000000000D+01
0.614327649354D-06 0.000000000000D+00 0.575928302966D-06 0.208305392033D-07 0.000000000000D+00  7 -2 2 23 -13 13 23 21 2 0.48875700D-02 0.33982473D+00 0.19805835D+05 0.19805835D+05 0.19805835D+05 0.11844462D+01  1  2  6  2  7  2        2 0.108323448418D-03 0.100000000000D+01
0.153332207525D-07 0.000000000000D+00 -.386653367748D-07 0.208305392033D-07 0.000000000000D+00  7 -2 21 23 -13 13 23 -2 2 0.48875700D-02 0.57545262D+00 0.19805835D+05 0.19805835D+05 0.19805835D+05 0.11844462D+01  1  2  5  4  7  2        2 0.918755009931D-08 0.100000000000D+01
  </mgrwgt>
  </event>
  <event>
  8     66 0.27870365E-05 0.28457501E+03 0.75467711E-02 0.95961140E-01
       -2 -1    0    0    0  501 0.00000000E+00 0.00000000E+00 0.15098234E+03 0.15098268E+03 0.32000000E+00 0.0000E+00 0.9000E+01
        2 -1    0    0  501    0 0.00000000E+00 0.00000000E+00 -.55609235E+03 0.55609245E+03 0.32000000E+00 0.0000E+00 0.9000E+01
       25  2    1    2    0    0 0.88046962E+01 0.19788186E+03 -.28443268E+03 0.45785028E+03 0.29914909E+03 0.0000E+00 0.0000E+00
       23  2    3    3    0    0 -.96726399E+02 0.16866322E+03 -.19336517E+03 0.28873765E+03 0.90421579E+02 0.0000E+00 0.0000E+00
       23  1    1    2    0    0 -.88046962E+01 -.19788186E+03 -.12067733E+03 0.24922485E+03 0.91188000E+02 0.0000E+00 0.9000E+01
      -11  1    4    4    0    0 -.96241316E+01 -.74139467E+01 -.32948629E+02 0.35116985E+02 0.51099893E-03 0.0000E+00 0.9000E+01
       11  1    4    4    0    0 -.87102267E+02 0.17607717E+03 -.16041654E+03 0.25362066E+03 0.51099893E-03 0.0000E+00 0.9000E+01
       23  1    3    3    0    0 0.10553109E+03 0.29218644E+02 -.91067508E+02 0.16911264E+03 0.91188000E+02 0.0000E+00 0.9000E+01
#aMCatNLO 1  0  0  1  2 0.26488814D+03 0.00000000D+00  -5  7  0 0.00000000D+00 0.00000000D+00 0.00000000D+00 0.00000000D+00 0.00000000D+00
  <mgrwgt>
 0.5507655876D-03    3    2    0
 0.289759001748182D+03 0.000000000000000D+00 0.000000000000000D+00 0.289759001748182D+03
 0.289759001748182D+03 0.000000000000000D+00 0.000000000000000D+00 -.289759001748182D+03
 0.219722414134976D+03 -.880469618273101D+01 -.197881862270525D+03 0.269802490496419D+02
 0.198139271325077D+02 -.962413157049061D+01 -.741394672171064D+01 -.156525139812698D+02
 0.197306233951657D+03 -.871022671294917D+02 0.176077165099388D+03 -.184330395662722D+02
 0.142675428277224D+03 0.105531094882713D+03 0.292186438928478D+02 0.710530449790013D+01
 0.000000000000000D+00 -.000000000000000D+00 0.000000000000000D+00 -.000000000000000D+00
 0.334531463097238D+03 0.000000000000000D+00 0.000000000000000D+00 0.334531463097238D+03
 0.141918866011821D+04 0.000000000000000D+00 0.000000000000000D+00 -.141918866011821D+04
 0.253177588270152D+03 0.926162437152532D+02 -.215587424075679D+03 0.269802490496419D+02
 0.180349307677645D+02 -.150684097461890D+01 -.883102282532560D+01 -.156525139812698D+02
 0.163879784794176D+03 -.964017088735359D+01 0.162554218714238D+03 -.184330395662722D+02
 0.202094360765263D+03 0.179472469116759D+03 0.163103275946969D+02 0.710530449790013D+01
 0.111653345861809D+04 -.260941700970040D+03 0.455539005920699D+02 -.108465719702097D+04
0.530055104266D-05 0.000000000000D+00 0.000000000000D+00 0.852881910419D-07 0.000000000000D+00  7 -2 2 23 -11 11 23 21 0 0.23228086D-01 0.85552703D-01 0.80982937D+05 0.80982937D+05 0.80982937D+05 0.11293178D+01  1  2  2  1  7  1       -2 0.545390306563D-03 0.100000000000D+01
-.294358373505D-06 0.000000000000D+00 -.203555116709D-07 0.852881910419D-07 0.000000000000D+00  7 -2 2 23 -11 11 23 21 2 0.23228086D-01 0.85552703D-01 0.80982937D+05 0.80982937D+05 0.80982937D+05 0.11293178D+01  1  2  3  1  7  1       -2 -.386273721543D-04 0.100000000000D+01
0.335320491566D-06 0.000000000000D+00 0.000000000000D+00 0.852881910419D-07 0.000000000000D+00  7 -2 2 23 -11 11 23 21 2 0.23228086D-01 0.85552703D-01 0.80982937D+05 0.80982937D+05 0.80982937D+05 0.11293178D+01  1  2 15  1  7  1       -2 0.440026531756D-04 0.100000000000D+01
  </mgrwgt>
  </event>
  <event>
  8     66 0.27870365E-05 0.50100512E+03 0.75467711E-02 0.86502263E-01
       -2 -1    0    0    0  501 0.00000000E+00 0.00000000E+00 0.26239361E+03 0.26239381E+03 0.32000000E+00 0.0000E+00 0.9000E+01
        2 -1    0    0  501    0 0.00000000E+00 0.00000000E+00 -.10563742E+04 0.10563743E+04 0.32000000E+00 0.0000E+00 0.9000E+01
       25  2    1    2    0    0 0.43569408E+03 -.14212708E+03 -.60237676E+03 0.81373667E+03 0.29879789E+03 0.0000E+00 0.0000E+00
       23  2    3    3    0    0 0.37356886E+03 -.17906555E+03 -.51869290E+03 0.67041106E+03 0.93757610E+02 0.0000E+00 0.0000E+00
       23  1    1    2    0    0 -.43569408E+03 0.14212708E+03 -.19160387E+03 0.50503141E+03 0.91188000E+02 0.0000E+00 0.9000E+01
      -11  1    4    4    0    0 0.17700546E+03 -.52636827E+02 -.17241220E+03 0.25264112E+03 0.51099893E-03 0.0000E+00 0.9000E+01
       11  1    4    4    0    0 0.19656340E+03 -.12642873E+03 -.34628071E+03 0.41776994E+03 0.51099893E-03 0.0000E+00 0.9000E+01
       23  1    3    3    0    0 0.62125217E+02 0.36938479E+02 -.83683852E+02 0.14332562E+03 0.91188000E+02 0.0000E+00 0.9000E+01
#aMCatNLO 1  0  0  1  2 0.87705981D+03 0.00000000D+00  -5  7  0 0.00000000D+00 0.00000000D+00 0.00000000D+00 0.00000000D+00 0.00000000D+00
  <mgrwgt>
 0.5638195320D-03    3    2    0
 0.526484577257221D+03 0.000000000000000D+00 0.000000000000000D+00 0.526484577257221D+03
 0.526484577257221D+03 0.000000000000000D+00 0.000000000000000D+00 -.526484577257221D+03
 0.488038565117502D+03 -.435694079064581D+03 0.142127075741931D+03 0.140843720154874D+03
 0.186409167322392D+03 0.177005463835395D+03 -.526368273505779D+02 -.254324171228315D+02
 0.262117355344253D+03 0.196563398348221D+03 -.126428727280929D+03 -.118676515455199D+03
 0.116404066730294D+03 0.621252168809642D+02 0.369384788895761D+02 0.326521242315609D+01
 0.000000000000000D+00 -.000000000000000D+00 0.000000000000000D+00 -.000000000000000D+00
 0.101713952609101D+04 0.000000000000000D+00 0.000000000000000D+00 0.101713952609101D+04
 0.126453880814545D+04 0.000000000000000D+00 0.000000000000000D+00 -.126453880814545D+04
 0.264788682432347D+03 -.163914524447465D+03 0.122853042975560D+03 0.140843720154874D+03
 0.392770392552039D+03 0.386096146111195D+03 -.674650975160953D+02 -.254324171228315D+02
 0.511899051916425D+03 0.475992490635051D+03 -.146245249124160D+03 -.118676515455199D+03
 0.200935228439214D+03 0.176688461748064D+03 0.288138952044603D+02 0.326521242315609D+01
 0.911284978896440D+03 -.874862574046845D+03 0.620434084602349D+02 -.247399282054437D+03
0.331823812227D-04 0.000000000000D+00 0.000000000000D+00 0.414636307802D-07 0.000000000000D+00  7 -2 2 23 -11 11 23 21 0 0.40368267D-01 0.16251913D+00 0.25100613D+06 0.25100613D+06 0.25100613D+06 0.10903279D+01  1  2  2  1  7  1       -2 0.559811354237D-03 0.100000000000D+01
-.183795018564D-05 0.000000000000D+00 -.127429081017D-06 0.414636307802D-07 0.000000000000D+00  7 -2 2 23 -11 11 23 21 2 0.40368267D-01 0.16251913D+00 0.25100613D+06 0.25100613D+06 0.25100613D+06 0.10903279D+01  1  2  3  1  7  1       -2 -.368622760268D-04 0.100000000000D+01
0.203779761513D-05 0.000000000000D+00 0.000000000000D+00 0.414636307802D-07 0.000000000000D+00  7 -2 2 23 -11 11 23 21 2 0.40368267D-01 0.16251913D+00 0.25100613D+06 0.25100613D+06 0.25100613D+06 0.10903279D+01  1  2 15  1  7  1       -2 0.408704538144D-04 0.100000000000D+01
  </mgrwgt>
  </event>
  <event>
  7     66 0.27870365E-05 0.34478977E+03 0.75467711E-02 0.88653229E-01
       -2 -1    0    0    0  501 0.00000000E+00 0.00000000E+00 0.58768963E+02 0.58769834E+02 0.32000000E+00 0.0000E+00 0.9000E+01
        2 -1    0    0  501    0 0.00000000E+00 0.00000000E+00 -.26896282E+04 0.26896283E+04 0.32000000E+00 0.0000E+00 0.9000E+01
       25  2    1    2    0    0 -.30379465E+03 0.47522335E+02 -.19335064E+04 0.19808267E+04 0.30112764E+03 0.0000E+00 0.0000E+00
       23  1    1    2    0    0 0.30379465E+03 -.47522335E+02 -.69735289E+03 0.76757141E+03 0.91188000E+02 0.0000E+00 0.9000E+01
      -13  1    3    3    0    0 -.56376725E+02 0.82454084E+02 -.88115038E+03 0.88679367E+03 0.10565837E+00 0.0000E+00 0.9000E+01
       13  1    3    3    0    0 0.68011146E+00 0.19663278E+01 -.21844568E+03 0.21845562E+03 0.10565837E+00 0.0000E+00 0.9000E+01
       23  1    3    3    0    0 -.24809803E+03 -.36898076E+02 -.83391033E+03 0.87557740E+03 0.91188000E+02 0.0000E+00 0.9000E+01
#aMCatNLO 1  0  0  2  1 0.73254938D+03 0.00000000D+00  -5  7  0 0.00000000D+00 0.00000000D+00 0.00000000D+00 0.00000000D+00 0.00000000D+00
  <mgrwgt>
 0.6770196627D-03    5    2    0
 0.397577522542340D+03 0.000000000000000D+00 0.000000000000000D+00 0.397577522542340D+03
 0.397577522542340D+03 0.000000000000000D+00 0.000000000000000D+00 -.397577522542340D+03
 0.345787243869430D+03 0.303794647740606D+03 -.475223352363522D+02 0.129243979885570D+03
 0.149756766080403D+03 -.563770101353235D+02 0.824544851461908D+02 -.111579476582115D+03
 0.323241150304894D+02 0.680396234173230D+00 0.196592581679232D+01 -.322571016855468D+02
 0.267286920104357D+03 -.248098033839455D+03 -.368980757266309D+02 0.145925983820915D+02
 0.000000000000000D+00 -.000000000000000D+00 -.000000000000000D+00 -.000000000000000D+00
 0.884826262316822D+03 0.000000000000000D+00 0.000000000000000D+00 0.884826262316822D+03
 0.930289365981736D+03 0.000000000000000D+00 0.000000000000000D+00 -.930289365981736D+03
 0.650424645124316D+03 0.594692453828422D+03 0.210651006795509D+03 0.129243979885570D+03
 0.215198395697859D+03 0.501913384807076D+02 0.177034458391886D+03 -.111579476582115D+03
 0.456214972482331D+02 0.234408228628442D+02 0.221659248742657D+02 -.322571016855468D+02
 0.169912313546117D+03 -.120434130911475D+03 0.764043135866729D+02 0.145925983820915D+02
 0.733958776682033D+03 -.547890484260498D+03 -.486255703648333D+03 -.454631036649135D+02
0.258554947496D-04 0.000000000000D+00 0.000000000000D+00 0.688306451526D-10 0.000000000000D+00  7 -2 2 23 -13 13 23 21 0 0.90414474D-02 0.41378903D+00 0.11887999D+06 0.11887999D+06 0.11887999D+06 0.11156101D+01  1  2  2  2  7  2        2 0.669518746096D-03 0.100000000000D+01
-.140097442237D-05 0.000000000000D+00 -.992919077467D-07 0.688306451526D-10 0.000000000000D+00  7 -2 2 23 -13 13 23 21 2 0.90414474D-02 0.41378903D+00 0.11887999D+06 0.11887999D+06 0.11887999D+06 0.11156101D+01  1  2  3  2  7  2        2 -.451507520308D-04 0.100000000000D+01
0.163371907334D-05 0.000000000000D+00 0.000000000000D+00 0.688306451526D-10 0.000000000000D+00  7 -2 2 23 -13 13 23 21 2 0.90414474D-02 0.41378903D+00 0.11887999D+06 0.11887999D+06 0.11887999D+06 0.11156101D+01  1  2 15  2  7  2        2 0.526516712871D-04 0.100000000000D+01
-.601735725099D-07 0.000000000000D+00 -.506783226590D-05 0.688306451526D-10 0.000000000000D+00  7 -2 2 23 -13 13 23 21 2 0.90414474D-02 0.98003614D+00 0.11887999D+06 0.11887999D+06 0.11887999D+06 0.11156101D+01  1  2  5  2  7  2        2 -.267721691630D-11 0.100000000000D+01
0.313800744653D-06 0.000000000000D+00 -.477230373478D-06 0.688306451526D-10 0.000000000000D+00  7 -2 21 23 -13 13 23 -2 2 0.90414474D-02 0.98003614D+00 0.11887999D+06 0.11887999D+06 0.11887999D+06 0.11156101D+01  1  2  5  4  7  2        2 0.717926604632D-13 0.100000000000D+01
  </mgrwgt>
  </event>
  <event>
  8     66 0.27870365E-05 0.22916327E+03 0.75467711E-02 0.10436720E+00
       -2 -1    0    0    0  501 0.00000000E+00 0.00000000E+00 0.63178389E+02 0.63179200E+02 0.32000000E+00 0.0000E+00 0.9000E+01
        2 -1    0    0  501    0 0.00000000E+00 0.00000000E+00 -.12152759E+04 0.12152759E+04 0.32000000E+00 0.0000E+00 0.9000E+01
       25  2    1    2    0    0 -.11411438E+02 0.12764191E+03 -.10267334E+04 0.10773231E+04 0.30003489E+03 0.0000E+00 0.0000E+00
       23  2    3    3    0    0 -.56156518E+02 0.16613025E+03 -.46621365E+03 0.50637555E+03 0.91149438E+02 0.0000E+00 0.0000E+00
       23  1    1    2    0    0 0.11411438E+02 -.12764191E+03 -.12536409E+03 0.20113200E+03 0.91188000E+02 0.0000E+00 0.9000E+01
      -11  1    4    4    0    0 -.28281044E+02 0.47812079E+01 -.35826172E+02 0.45893267E+02 0.51099893E-03 0.0000E+00 0.9000E+01
       11  1    4    4    0    0 -.27875474E+02 0.16134904E+03 -.43038748E+03 0.46048229E+03 0.51099893E-03 0.0000E+00 0.9000E+01
       23  1    3    3    0    0 0.44745080E+02 -.38488338E+02 -.56051973E+03 0.57094754E+03 0.91188000E+02 0.0000E+00 0.9000E+01
#aMCatNLO 1  0  0  1  1 0.13961975D+01 0.00000000D+00  -5  7  0 0.00000000D+00 0.00000000D+00 0.00000000D+00 0.00000000D+00 0.00000000D+00
  <mgrwgt>
 0.4122011534D-03    6    2    0
 0.277091530243821D+03 0.000000000000000D+00 0.000000000000000D+00 0.277091530243821D+03
 0.277091530243821D+03 0.000000000000000D+00 0.000000000000000D+00 -.277091530243821D+03
 0.203374296537133D+03 0.114114383973229D+02 -.127641908451607D+03 0.128930894003374D+03
 0.313925862385285D+02 -.282810436961356D+02 0.478120789727972D+01 0.127599799860229D+02
 0.167557634586919D+03 -.278754742182573D+02 0.161349038808228D+03 -.355669301617628D+02
 0.151858543125062D+03 0.447450795170701D+02 -.384883382539000D+02 -.106123943827634D+03
 0.000000000000000D+00 0.000000000000000D+00 -.000000000000000D+00 -.000000000000000D+00
 0.277312649172860D+03 0.000000000000000D+00 0.000000000000000D+00 0.277312649172860D+03
 0.279305190595329D+03 0.000000000000000D+00 0.000000000000000D+00 -.279305190595329D+03
 0.203070003956352D+03 0.112008315225189D+02 -.127175237792299D+03 0.128930894003374D+03
 0.314329740179739D+02 -.283135979597515D+02 0.485334286285978D+01 0.127599799860229D+02
 0.167957570441377D+03 -.280493278279510D+02 0.161734270196018D+03 -.355669301617628D+02
 0.151724270844911D+03 0.445877722855090D+02 -.381397709550647D+02 -.106123943827634D+03
 0.243302050757394D+01 0.574321979674726D+00 -.127260431151361D+01 -.199254142246901D+01
0.229459066447D-05 0.000000000000D+00 0.000000000000D+00 0.406792790945D-06 0.000000000000D+00  7 -2 2 23 -11 11 23 21 0 0.97198178D-02 0.18696558D+00 0.52515804D+05 0.52515804D+05 0.52515804D+05 0.11454248D+01  1  2  2  1  7  1       -2 0.345623445983D-03 0.100000000000D+01
-.121887097293D-06 0.000000000000D+00 -.881183233115D-08 0.406792790945D-06 0.000000000000D+00  7 -2 2 23 -11 11 23 21 2 0.97198178D-02 0.18696558D+00 0.52515804D+05 0.52515804D+05 0.52515804D+05 0.11454248D+01  1  2  3  1  7  1       -2 -.240873415789D-04 0.100000000000D+01
0.142700974829D-06 0.000000000000D+00 0.000000000000D+00 0.406792790945D-06 0.000000000000D+00  7 -2 2 23 -11 11 23 21 2 0.97198178D-02 0.18696558D+00 0.52515804D+05 0.52515804D+05 0.52515804D+05 0.11454248D+01  1  2 15  1  7  1       -2 0.282005823479D-04 0.100000000000D+01
-.551495161570D-05 0.000000000000D+00 0.000000000000D+00 0.406792790945D-06 0.000000000000D+00  7 -2 2 23 -11 11 23 21 2 0.97198178D-02 0.18696558D+00 0.52515804D+05 0.52515804D+05 0.52515804D+05 0.11454248D+01  1  2  4  1  7  1       -2 -.108986534514D-02 0.100000000000D+01
0.551507973675D-05 0.000000000000D+00 0.000000000000D+00 0.406792790945D-06 0.145969547795D-05  7 -2 2 23 -11 11 23 21 2 0.97275742D-02 0.18845923D+00 0.52806825D+05 0.52806825D+05 0.52806825D+05 0.11452148D+01  1  2 11  1  7  1       -2 0.107466691853D-02 0.100000000000D+01
0.268568428037D-07 0.000000000000D+00 0.000000000000D+00 0.406792790945D-06 0.218672759323D-09  7 21 2 23 -11 11 23 2 2 0.97275742D-02 0.18845923D+00 0.52806825D+05 0.52806825D+05 0.52806825D+05 0.11452148D+01  1  2 11  3  7  1       -2 0.776628932590D-04 0.100000000000D+01
  </mgrwgt>
  </event>
  <event>
  8     66 0.27870365E-05 0.40788161E+03 0.75467711E-02 0.90304348E-01
       -2 -1    0    0    0  501 0.00000000E+00 0.00000000E+00 0.39958919E+03 0.39958931E+03 0.32000000E+00 0.0000E+00 0.9000E+01
        2 -1    0    0  501    0 0.00000000E+00 0.00000000E+00 -.63886029E+03 0.63886037E+03 0.32000000E+00 0.0000E+00 0.9000E+01
       25  2    1    2    0    0 0.29813992E+03 -.22825579E+03 -.39479037E+03 0.62192885E+03 0.29991323E+03 0.0000E+00 0.0000E+00
       23  2    3    3    0    0 0.99647169E+02 -.14295432E+03 -.32139996E+03 0.37621130E+03 0.88721527E+02 0.0000E+00 0.0000E+00
       23  1    1    2    0    0 -.29813992E+03 0.22825579E+03 0.15551926E+03 0.41652084E+03 0.91188000E+02 0.0000E+00 0.9000E+01
      -13  1    4    4    0    0 0.72532521E+02 -.15020101E+03 -.26327663E+03 0.31166634E+03 0.10565837E+00 0.0000E+00 0.9000E+01
       13  1    4    4    0    0 0.27114649E+02 0.72466976E+01 -.58123336E+02 0.64544962E+02 0.10565837E+00 0.0000E+00 0.9000E+01
       23  1    3    3    0    0 0.19849275E+03 -.85301478E+02 -.73390402E+02 0.24571755E+03 0.91188000E+02 0.0000E+00 0.9000E+01
#aMCatNLO 1  0  0  1  1 0.53814395D+03 0.00000000D+00  -5  7  0 0.00000000D+00 0.00000000D+00 0.00000000D+00 0.00000000D+00 0.00000000D+00
  <mgrwgt>
 0.5331359521D-03    5    2    0
 0.505254166075798D+03 0.000000000000000D+00 0.000000000000000D+00 0.505254166075798D+03
 0.505254166075798D+03 0.000000000000000D+00 0.000000000000000D+00 -.505254166075798D+03
 0.464862271371244D+03 -.298139915015496D+03 0.228255794129297D+03 0.258444507624731D+03
 0.257945040811918D+03 0.725325849351765D+02 -.150201236576894D+03 -.196759387915432D+03
 0.525667774750627D+02 0.271145840651202D+02 0.724692083996379D+01 -.444471322295105D+02
 0.235134242493370D+03 0.198492746015199D+03 -.853014783923667D+02 -.172379874797888D+02
 0.000000000000000D+00 -.000000000000000D+00 0.000000000000000D+00 0.000000000000000D+00
 0.950464382926708D+03 0.000000000000000D+00 0.000000000000000D+00 0.950464382926708D+03
 0.763953347600579D+03 0.000000000000000D+00 0.000000000000000D+00 -.763953347600579D+03
 0.348784780293607D+03 -.982415030668321D+02 0.192069297843877D+03 0.258444507624731D+03
 0.344500161533397D+03 0.220542510109126D+03 -.176994649067273D+03 -.196759387915432D+03
 0.730776754731791D+02 0.579831610028975D+02 0.165895426331123D+01 -.444471322295105D+02
 0.378506806264503D+03 0.349253288811018D+03 -.112592819872707D+03 -.172379874797888D+02
 0.569548306962600D+03 -.529537456856210D+03 0.958592168327917D+02 0.186511035326129D+03
0.358617399858D-04 0.000000000000D+00 0.000000000000D+00 0.342578431070D-06 0.000000000000D+00  7 -2 2 23 -13 13 23 21 0 0.61475275D-01 0.98286215D-01 0.16636741D+06 0.16636741D+06 0.16636741D+06 0.11040200D+01  1  2  2  1  7  1       -2 0.512937033316D-03 0.100000000000D+01
-.188129630487D-05 0.000000000000D+00 -.137718524159D-06 0.342578431070D-06 0.000000000000D+00  7 -2 2 23 -13 13 23 21 2 0.61475275D-01 0.98286215D-01 0.16636741D+06 0.16636741D+06 0.16636741D+06 0.11040200D+01  1  2  3  1  7  1       -2 -.327977280465D-04 0.100000000000D+01
0.221570358738D-05 0.000000000000D+00 0.000000000000D+00 0.342578431070D-06 0.000000000000D+00  7 -2 2 23 -13 13 23 21 2 0.61475275D-01 0.98286215D-01 0.16636741D+06 0.16636741D+06 0.16636741D+06 0.11040200D+01  1  2 15  1  7  1       -2 0.386276438763D-04 0.100000000000D+01
0.129639885068D-05 0.000000000000D+00 -.107556201426D-04 0.342578431070D-06 0.000000000000D+00  7 -2 2 23 -13 13 23 21 2 0.15856960D+00 0.98286215D-01 0.16636741D+06 0.16636741D+06 0.16636741D+06 0.11040200D+01  1  2  5  1  7  1       -2 0.231179469934D-05 0.100000000000D+01
0.787698575851D-06 0.000000000000D+00 -.112765876346D-05 0.342578431070D-06 0.000000000000D+00  7 21 2 23 -13 13 23 2 2 0.15856960D+00 0.98286215D-01 0.16636741D+06 0.16636741D+06 0.16636741D+06 0.11040200D+01  1  2  5  3  7  1       -2 0.120572082411D-04 0.100000000000D+01
  </mgrwgt>
  </event>
  <event>
  8     66 0.27870365E-05 0.15644136E+03 0.75467711E-02 0.10127800E+00
       -2 -1    0    0    0  501 0.00000000E+00 0.00000000E+00 0.18005307E+03 0.18005335E+03 0.32000000E+00 0.0000E+00 0.9000E+01
        2 -1    0    0  501    0 0.00000000E+00 0.00000000E+00 -.26896119E+03 0.26896138E+03 0.32000000E+00 0.0000E+00 0.9000E+01
       25  2    1    2    0    0 -.96031783E+01 0.61745260E+02 0.19059227E+01 0.30595132E+03 0.29949605E+03 0.0000E+00 0.0000E+00
       23  2    3    3    0    0 0.40657673E+02 0.63923060E+01 -.10474831E+03 0.14695296E+03 0.94493681E+02 0.0000E+00 0.0000E+00
       23  1    1    2    0    0 0.96031783E+01 -.61745260E+02 -.90814045E+02 0.14306341E+03 0.91188000E+02 0.0000E+00 0.9000E+01
      -13  1    4    4    0    0 -.85619741E+01 -.24739285E+02 -.79094303E+02 0.83314222E+02 0.10565837E+00 0.0000E+00 0.9000E+01
       13  1    4    4    0    0 0.49219647E+02 0.31131591E+02 -.25654008E+02 0.63638737E+02 0.10565837E+00 0.0000E+00 0.9000E+01
       23  1    3    3    0    0 -.50260851E+02 0.55352954E+02 0.10665423E+03 0.15899836E+03 0.91188000E+02 0.0000E+00 0.9000E+01
#aMCatNLO 1  0  0  1  1 0.21109009D+03 0.00000000D+00  -5  7  0 0.00000000D+00 0.00000000D+00 0.00000000D+00 0.00000000D+00 0.00000000D+00
  <mgrwgt>
 0.5718341871D-03    3    2    0
 0.220062252155812D+03 0.000000000000000D+00 0.000000000000000D+00 0.220062252155812D+03
 0.220062252155812D+03 0.000000000000000D+00 0.000000000000000D+00 -.220062252155812D+03
 0.127608160226308D+03 0.960317954848094D+01 -.617452682749604D+02 -.637486627354316D+02
 0.690195304243864D+02 -.856202122242908D+01 -.247393381476477D+02 -.638619802433796D+02
 0.597418835012772D+02 0.492197012598148D+02 0.311316392323021D+02 -.133167072087869D+02
 0.183754930159654D+03 -.502608595858666D+02 0.553529671903061D+02 0.140927350187598D+03
 0.000000000000000D+00 -.000000000000000D+00 0.000000000000000D+00 -.000000000000000D+00
 0.323892589184676D+03 0.000000000000000D+00 0.000000000000000D+00 0.323892589184676D+03
 0.383609475576887D+03 0.000000000000000D+00 0.000000000000000D+00 -.383609475576887D+03
 0.166583949059869D+03 0.544637556786894D+02 -.111376694407749D+03 -.637486627354316D+02
 0.825961629139625D+02 0.145574545855475D+02 -.503175329631109D+02 -.638619802433796D+02
 0.710102209658318D+02 0.691577436188160D+02 0.907321818793130D+01 -.133167072087869D+02
 0.167937319839572D+03 0.336776082062885D+01 -.397897060253082D+01 0.140927350187598D+03
 0.219374411982328D+03 -.141546714703682D+03 0.156599979785460D+03 -.597168863922117D+02
0.335395585194D-05 0.000000000000D+00 0.000000000000D+00 0.163644346870D-07 0.000000000000D+00  7 -2 2 23 -13 13 23 21 0 0.27700509D-01 0.41378681D-01 0.24473899D+05 0.24473899D+05 0.24473899D+05 0.11756295D+01  1  2  2  1  7  1       -2 0.559461731892D-03 0.100000000000D+01
-.159951852470D-06 0.000000000000D+00 -.128800735883D-07 0.163644346870D-07 0.000000000000D+00  7 -2 2 23 -13 13 23 21 2 0.27700509D-01 0.41378681D-01 0.24473899D+05 0.24473899D+05 0.24473899D+05 0.11756295D+01  1  2  3  1  7  1       -2 -.368759520688D-04 0.100000000000D+01
0.213618185799D-06 0.000000000000D+00 0.000000000000D+00 0.163644346870D-07 0.000000000000D+00  7 -2 2 23 -13 13 23 21 2 0.27700509D-01 0.41378681D-01 0.24473899D+05 0.24473899D+05 0.24473899D+05 0.11756295D+01  1  2 15  1  7  1       -2 0.492484073107D-04 0.100000000000D+01
  </mgrwgt>
  </event>
  <event>
  8     66 0.27870365E-05 0.52240302E+03 0.75467711E-02 0.86958973E-01
       -2 -1    0    0    0  501 0.00000000E+00 0.00000000E+00 0.38129393E+03 0.38129406E+03 0.32000000E+00 0.0000E+00 0.9000E+01
        2 -1    0    0  501    0 0.00000000E+00 0.00000000E+00 -.17222838E+04 0.17222838E+04 0.32000000E+00 0.0000E+00 0.9000E+01
       25  2    1    2    0    0 -.41796975E+03 -.25352536E+03 0.97308527E+02 0.58173973E+03 0.29996390E+03 0.0000E+00 0.0000E+00
       23  2    3    3    0    0 -.31968444E+03 -.24830081E+03 0.14489991E+03 0.43937580E+03 0.90574124E+02 0.0000E+00 0.0000E+00
       23  1    1    2    0    0 0.41796975E+03 0.25352536E+03 -.14382984E+04 0.15218381E+04 0.91188000E+02 0.0000E+00 0.9000E+01
      -13  1    4    4    0    0 -.25643555E+03 -.23683646E+03 0.10870152E+03 0.36560461E+03 0.10565837E+00 0.0000E+00 0.9000E+01
       13  1    4    4    0    0 -.63248886E+02 -.11464357E+02 0.36198394E+02 0.73771187E+02 0.10565837E+00 0.0000E+00 0.9000E+01
       23  1    3    3    0    0 -.98285313E+02 -.52245481E+01 -.47591386E+02 0.14236393E+03 0.91188000E+02 0.0000E+00 0.9000E+01
#aMCatNLO 1  0  0  2  2 0.78549443D+03 0.00000000D+00  -5  7  0 0.00000000D+00 0.00000000D+00 0.00000000D+00 0.00000000D+00 0.00000000D+00
  <mgrwgt>
 0.7815574748D-03    3    2    0
 0.810368136593612D+03 0.000000000000000D+00 0.000000000000000D+00 0.810368136593612D+03
 0.810368136593612D+03 0.000000000000000D+00 0.000000000000000D+00 -.810368136593612D+03
 0.785174928329863D+03 0.417969753615594D+03 0.253525362251992D+03 -.607627017578483D+03
 0.564463441531963D+03 -.256435817760055D+03 -.236836763925863D+03 0.443585386874911D+03
 0.125698518245720D+03 -.632486231661184D+02 -.114640501751220D+02 0.108019927376120D+03
 0.145399385079677D+03 -.982853126894199D+02 -.522454815100688D+01 0.560217033274519D+02
 0.000000000000000D+00 -.000000000000000D+00 0.000000000000000D+00 0.000000000000000D+00
 0.390277786332406D+04 0.000000000000000D+00 0.000000000000000D+00 0.390277786332406D+04
 0.951904123220124D+03 0.000000000000000D+00 0.000000000000000D+00 -.951904123220124D+03
 0.802460174490857D+03 0.506367119665541D+03 -.100044129913749D+03 -.607627017578483D+03
 0.708474588096172D+03 -.185560357294350D+03 -.520322592561451D+03 0.443585386874911D+03
 0.137638330864721D+03 -.485863850964907D+02 -.701096897449967D+02 0.108019927376120D+03
 0.152478703157754D+03 -.816998653423565D+02 -.715625903108769D+02 0.560217033274519D+02
 0.305363018993468D+04 -.190520511932344D+03 0.762039002531074D+03 0.295087374010394D+04
0.225562158849D-03 0.000000000000D+00 0.000000000000D+00 0.506872640923D-05 0.000000000000D+00  7 -2 2 23 -13 13 23 21 0 0.58660616D-01 0.26496675D+00 0.27290492D+06 0.27290492D+06 0.27290492D+06 0.10876065D+01  1  2  2  2  7  2        2 0.767132113448D-03 0.100000000000D+01
-.959424585552D-05 0.000000000000D+00 -.866218081859D-06 0.506872640923D-05 0.000000000000D+00  7 -2 2 23 -13 13 23 21 2 0.58660616D-01 0.26496675D+00 0.27290492D+06 0.27290492D+06 0.27290492D+06 0.10876065D+01  1  2  3  2  7  2        2 -.385974283953D-04 0.100000000000D+01
0.131799889802D-04 0.000000000000D+00 0.000000000000D+00 0.506872640923D-05 0.000000000000D+00  7 -2 2 23 -13 13 23 21 2 0.58660616D-01 0.26496675D+00 0.27290492D+06 0.27290492D+06 0.27290492D+06 0.10876065D+01  1  2 15  2  7  2        2 0.530227897609D-04 0.100000000000D+01
  </mgrwgt>
  </event>
  <event>
  8     66 0.27870365E-05 0.18881419E+03 0.75467711E-02 0.84609454E-01
       -2 -1    0    0    0  501 0.00000000E+00 0.00000000E+00 0.12464367E+04 0.12464368E+04 0.32000000E+00 0.0000E+00 0.9000E+01
        2 -1    0    0  501    0 0.00000000E+00 0.00000000E+00 -.20721888E+03 0.20721912E+03 0.32000000E+00 0.0000E+00 0.9000E+01
       25  2    1    2    0    0 0.22553938E+02 0.30699611E+02 0.12149120E+04 0.12520751E+04 0.30038279E+03 0.0000E+00 0.0000E+00
       23  2    3    3    0    0 0.12587785E+03 0.50158750E+02 0.65942009E+03 0.67941379E+03 0.91690346E+02 0.0000E+00 0.0000E+00
       23  1    1    2    0    0 -.22553938E+02 -.30699611E+02 -.17569411E+03 0.20158080E+03 0.91188000E+02 0.0000E+00 0.9000E+01
      -11  1    4    4    0    0 0.78354708E+02 0.48347774E+02 0.23588012E+03 0.25321216E+03 0.51099893E-03 0.0000E+00 0.9000E+01
       11  1    4    4    0    0 0.47523143E+02 0.18109766E+01 0.42353997E+03 0.42620164E+03 0.51099893E-03 0.0000E+00 0.9000E+01
       23  1    3    3    0    0 -.10332391E+03 -.19459139E+02 0.55549188E+03 0.57266131E+03 0.91188000E+02 0.0000E+00 0.9000E+01
#aMCatNLO 1  0  0  1  2 0.13174992D+04 0.00000000D+00  -5  7  0 0.00000000D+00 0.00000000D+00 0.00000000D+00 0.00000000D+00 0.00000000D+00
  <mgrwgt>
 0.4568131921D-03    5    2    0
 0.508217896950807D+03 0.000000000000000D+00 0.000000000000000D+00 0.508217896950807D+03
 0.508217896950807D+03 0.000000000000000D+00 0.000000000000000D+00 -.508217896950807D+03
 0.467922893298640D+03 -.225539376325863D+02 -.306996108504542D+02 -.457367944351008D+03
 0.120964373095646D+03 0.783547079078691D+02 0.483477736851786D+02 0.784564343236550D+02
 0.176499316495988D+03 0.475231434241664D+02 0.181097656662794D+01 0.169971409144339D+03
 0.251049211011341D+03 -.103323913699449D+03 -.194591394013523D+02 0.208940100883014D+03
 0.000000000000000D+00 -.000000000000000D+00 0.000000000000000D+00 0.000000000000000D+00
 0.163662797231797D+04 0.000000000000000D+00 0.000000000000000D+00 0.163662797231797D+04
 0.137133134658184D+04 0.000000000000000D+00 0.000000000000000D+00 -.137133134658184D+04
 0.762897332060146D+03 0.486800666337319D+03 -.357122895729418D+03 -.457367944351008D+03
 0.249728493363196D+03 0.231759822886844D+03 -.499629143077995D+02 0.784564343236550D+02
 0.339544966481291D+03 0.261079539371596D+03 -.135048059807551D+03 0.169971409144339D+03
 0.311844180763798D+03 0.129620211476366D+03 -.168742930969160D+03 0.208940100883014D+03
 0.134394434623138D+04 -.110926024007212D+04 0.710876800813928D+03 0.265296625736132D+03
0.133853753112D-03 0.000000000000D+00 0.000000000000D+00 0.128646647226D-05 0.000000000000D+00  7 -2 2 23 -11 11 23 21 0 0.19175952D+00 0.31879849D-01 0.35650799D+05 0.35650799D+05 0.35650799D+05 0.11604453D+01  1  2  2  1  7  1       -2 0.417520571478D-03 0.100000000000D+01
0.142786470329D-05 0.000000000000D+00 -.514033656452D-06 0.128646647226D-05 0.000000000000D+00  7 -2 2 23 -11 11 23 21 2 0.19175952D+00 0.31879849D-01 0.35650799D+05 0.35650799D+05 0.35650799D+05 0.11604453D+01  1  2  3  1  7  1       -2 0.599768645683D-05 0.100000000000D+01
0.784928332741D-05 0.000000000000D+00 0.000000000000D+00 0.128646647226D-05 0.000000000000D+00  7 -2 2 23 -11 11 23 21 2 0.19175952D+00 0.31879849D-01 0.35650799D+05 0.35650799D+05 0.35650799D+05 0.11604453D+01  1  2 15  1  7  1       -2 0.329705890203D-04 0.100000000000D+01
0.116197082012D-03 0.000000000000D+00 -.403408754382D-04 0.128646647226D-05 0.000000000000D+00  7 -2 2 23 -11 11 23 21 2 0.76396472D+00 0.31879849D-01 0.35650799D+05 0.35650799D+05 0.35650799D+05 0.11604453D+01  1  2  5  1  7  1       -2 0.299810510719D-06 0.100000000000D+01
0.196558060679D-04 0.000000000000D+00 -.665123429523D-05 0.128646647226D-05 0.000000000000D+00  7 21 2 23 -11 11 23 2 2 0.76396472D+00 0.31879849D-01 0.35650799D+05 0.35650799D+05 0.35650799D+05 0.11604453D+01  1  2  5  3  7  1       -2 0.245346121766D-07 0.100000000000D+01
  </mgrwgt>
  </event>
  <event>
  8     66 0.27870365E-05 0.90577674E+02 0.75467711E-02 0.11023490E+00
       -2 -1    0    0    0  501 0.00000000E+00 0.00000000E+00 0.14765158E+02 0.14768626E+02 0.32000000E+00 0.0000E+00 0.9000E+01
        2 -1    0    0  501    0 0.00000000E+00 0.00000000E+00 -.26729572E+04 0.26729572E+04 0.32000000E+00 0.0000E+00 0.9000E+01
       25  2    1    2    0    0 0.11529549E+02 -.10605819E+02 -.18714528E+04 0.18955647E+04 0.30097257E+03 0.0000E+00 0.0000E+00
       23  2    3    3    0    0 0.53275827E+02 -.28029790E+02 -.28289783E+03 0.30375173E+03 0.92789806E+02 0.0000E+00 0.0000E+00
       23  1    1    2    0    0 -.11529549E+02 0.10605819E+02 -.78673920E+03 0.79216112E+03 0.91188000E+02 0.0000E+00 0.9000E+01
      -11  1    4    4    0    0 -.13206739E+02 -.25301881E+02 -.26801411E+02 0.39152507E+02 0.51099893E-03 0.0000E+00 0.9000E+01
       11  1    4    4    0    0 0.66482566E+02 -.27279094E+01 -.25609641E+03 0.26459922E+03 0.51099893E-03 0.0000E+00 0.9000E+01
       23  1    3    3    0    0 -.41746278E+02 0.17423971E+02 -.15885550E+04 0.15918130E+04 0.91188000E+02 0.0000E+00 0.9000E+01
#aMCatNLO 1  0  0  1  2 0.16203096D+02 0.00000000D+00  -5  7  0 0.00000000D+00 0.00000000D+00 0.00000000D+00 0.00000000D+00 0.00000000D+00
  <mgrwgt>
 0.5057733273D-03    6    2    0
 0.198673906327999D+03 0.000000000000000D+00 0.000000000000000D+00 0.198673906327999D+03
 0.198673906327999D+03 0.000000000000000D+00 0.000000000000000D+00 -.198673906327999D+03
 0.951509789764407D+02 -.115295810075057D+02 0.106058482208224D+02 -.222045536204468D+02
 0.855369227316079D+02 -.132067337309711D+02 -.253018871748650D+02 0.806347433799023D+02
 0.765493359547257D+02 0.664825710496448D+02 -.272791531289073D+01 0.378474181389443D+02
 0.140110574993224D+03 -.417462563111680D+02 0.174239542669333D+02 -.962776078983997D+02
 0.000000000000000D+00 0.000000000000000D+00 0.000000000000000D+00 -.000000000000000D+00
 0.205129785750112D+03 0.000000000000000D+00 0.000000000000000D+00 0.205129785750112D+03
 0.209272581305994D+03 0.000000000000000D+00 0.000000000000000D+00 -.209272581305994D+03
 0.955232226844598D+02 -.151795952724699D+02 0.927213103367285D+01 -.222045536204468D+02
 0.864679529876452D+02 -.164993671577794D+02 -.265050172104022D+02 0.806347433799023D+02
 0.741047665566637D+02 0.635986485344222D+02 -.378170216021355D+01 0.378474181389443D+02
 0.141582099080016D+03 -.471386076085489D+02 0.154535861854990D+02 -.962776078983997D+02
 0.167243257473225D+02 0.152189215043760D+02 0.556100215144385D+01 -.414279555588192D+01
0.124484981142D-05 0.000000000000D+00 0.000000000000D+00 0.744310887437D-08 0.000000000000D+00  7 -2 2 23 -11 11 23 21 0 0.22718310D-02 0.41122445D+00 0.20937448D+05 0.20937448D+05 0.20937448D+05 0.11821117D+01  1  2  2  1  7  1       -2 0.265078913625D-03 0.100000000000D+01
-.607076268537D-07 0.000000000000D+00 -.478055105232D-08 0.744310887437D-08 0.000000000000D+00  7 -2 2 23 -11 11 23 21 2 0.22718310D-02 0.41122445D+00 0.20937448D+05 0.20937448D+05 0.20937448D+05 0.11821117D+01  1  2  3  1  7  1       -2 -.180641898966D-04 0.100000000000D+01
0.782395139711D-07 0.000000000000D+00 0.000000000000D+00 0.744310887437D-08 0.000000000000D+00  7 -2 2 23 -11 11 23 21 2 0.22718310D-02 0.41122445D+00 0.20937448D+05 0.20937448D+05 0.20937448D+05 0.11821117D+01  1  2 15  1  7  1       -2 0.232809864434D-04 0.100000000000D+01
0.167711486855D-05 0.000000000000D+00 0.000000000000D+00 0.744310887437D-08 0.000000000000D+00  7 -2 2 23 -11 11 23 21 2 0.24037594D-02 0.41122445D+00 0.23692857D+05 0.23692857D+05 0.23692857D+05 0.11769676D+01  1  2 12  1  7  1       -2 0.455388332135D-03 0.100000000000D+01
-.102538255282D-05 0.000000000000D+00 0.000000000000D+00 0.744310887437D-08 0.000000000000D+00  7 -2 2 23 -11 11 23 21 2 0.22718310D-02 0.41122445D+00 0.20937448D+05 0.20937448D+05 0.20937448D+05 0.11821117D+01  1  2  4  1  7  1       -2 -.305113312950D-03 0.100000000000D+01
0.172965248841D-07 0.000000000000D+00 0.000000000000D+00 0.744310887437D-08 0.000000000000D+00  7 21 2 23 -11 11 23 2 2 0.24037594D-02 0.41122445D+00 0.23692857D+05 0.23692857D+05 0.23692857D+05 0.11769676D+01  1  2 12  3  7  1       -2 0.852025979705D-04 0.100000000000D+01
  </mgrwgt>
  </event>
  <event>
  9     66 0.27870365E-05 0.19569416E+03 0.75467711E-02 0.10540211E+00
       21 -1    0    0  502  501 0.00000000E+00 0.00000000E+00 0.22410281E+04 0.22410282E+04 0.75000000E+00 0.0000E+00 0.9000E+01
        4 -1    0    0  501    0 0.00000000E+00 0.00000000E+00 -.28745660E+02 0.28787419E+02 0.15500000E+01 0.0000E+00 0.9000E+01
       25  2    1    2    0    0 -.49345840E+02 -.44888489E+02 0.17339143E+04 0.17611002E+04 0.30094074E+03 0.0000E+00 0.0000E+00
       23  2    3    3    0    0 -.32087148E+02 -.12168181E+03 0.13531530E+04 0.13617389E+04 0.86450742E+02 0.0000E+00 0.0000E+00
       23  1    1    2    0    0 0.83052527E+02 0.58608889E+02 0.37068297E+03 0.39503650E+03 0.91188000E+02 0.0000E+00 0.9000E+01
      -13  1    4    4    0    0 0.94121754E+01 -.47364323E+02 0.21266213E+03 0.21807604E+03 0.10565837E+00 0.0000E+00 0.9000E+01
       13  1    4    4    0    0 -.41499323E+02 -.74317485E+02 0.11404909E+04 0.11436629E+04 0.10565837E+00 0.0000E+00 0.9000E+01
       23  1    3    3    0    0 -.17258692E+02 0.76793319E+02 0.38076124E+03 0.39936130E+03 0.91188000E+02 0.0000E+00 0.9000E+01
        4  1    1    2  502    0 -.33706687E+02 -.13720400E+02 0.10768517E+03 0.11367888E+03 0.15500000E+01 0.0000E+00 0.9000E+01
#aMCatNLO 2  0  0  1  2 0.36392171D+02 0.00000000D+00  -5  7  0 0.00000000D+00 0.00000000D+00 0.00000000D+00 0.00000000D+00 0.00000000D+00
  <mgrwgt>
 0.1681008175D-04    1    2    0
 0.233597770499747D+03 0.000000000000000D+00 0.000000000000000D+00 0.233597770499747D+03
 0.233597770499747D+03 0.000000000000000D+00 0.000000000000000D+00 -.233597770499747D+03
 0.145572471258428D+03 0.723046891617525D+02 0.542339583529503D+02 -.686061420783792D+02
 0.491575123198175D+02 0.590196268843318D+01 -.487931485639369D+02 -.925476696051355D+00
 0.145630853137060D+03 -.517885900038721D+02 -.785057639167880D+02 0.111189623448775D+03
 0.126834704284187D+03 -.264180618463136D+02 0.730649541277746D+02 -.416580046743444D+02
 0.000000000000000D+00 -.000000000000000D+00 -.000000000000000D+00 -.000000000000000D+00
 0.246463635960429D+03 0.000000000000000D+00 0.000000000000000D+00 0.246463635960429D+03
 0.261537734670448D+03 0.000000000000000D+00 0.000000000000000D+00 -.261537734670448D+03
 0.152822718232419D+03 0.830525469949084D+02 0.586089035106880D+02 -.686061420783792D+02
 0.482992929872634D+02 0.941224678551041D+01 -.473642777460316D+02 -.925476696051355D+00
 0.140030093917446D+03 -.414994052061369D+02 -.743175228824626D+02 0.111189623448775D+03
 0.127458675429730D+03 -.172587014097682D+02 0.767932970414873D+02 -.416580046743444D+02
 0.393905900640185D+02 -.337066871645138D+02 -.137203999236812D+02 -.150740987100192D+02
0.702438137001D-06 0.000000000000D+00 0.000000000000D+00 0.291070394875D-08 0.152494063816D-12  7 21 4 23 -13 13 23 4 2 0.34475585D+00 0.44253626D-02 0.45543468D+05 0.45543468D+05 0.45543468D+05 0.11508788D+01  1  2  1  3  7  1       -4 0.168100817514D-04 0.100000000000D+01
  </mgrwgt>
  </event>
  <event>
  8     66 0.27870365E-05 0.74877542E+03 0.75467711E-02 0.89834130E-01
       -2 -1    0    0    0  501 0.00000000E+00 0.00000000E+00 0.19338307E+03 0.19338334E+03 0.32000000E+00 0.0000E+00 0.9000E+01
        2 -1    0    0  501    0 0.00000000E+00 0.00000000E+00 -.30892968E+04 0.30892968E+04 0.32000000E+00 0.0000E+00 0.9000E+01
       25  2    1    2    0    0 0.41240885E+03 -.58586531E+03 -.18981277E+04 0.20509288E+04 0.30016803E+03 0.0000E+00 0.0000E+00
       23  2    3    3    0    0 0.40794485E+03 -.43878428E+03 -.15252502E+04 0.16398258E+04 0.60744563E+02 0.0000E+00 0.0000E+00
       23  1    1    2    0    0 -.41240885E+03 0.58586531E+03 -.99778596E+03 0.12317513E+04 0.91188000E+02 0.0000E+00 0.9000E+01
      -13  1    4    4    0    0 0.26812891E+03 -.24476401E+03 -.92096471E+03 0.98993866E+03 0.10565837E+00 0.0000E+00 0.9000E+01
       13  1    4    4    0    0 0.13981594E+03 -.19402027E+03 -.60428549E+03 0.64988716E+03 0.10565837E+00 0.0000E+00 0.9000E+01
       23  1    3    3    0    0 0.44639999E+01 -.14708103E+03 -.37287754E+03 0.41110299E+03 0.91188000E+02 0.0000E+00 0.9000E+01
#aMCatNLO 1  0  0  1  2 0.62441959D+02 0.00000000D+00  -5  7  0 0.00000000D+00 0.00000000D+00 0.00000000D+00 0.00000000D+00 0.00000000D+00
  <mgrwgt>
 0.5116372955D-03    4    2    0
 0.772928300739669D+03 0.000000000000000D+00 0.000000000000000D+00 0.772928300739669D+03
 0.772928300739669D+03 0.000000000000000D+00 0.000000000000000D+00 -.772928300739669D+03
 0.746475137815212D+03 -.412408851460196D+03 0.585865311077157D+03 0.188654860912693D+03
 0.376890217636489D+03 0.268129299967367D+03 -.244764163999803D+03 -.101209775568209D+03
 0.248025878510344D+03 0.139815551560188D+03 -.194020112655627D+03 -.657620242833681D+02
 0.174465367517293D+03 0.446399993264092D+01 -.147081034421727D+03 -.216830610611152D+02
 0.000000000000000D+00 0.000000000000000D+00 -.000000000000000D+00 -.000000000000000D+00
 0.785951370517198D+03 0.000000000000000D+00 0.000000000000000D+00 0.785951370517198D+03
 0.852213292597421D+03 0.000000000000000D+00 0.000000000000000D+00 -.852213292597421D+03
 0.775313627181947D+03 -.435191254341641D+03 0.606476615170435D+03 0.188654860912693D+03
 0.362533125255524D+03 0.257059537274158D+03 -.234749318493933D+03 -.101209775568209D+03
 0.238782316388086D+03 0.132527640992531D+03 -.187426719425936D+03 -.657620242833681D+02
 0.170488131181540D+03 -.700231637129789D+00 -.142408939566476D+03 -.216830610611152D+02
 0.910474631075229D+02 0.463043077120817D+02 -.418916376840900D+02 -.662619220802229D+02
0.336916986205D-03 0.000000000000D+00 0.000000000000D+00 0.343478885850D-08 0.000000000000D+00  7 -2 2 23 -13 13 23 21 0 0.29751263D-01 0.47527645D+00 0.56066463D+06 0.56066463D+06 0.56066463D+06 0.10650132D+01  1  2  2  1  7  1       -2 0.645601262318D-03 0.100000000000D+01
-.186946730400D-04 0.000000000000D+00 -.129384993931D-05 0.343478885850D-08 0.000000000000D+00  7 -2 2 23 -13 13 23 21 2 0.29751263D-01 0.47527645D+00 0.56066463D+06 0.56066463D+06 0.56066463D+06 0.10650132D+01  1  2  3  1  7  1       -2 -.406321028706D-04 0.100000000000D+01
0.208568310980D-04 0.000000000000D+00 0.000000000000D+00 0.343478885850D-08 0.000000000000D+00  7 -2 2 23 -13 13 23 21 2 0.29751263D-01 0.47527645D+00 0.56066463D+06 0.56066463D+06 0.56066463D+06 0.10650132D+01  1  2 15  1  7  1       -2 0.453314644722D-04 0.100000000000D+01
-.637984599431D-04 0.000000000000D+00 0.000000000000D+00 0.343478885850D-08 0.000000000000D+00  7 -2 2 23 -13 13 23 21 2 0.29751263D-01 0.47527645D+00 0.56066463D+06 0.56066463D+06 0.56066463D+06 0.10650132D+01  1  2  4  1  7  1       -2 -.138663328417D-03 0.100000000000D+01
  </mgrwgt>
  </event>
  <event>
  8     66 0.27870365E-05 0.18714053E+03 0.75467711E-02 0.98266839E-01
       -2 -1    0    0    0  501 0.00000000E+00 0.00000000E+00 0.41429201E+03 0.41429213E+03 0.32000000E+00 0.0000E+00 0.9000E+01
        2 -1    0    0  501    0 0.00000000E+00 0.00000000E+00 -.11435355E+03 0.11435400E+03 0.32000000E+00 0.0000E+00 0.9000E+01
       25  2    1    2    0    0 0.48501812E+02 -.55798902E+02 0.16471949E+03 0.34957809E+03 0.29934326E+03 0.0000E+00 0.0000E+00
       23  2    3    3    0    0 0.98307342E+02 -.10231072E+03 0.16444844E+03 0.23573932E+03 0.91640170E+02 0.0000E+00 0.0000E+00
       23  1    1    2    0    0 -.48501812E+02 0.55798902E+02 0.13521897E+03 0.17906804E+03 0.91188000E+02 0.0000E+00 0.9000E+01
      -11  1    4    4    0    0 0.68905193E+02 -.59068281E+02 0.15911178E+03 0.18317627E+03 0.51099893E-03 0.0000E+00 0.9000E+01
       11  1    4    4    0    0 0.29402149E+02 -.43242437E+02 0.53366677E+01 0.52563055E+02 0.51099893E-03 0.0000E+00 0.9000E+01
       23  1    3    3    0    0 -.49805530E+02 0.46511815E+02 0.27104501E+00 0.11383877E+03 0.91188000E+02 0.0000E+00 0.9000E+01
#aMCatNLO 1  0  0  1  2 0.28339019D+03 0.00000000D+00  -5  7  0 0.00000000D+00 0.00000000D+00 0.00000000D+00 0.00000000D+00 0.00000000D+00
  <mgrwgt>
 0.5415303907D-03    3    2    0
 0.217660086914449D+03 0.000000000000000D+00 0.000000000000000D+00 0.217660086914449D+03
 0.217660086914449D+03 0.000000000000000D+00 0.000000000000000D+00 -.217660086914449D+03
 0.124290723929961D+03 -.485018119476720D+02 0.557989024951405D+02 0.408287818721574D+02
 0.112817385609836D+03 0.689051929508994D+02 -.590682806221231D+02 0.670132457398080D+02
 0.601547675294338D+02 0.294021492415227D+02 -.432424369004878D+02 -.297355229886204D+02
 0.138057296759668D+03 -.498055302447501D+02 0.465118150274704D+02 -.781065046233450D+02
 0.000000000000000D+00 0.000000000000000D+00 -.000000000000000D+00 -.000000000000000D+00
 0.317118745393537D+03 0.000000000000000D+00 0.000000000000000D+00 0.317118745393537D+03
 0.609495342008324D+03 0.000000000000000D+00 0.000000000000000D+00 -.609495342008324D+03
 0.193911939793489D+03 -.844308649554898D+02 0.143146877940727D+03 0.408287818721574D+02
 0.819908427840674D+02 0.469089120825320D+02 -.559259895675028D+01 0.670132457398080D+02
 0.384629644561542D+02 0.182669762088407D+02 -.161714528578682D+02 -.297355229886204D+02
 0.205070153819628D+03 -.885489028364246D+02 0.140701749760246D+03 -.781065046233450D+02
 0.407178186548523D+03 0.107803879500542D+03 -.262084575886354D+03 -.292376596614787D+03
0.574523245998D-05 0.000000000000D+00 0.000000000000D+00 0.517088194036D-07 0.000000000000D+00  7 -2 2 23 -11 11 23 21 0 0.63737276D-01 0.17592898D-01 0.35021579D+05 0.35021579D+05 0.35021579D+05 0.11611505D+01  1  2  2  1  7  1       -2 0.534898414561D-03 0.100000000000D+01
-.310322299812D-06 0.000000000000D+00 -.220632054008D-07 0.517088194036D-07 0.000000000000D+00  7 -2 2 23 -11 11 23 21 2 0.63737276D-01 0.17592898D-01 0.35021579D+05 0.35021579D+05 0.35021579D+05 0.11611505D+01  1  2  3  1  7  1       -2 -.389541519316D-04 0.100000000000D+01
0.363154924377D-06 0.000000000000D+00 0.000000000000D+00 0.517088194036D-07 0.000000000000D+00  7 -2 2 23 -11 11 23 21 2 0.63737276D-01 0.17592898D-01 0.35021579D+05 0.35021579D+05 0.35021579D+05 0.11611505D+01  1  2 15  1  7  1       -2 0.455861280593D-04 0.100000000000D+01
  </mgrwgt>
  </event>
  <event>
  8     66 0.27870365E-05 0.25323924E+03 0.75467711E-02 0.95046361E-01
       -2 -1    0    0    0  501 0.00000000E+00 0.00000000E+00 0.32504661E+03 0.32504677E+03 0.32000000E+00 0.0000E+00 0.9000E+01
        2 -1    0    0  501    0 0.00000000E+00 0.00000000E+00 -.99399751E+03 0.99399756E+03 0.32000000E+00 0.0000E+00 0.9000E+01
       25  2    1    2    0    0 -.11256431E+03 -.12091589E+03 -.93327911E+03 0.99427359E+03 0.30046415E+03 0.0000E+00 0.0000E+00
       23  2    3    3    0    0 -.48014305E+02 -.16929419E+03 -.73742692E+03 0.76366463E+03 0.91756751E+02 0.0000E+00 0.0000E+00
       23  1    1    2    0    0 0.11256431E+03 0.12091589E+03 0.26432821E+03 0.32477074E+03 0.91188000E+02 0.0000E+00 0.9000E+01
      -11  1    4    4    0    0 0.22271637E+02 -.16087710E+02 -.15162640E+03 0.15409544E+03 0.51099893E-03 0.0000E+00 0.9000E+01
       11  1    4    4    0    0 -.70285942E+02 -.15320648E+03 -.58580052E+03 0.60956919E+03 0.51099893E-03 0.0000E+00 0.9000E+01
       23  1    3    3    0    0 -.64550008E+02 0.48378303E+02 -.19585218E+03 0.23060896E+03 0.91188000E+02 0.0000E+00 0.9000E+01
#aMCatNLO 1  0  0  2  2 0.33249436D+03 0.00000000D+00  -5  7  0 0.00000000D+00 0.00000000D+00 0.00000000D+00 0.00000000D+00 0.00000000D+00
  <mgrwgt>
 0.5489914095D-03    3    2    0
 0.568415039523939D+03 0.000000000000000D+00 0.000000000000000D+00 0.568415039523939D+03
 0.568415039523939D+03 0.000000000000000D+00 0.000000000000000D+00 -.568415039523939D+03
 0.532365917517404D+03 0.112564313215742D+03 0.120915888568687D+03 0.497802010916047D+03
 0.895719645107734D+02 0.222716368256277D+02 -.160877095142082D+02 -.852543055922283D+02
 0.362566928525769D+03 -.702859422933767D+02 -.153206482505793D+03 -.321002239392101D+03
 0.152325268493933D+03 -.645500077479933D+02 0.483783034513142D+02 -.915454659317176D+02
 0.000000000000000D+00 -.000000000000000D+00 0.000000000000000D+00 0.000000000000000D+00
 0.110900944500393D+04 0.000000000000000D+00 0.000000000000000D+00 0.110900944500393D+04
 0.645709056518513D+03 0.000000000000000D+00 0.000000000000000D+00 -.645709056518513D+03
 0.571780959016013D+03 0.258986032432602D+03 0.611359688074862D+02 0.497802010916047D+03
 0.101133581858839D+03 0.475612378353210D+02 -.264127509577742D+02 -.852543055922283D+02
 0.375661319584246D+03 0.276110418488842D+02 -.193175101151913D+03 -.321002239392101D+03
 0.135879764370727D+03 -.263309290222674D+02 0.327745154901369D+02 -.915454659317176D+02
 0.570262876692615D+03 -.307827383094540D+03 0.125677367812064D+03 0.463300388485414D+03
0.407028668046D-04 0.000000000000D+00 0.000000000000D+00 0.153485856994D-05 0.000000000000D+00  7 -2 2 23 -11 11 23 21 0 0.50007187D-01 0.15292271D+00 0.64130114D+05 0.64130114D+05 0.64130114D+05 0.11379073D+01  1  2  2  2  7  2        2 0.517018877715D-03 0.100000000000D+01
-.464003758710D-06 0.000000000000D+00 -.156309725841D-06 0.153485856994D-05 0.000000000000D+00  7 -2 2 23 -11 11 23 21 2 0.50007187D-01 0.15292271D+00 0.64130114D+05 0.64130114D+05 0.64130114D+05 0.11379073D+01  1  2  3  2  7  2        2 -.763161899301D-05 0.100000000000D+01
0.240793923565D-05 0.000000000000D+00 0.000000000000D+00 0.153485856994D-05 0.000000000000D+00  7 -2 2 23 -11 11 23 21 2 0.50007187D-01 0.15292271D+00 0.64130114D+05 0.64130114D+05 0.64130114D+05 0.11379073D+01  1  2 15  2  7  2        2 0.396041507420D-04 0.100000000000D+01
  </mgrwgt>
  </event>
  <event>
  8     66 0.27870365E-05 0.15548953E+03 0.75467711E-02 0.10229567E+00
       -2 -1    0    0    0  501 0.00000000E+00 0.00000000E+00 0.20451916E+02 0.20454419E+02 0.32000000E+00 0.0000E+00 0.9000E+01
        2 -1    0    0  501    0 0.00000000E+00 0.00000000E+00 -.19641187E+04 0.19641188E+04 0.32000000E+00 0.0000E+00 0.9000E+01
       25  2    1    2    0    0 -.14968324E+02 -.18636954E+02 -.16064857E+04 0.16344622E+04 0.30016458E+03 0.0000E+00 0.0000E+00
       23  2    3    3    0    0 0.12993667E+02 0.73130653E+02 -.31755397E+03 0.33875251E+03 0.91628664E+02 0.0000E+00 0.0000E+00
       23  1    1    2    0    0 0.14968324E+02 0.18636954E+02 -.33718111E+03 0.35011104E+03 0.91188000E+02 0.0000E+00 0.9000E+01
      -13  1    4    4    0    0 -.32302115E+01 -.42226258E+01 -.18022762E+03 0.18030605E+03 0.10565837E+00 0.0000E+00 0.9000E+01
       13  1    4    4    0    0 0.16223878E+02 0.77353279E+02 -.13732635E+03 0.15844646E+03 0.10565837E+00 0.0000E+00 0.9000E+01
       23  1    3    3    0    0 -.27961991E+02 -.91767607E+02 -.12889318E+04 0.12957096E+04 0.91188000E+02 0.0000E+00 0.9000E+01
#aMCatNLO 1  0  0  2  2 0.17506898D+03 0.00000000D+00  -5  7  0 0.00000000D+00 0.00000000D+00 0.00000000D+00 0.00000000D+00 0.00000000D+00
  <mgrwgt>
 0.1295572114D-02    3    2    0
 0.200430787636506D+03 0.000000000000000D+00 0.000000000000000D+00 0.200430787636506D+03
 0.200430787636506D+03 0.000000000000000D+00 0.000000000000000D+00 -.200430787636506D+03
 0.984214165627373D+02 0.149686546704714D+02 0.186373653685790D+02 0.282862490212141D+02
 0.187797489588203D+02 -.323027945237149D+01 -.422276883984895D+01 -.180114543816178D+02
 0.118574027861546D+03 0.162237534655341D+02 0.773530603705221D+02 0.883917075189447D+02
 0.165086381889907D+03 -.279621286836340D+02 -.917676568992522D+02 -.986665021585410D+02
 0.000000000000000D+00 0.000000000000000D+00 -.000000000000000D+00 0.000000000000000D+00
 0.691642369097972D+03 0.000000000000000D+00 0.000000000000000D+00 0.691642369097972D+03
 0.234913365372738D+03 0.000000000000000D+00 0.000000000000000D+00 -.234913365372738D+03
 0.105974170197704D+03 -.216476054867258D+02 0.405776132626462D+02 0.282862490212141D+02
 0.207548571639047D+02 -.103126702512426D+02 0.209581039402638D-01 -.180114543816178D+02
 0.140674846424233D+03 -.302191486379952D+02 0.105181374368096D+03 0.883917075189447D+02
 0.170019434176372D+03 -.879943531350064D+02 -.557967008146915D+02 -.986665021585410D+02
 0.489132426508497D+03 0.150173777510970D+03 -.899832449199906D+02 0.456729003725233D+03
0.397997395317D-05 0.000000000000D+00 0.000000000000D+00 0.122049807127D-06 0.000000000000D+00  7 -2 2 23 -13 13 23 21 0 0.31466431D-02 0.30217231D+00 0.24176993D+05 0.24176993D+05 0.24176993D+05 0.11761325D+01  1  2  2  2  7  2        2 0.127915835452D-02 0.100000000000D+01
-.203780305273D-06 0.000000000000D+00 -.152841479314D-07 0.122049807127D-06 0.000000000000D+00  7 -2 2 23 -13 13 23 21 2 0.31466431D-02 0.30217231D+00 0.24176993D+05 0.24176993D+05 0.24176993D+05 0.11761325D+01  1  2  3  2  7  2        2 -.905980340774D-04 0.100000000000D+01
0.240699439131D-06 0.000000000000D+00 0.000000000000D+00 0.122049807127D-06 0.000000000000D+00  7 -2 2 23 -13 13 23 21 2 0.31466431D-02 0.30217231D+00 0.24176993D+05 0.24176993D+05 0.24176993D+05 0.11761325D+01  1  2 15  2  7  2        2 0.107011793704D-03 0.100000000000D+01
  </mgrwgt>
  </event>
  <event>
  8     66 0.27870365E-05 0.19197178E+03 0.75467711E-02 0.10183466E+00
       -2 -1    0    0    0  502 0.00000000E+00 0.00000000E+00 0.11165912E+04 0.11165913E+04 0.32000000E+00 0.0000E+00 0.9000E+01
        2 -1    0    0  501    0 0.00000000E+00 0.00000000E+00 -.99999226E+02 0.99999738E+02 0.32000000E+00 0.0000E+00 0.9000E+01
       25  2    1    2    0    0 -.10054227E+03 -.22445577E+02 0.60648578E+03 0.68392977E+03 0.29886848E+03 0.0000E+00 0.0000E+00
       23  1    1    2    0    0 -.49009138E+02 0.31906687E+02 0.14090421E+02 0.10924158E+03 0.91188000E+02 0.0000E+00 0.9000E+01
      -11  1    3    3    0    0 0.22351135E+02 -.38599740E+02 0.20089605E+03 0.20578809E+03 0.51099893E-03 0.0000E+00 0.9000E+01
       11  1    3    3    0    0 -.14871336E+03 -.20247102E+02 0.21507655E+03 0.26226615E+03 0.51099893E-03 0.0000E+00 0.9000E+01
       23  1    3    3    0    0 0.25819956E+02 0.36401264E+02 0.19051318E+03 0.21587553E+03 0.91188000E+02 0.0000E+00 0.9000E+01
       21  1    1    2  501  502 0.14955141E+03 -.94611094E+01 0.39601581E+03 0.42341967E+03 0.75000000E+00 0.0000E+00 0.9000E+01
#aMCatNLO 2  0  0  1  2 0.14985038D+03 0.00000000D+00  -5  7  0 0.00000000D+00 0.00000000D+00 0.00000000D+00 0.00000000D+00 0.00000000D+00
  <mgrwgt>
 0.5316911511D-04    2    2    0
 0.235345930411401D+03 0.000000000000000D+00 0.000000000000000D+00 0.235345930411401D+03
 0.235345930411401D+03 0.000000000000000D+00 0.000000000000000D+00 -.235345930411401D+03
 0.149294818625476D+03 -.141446009642988D+01 0.288956924580794D+02 -.114615573917411D+03
 0.897863778545521D+02 0.483705966031497D+02 -.402458306875540D+02 0.640480455967590D+02
 0.111541919865480D+03 -.108023677018614D+03 -.228213029268939D+02 0.158642120313071D+02
 0.120068744477293D+03 0.610675405118947D+02 0.341714411563685D+02 0.347033162893454D+02
 0.000000000000000D+00 0.000000000000000D+00 -.000000000000000D+00 0.000000000000000D+00
 0.390141000515305D+03 0.000000000000000D+00 0.000000000000000D+00 0.390141000515305D+03
 0.286199196449633D+03 0.000000000000000D+00 0.000000000000000D+00 -.286199196449633D+03
 0.157708317518494D+03 -.490091381186815D+02 0.319066868690625D+02 -.114615573917411D+03
 0.780491081449876D+02 0.223510711442626D+02 -.385997507267543D+02 0.640480455967590D+02
 0.150921444688819D+03 -.148713356888010D+03 -.202471411978417D+02 0.158642120313071D+02
 0.107290728262001D+03 0.258200149124787D+02 0.364013144739526D+02 0.347033162893454D+02
 0.182370598350637D+03 0.149551408949951D+03 -.946110941841913D+01 0.103941804065672D+03
-.424973300235D-06 0.000000000000D+00 0.000000000000D+00 0.142098067660D-10 0.000000000000D+00  7 -2 2 23 -11 11 23 21 2 0.17692841D+00 0.12650908D-01 0.76837625D+05 0.76837625D+05 0.76837625D+05 0.11312347D+01  1  2 13  1  7  1       -2 -.624688243540D-05 0.100000000000D+01
0.472173700953D-05 0.000000000000D+00 0.000000000000D+00 0.142098067660D-10 0.484986449633D-14  7 -2 2 23 -11 11 23 21 2 0.17178288D+00 0.15384501D-01 0.76837625D+05 0.76837625D+05 0.76837625D+05 0.11312347D+01  1  2  1  1  7  1       -2 0.594159975457D-04 0.100000000000D+01
  </mgrwgt>
  </event>
  <event>
  8     66 0.27870365E-05 0.14236359E+03 0.75467711E-02 0.95263149E-01
       -2 -1    0    0    0  501 0.00000000E+00 0.00000000E+00 0.33506613E+03 0.33506628E+03 0.32000000E+00 0.0000E+00 0.9000E+01
        2 -1    0    0  501    0 0.00000000E+00 0.00000000E+00 -.99369970E+03 0.99369975E+03 0.32000000E+00 0.0000E+00 0.9000E+01
       25  2    1    2    0    0 -.29227161E+03 -.20200014E+00 -.86404860E+03 0.96007467E+03 0.29956746E+03 0.0000E+00 0.0000E+00
       23  2    3    3    0    0 -.28457662E+03 -.58540185E+02 -.56322761E+03 0.64027618E+03 0.91200030E+02 0.0000E+00 0.0000E+00
       23  1    1    2    0    0 0.29227161E+03 0.20200014E+00 0.20541503E+03 0.36869136E+03 0.91188000E+02 0.0000E+00 0.9000E+01
      -13  1    4    4    0    0 -.15953385E+01 0.72159193E+01 -.49857485E+02 0.50402327E+02 0.10565837E+00 0.0000E+00 0.9000E+01
       13  1    4    4    0    0 -.28298128E+03 -.65756104E+02 -.51337012E+03 0.58987385E+03 0.10565837E+00 0.0000E+00 0.9000E+01
       23  1    3    3    0    0 -.76949938E+01 0.58338185E+02 -.30082099E+03 0.31979849E+03 0.91188000E+02 0.0000E+00 0.9000E+01
#aMCatNLO 1  0  0  1  2 0.19479962D+03 0.00000000D+00  -5  7  0 0.00000000D+00 0.00000000D+00 0.00000000D+00 0.00000000D+00 0.00000000D+00
  <mgrwgt>
 0.6443909699D-03    9    2    0
 0.577022747389839D+03 0.000000000000000D+00 0.000000000000000D+00 0.577022747389839D+03
 0.577022747389839D+03 0.000000000000000D+00 0.000000000000000D+00 -.577022747389839D+03
 0.541744496020817D+03 0.292271613014849D+03 0.202000143418076D+00 0.446933005098627D+03
 0.295781533495334D+02 -.159496079461705D+01 0.721601722146104D+01 -.286400480287957D+02
 0.386191101241996D+03 -.282981658421204D+03 -.657562023299626D+02 -.254442664525491D+03
 0.196531744167331D+03 -.769499379902771D+01 0.583381849650835D+02 -.163850292544341D+03
 0.000000000000000D+00 -.000000000000000D+00 -.000000000000000D+00 0.000000000000000D+00
 0.755471894816199D+03 0.000000000000000D+00 0.000000000000000D+00 0.755471894816199D+03
 0.640895792140321D+03 0.000000000000000D+00 0.000000000000000D+00 -.640895792140321D+03
 0.594278597254347D+03 0.378834725976774D+03 0.398364049357705D+02 0.446933005098627D+03
 0.302588621291081D+02 0.296452251240716D+01 0.930365479422321D+01 -.286400480287957D+02
 0.343602962750047D+03 -.227372537115266D+03 -.402946131082807D+02 -.254442664525491D+03
 0.202230415155486D+03 0.226900345043022D+02 0.722504909138190D+02 -.163850292544341D+03
 0.225996849667532D+03 -.177116745878218D+03 -.810959375355320D+02 0.114576102675877D+03
0.575857910130D-04 0.000000000000D+00 0.000000000000D+00 0.242607857154D-05 0.000000000000D+00  7 -2 2 23 -13 13 23 21 0 0.51548651D-01 0.15287689D+00 0.12695093D+06 0.12695093D+06 0.12695093D+06 0.11133154D+01  1  2  2  1  7  1       -2 0.675150412330D-03 0.100000000000D+01
-.229513378518D-05 0.000000000000D+00 -.221144600177D-06 0.242607857154D-05 0.000000000000D+00  7 -2 2 23 -13 13 23 21 2 0.51548651D-01 0.15287689D+00 0.12695093D+06 0.12695093D+06 0.12695093D+06 0.11133154D+01  1  2  3  1  7  1       -2 -.333525986416D-04 0.100000000000D+01
0.341569604605D-05 0.000000000000D+00 0.000000000000D+00 0.242607857154D-05 0.000000000000D+00  7 -2 2 23 -13 13 23 21 2 0.51548651D-01 0.15287689D+00 0.12695093D+06 0.12695093D+06 0.12695093D+06 0.11133154D+01  1  2 15  1  7  1       -2 0.496364700137D-04 0.100000000000D+01
0.252221614839D-04 0.000000000000D+00 0.000000000000D+00 0.242607857154D-05 0.000000000000D+00  7 -2 2 23 -13 13 23 21 2 0.69661558D-01 0.15287689D+00 0.22358676D+06 0.22358676D+06 0.22358676D+06 0.10941261D+01  1  2 12  1  7  1       -2 0.186441639650D-03 0.100000000000D+01
-.483911865642D-04 0.000000000000D+00 0.000000000000D+00 0.242607857154D-05 0.000000000000D+00  7 -2 2 23 -13 13 23 21 2 0.51548651D-01 0.15287689D+00 0.12695093D+06 0.12695093D+06 0.12695093D+06 0.11133154D+01  1  2  4  1  7  1       -2 -.703214703076D-03 0.100000000000D+01
-.548190208544D-04 0.000000000000D+00 -.256308624429D-04 0.242607857154D-05 0.000000000000D+00  7 -2 2 23 -13 13 23 21 2 0.73533669D-01 0.15287689D+00 0.12695093D+06 0.12695093D+06 0.12695093D+06 0.11133154D+01  1  2  5  1  7  1       -2 -.381280028401D-03 0.100000000000D+01
0.615364177150D-04 0.000000000000D+00 0.240946850927D-04 0.242607857154D-05 0.000000000000D+00  7 -2 2 23 -13 13 23 21 2 0.51548651D-01 0.15287689D+00 0.12695093D+06 0.12695093D+06 0.12695093D+06 0.11133154D+01  1  2  6  1  7  1       -2 0.894239566837D-03 0.100000000000D+01
0.977603476713D-06 0.000000000000D+00 0.000000000000D+00 0.242607857154D-05 0.000000000000D+00  7 21 2 23 -13 13 23 2 2 0.69661558D-01 0.15287689D+00 0.22358676D+06 0.22358676D+06 0.22358676D+06 0.10941261D+01  1  2 12  3  7  1       -2 0.715847560115D-04 0.100000000000D+01
-.165294494729D-05 0.000000000000D+00 -.111911008830D-05 0.242607857154D-05 0.000000000000D+00  7 21 2 23 -13 13 23 2 2 0.73533669D-01 0.15287689D+00 0.12695093D+06 0.12695093D+06 0.12695093D+06 0.11133154D+01  1  2  5  3  7  1       -2 -.114814544834D-03 0.100000000000D+01
  </mgrwgt>
  </event>
  <event>
  8     66 0.27870365E-05 0.99024004E+02 0.75467711E-02 0.10046041E+00
       -2 -1    0    0    0  501 0.00000000E+00 0.00000000E+00 0.22121094E+03 0.22121117E+03 0.32000000E+00 0.0000E+00 0.9000E+01
        2 -1    0    0  501    0 0.00000000E+00 0.00000000E+00 -.41315388E+03 0.41315400E+03 0.32000000E+00 0.0000E+00 0.9000E+01
       25  2    1    2    0    0 -.11515915E+03 0.73319857E+02 0.59097287E+02 0.33440871E+03 0.29949835E+03 0.0000E+00 0.0000E+00
       23  2    3    3    0    0 0.17639485E+02 0.78027068E+02 -.59000387E+02 0.13460894E+03 0.90769738E+02 0.0000E+00 0.0000E+00
       23  1    1    2    0    0 0.11515915E+03 -.73319857E+02 -.25104023E+03 0.29995646E+03 0.91188000E+02 0.0000E+00 0.9000E+01
      -11  1    4    4    0    0 0.35256253E+02 -.27200134E+01 -.45849628E+01 0.35657029E+02 0.51099893E-03 0.0000E+00 0.9000E+01
       11  1    4    4    0    0 -.17616767E+02 0.80747082E+02 -.54415424E+02 0.98951908E+02 0.51099893E-03 0.0000E+00 0.9000E+01
       23  1    3    3    0    0 -.13279864E+03 -.47072115E+01 0.11809767E+03 0.19979977E+03 0.91188000E+02 0.0000E+00 0.9000E+01
#aMCatNLO 1  0  0  2  1 0.15536743D+03 0.00000000D+00  -5  7  0 0.00000000D+00 0.00000000D+00 0.00000000D+00 0.00000000D+00 0.00000000D+00
  <mgrwgt>
 0.1676856867D-03    9    2    0
 0.302314851207354D+03 0.000000000000000D+00 0.000000000000000D+00 0.302314851207354D+03
 0.302314851207354D+03 0.000000000000000D+00 0.000000000000000D+00 -.302314851207354D+03
 0.235014146118781D+03 0.115159154134899D+03 -.733198565780979D+02 -.168163507879211D+03
 0.359551076044894D+02 0.352562527155660D+02 -.272001342277679D+01 0.650906554633411D+01
 0.865438582158927D+02 -.176167673823443D+02 0.807470815496753D+02 -.256787406836666D+02
 0.247116590475546D+03 -.132798639468121D+03 -.470721154880064D+01 0.187333183016543D+03
 0.000000000000000D+00 -.000000000000000D+00 -.000000000000000D+00 -.000000000000000D+00
 0.339084496736828D+03 0.000000000000000D+00 0.000000000000000D+00 0.339084496736828D+03
 0.536074961167389D+03 0.000000000000000D+00 0.000000000000000D+00 -.536074961167389D+03
 0.237678980886214D+03 0.139789167355276D+03 -.188698150225930D+02 -.168163507879211D+03
 0.402201544364616D+02 0.392254191873147D+02 0.605469885178401D+01 0.650906554633411D+01
 0.106394607601740D+03 -.756357072616089D+01 0.102971875779261D+03 -.256787406836666D+02
 0.239978725855967D+03 -.107418189879519D+03 0.514018340465723D+02 0.187333183016543D+03
 0.250886989123835D+03 -.640328259369106D+02 -.141558593655024D+03 -.196990464430561D+03
0.402825571911D-05 0.000000000000D+00 0.000000000000D+00 0.228873763939D-06 0.000000000000D+00  7 -2 2 23 -11 11 23 21 0 0.34032479D-01 0.63562163D-01 0.49137876D+05 0.49137876D+05 0.49137876D+05 0.11479604D+01  1  2  2  2  7  2        2 0.297233904426D-03 0.100000000000D+01
-.197596689478D-06 0.000000000000D+00 -.154695626255D-07 0.228873763939D-06 0.000000000000D+00  7 -2 2 23 -11 11 23 21 2 0.34032479D-01 0.63562163D-01 0.49137876D+05 0.49137876D+05 0.49137876D+05 0.11479604D+01  1  2  3  2  7  2        2 -.192138673369D-04 0.100000000000D+01
0.252438208647D-06 0.000000000000D+00 0.000000000000D+00 0.228873763939D-06 0.000000000000D+00  7 -2 2 23 -11 11 23 21 2 0.34032479D-01 0.63562163D-01 0.49137876D+05 0.49137876D+05 0.49137876D+05 0.11479604D+01  1  2 15  2  7  2        2 0.245465359997D-04 0.100000000000D+01
0.829679479736D-06 0.000000000000D+00 0.000000000000D+00 0.228873763939D-06 0.000000000000D+00  7 -2 2 23 -11 11 23 21 2 0.34032479D-01 0.11397557D+00 0.94943738D+05 0.94943738D+05 0.94943738D+05 0.11235759D+01  1  2 12  2  7  2        2 0.396307189263D-04 0.100000000000D+01
-.378179627632D-05 0.000000000000D+00 0.000000000000D+00 0.228873763939D-06 0.000000000000D+00  7 -2 2 23 -11 11 23 21 2 0.34032479D-01 0.63562163D-01 0.49137876D+05 0.49137876D+05 0.49137876D+05 0.11479604D+01  1  2  4  2  7  2        2 -.367733549282D-03 0.100000000000D+01
-.331820725902D-05 0.000000000000D+00 -.133607292183D-05 0.228873763939D-06 0.000000000000D+00  7 -2 2 23 -11 11 23 21 2 0.34032479D-01 0.12102313D+00 0.49137876D+05 0.49137876D+05 0.49137876D+05 0.11479604D+01  1  2  5  2  7  2        2 -.155196435654D-03 0.100000000000D+01
0.363463338520D-05 0.000000000000D+00 0.110000206682D-05 0.228873763939D-06 0.000000000000D+00  7 -2 2 23 -11 11 23 21 2 0.34032479D-01 0.63562163D-01 0.49137876D+05 0.49137876D+05 0.49137876D+05 0.11479604D+01  1  2  6  2  7  2        2 0.353423753535D-03 0.100000000000D+01
0.531841156723D-07 0.000000000000D+00 0.000000000000D+00 0.228873763939D-06 0.000000000000D+00  7 -2 21 23 -11 11 23 -2 2 0.34032479D-01 0.11397557D+00 0.94943738D+05 0.94943738D+05 0.94943738D+05 0.11235759D+01  1  2 12  4  7  2        2 0.293154908875D-05 0.100000000000D+01
-.155645743622D-06 0.000000000000D+00 -.934633711546D-07 0.228873763939D-06 0.000000000000D+00  7 -2 21 23 -11 11 23 -2 2 0.34032479D-01 0.12102313D+00 0.49137876D+05 0.49137876D+05 0.49137876D+05 0.11479604D+01  1  2  5  4  7  2        2 -.793692296618D-05 0.100000000000D+01
  </mgrwgt>
  </event>
  <event>
  8     66 0.27870365E-05 0.12006438E+03 0.75467711E-02 0.10428680E+00
       -2 -1    0    0    0  501 0.00000000E+00 0.00000000E+00 0.86968077E+03 0.86968083E+03 0.32000000E+00 0.0000E+00 0.9000E+01
        2 -1    0    0  501    0 0.00000000E+00 0.00000000E+00 -.24591055E+03 0.24591076E+03 0.32000000E+00 0.0000E+00 0.9000E+01
       25  2    1    2    0    0 0.30003830E+02 -.11893477E+03 0.81087047E+03 0.87399799E+03 0.30218514E+03 0.0000E+00 0.0000E+00
       23  2    3    3    0    0 -.24099171E+01 0.45640995E+02 0.49091502E+03 0.50140897E+03 0.91238671E+02 0.0000E+00 0.0000E+00
       23  1    1    2    0    0 -.30003830E+02 0.11893477E+03 -.18710025E+03 0.24159359E+03 0.91188000E+02 0.0000E+00 0.9000E+01
      -11  1    4    4    0    0 0.29114378E+01 -.16793156E+02 0.29979658E+03 0.30028067E+03 0.51099893E-03 0.0000E+00 0.9000E+01
       11  1    4    4    0    0 -.53213549E+01 0.62434151E+02 0.19111843E+03 0.20112831E+03 0.51099893E-03 0.0000E+00 0.9000E+01
       23  1    3    3    0    0 0.32413747E+02 -.16457577E+03 0.31995546E+03 0.37258902E+03 0.91188000E+02 0.0000E+00 0.9000E+01
#aMCatNLO 1  0  0  2  1 0.36532410D+02 0.00000000D+00  -5  7  0 0.00000000D+00 0.00000000D+00 0.00000000D+00 0.00000000D+00 0.00000000D+00
  <mgrwgt>
 0.2847610772D-03    9    2    0
 0.462454132727271D+03 0.000000000000000D+00 0.000000000000000D+00 0.462454132727271D+03
 0.462454132727271D+03 0.000000000000000D+00 0.000000000000000D+00 -.462454132727271D+03
 0.417584488959210D+03 -.300038300913045D+02 0.118934772795358D+03 -.388607570789985D+03
 0.160001167772830D+03 0.291143778933238D+01 -.167931559410506D+02 0.159090814103793D+03
 0.113701068841038D+03 -.532135485087875D+01 0.624341513254628D+02 0.948767252091610D+02
 0.233621539881463D+03 0.324137471528509D+02 -.164575768179771D+03 0.134640031477030D+03
 0.000000000000000D+00 -.000000000000000D+00 -.000000000000000D+00 -.000000000000000D+00
 0.469523768436532D+03 0.000000000000000D+00 0.000000000000000D+00 0.469523768436532D+03
 0.512546826729169D+03 0.000000000000000D+00 0.000000000000000D+00 -.512546826729169D+03
 0.417946485120012D+03 -.140410073404983D+02 0.123089476064135D+03 -.388607570789985D+03
 0.160070145385106D+03 0.902640156453943D+01 -.152015915678873D+02 0.159090814103793D+03
 0.114207473441758D+03 -.967161198316514D+00 0.635674335076679D+02 0.948767252091610D+02
 0.233405366480163D+03 0.413362981502255D+02 -.162253462634359D+03 0.134640031477030D+03
 0.564411247386609D+02 -.353545311759501D+02 -.920185536955665D+01 -.430230582926366D+02
0.362107060560D-04 0.000000000000D+00 0.000000000000D+00 0.102183384187D-06 0.000000000000D+00  7 -2 2 23 -11 11 23 21 0 0.13379706D+00 0.37832413D-01 0.44831453D+05 0.44831453D+05 0.44831453D+05 0.11514870D+01  1  2  2  2  7  2        2 0.252492450708D-03 0.100000000000D+01
-.518956637356D-06 0.000000000000D+00 -.139058645753D-06 0.102183384187D-06 0.000000000000D+00  7 -2 2 23 -11 11 23 21 2 0.13379706D+00 0.37832413D-01 0.44831453D+05 0.44831453D+05 0.44831453D+05 0.11514870D+01  1  2  3  2  7  2        2 -.479800354404D-05 0.100000000000D+01
0.221673777101D-05 0.000000000000D+00 0.000000000000D+00 0.102183384187D-06 0.000000000000D+00  7 -2 2 23 -11 11 23 21 2 0.13379706D+00 0.37832413D-01 0.44831453D+05 0.44831453D+05 0.44831453D+05 0.11514870D+01  1  2 15  2  7  2        2 0.204948061474D-04 0.100000000000D+01
0.184000950439D-03 0.000000000000D+00 0.000000000000D+00 0.102183384187D-06 0.000000000000D+00  7 -2 2 23 -11 11 23 21 2 0.13379706D+00 0.42199697D-01 0.53424076D+05 0.53424076D+05 0.53424076D+05 0.11447736D+01  1  2 12  2  7  2        2 0.148554103065D-02 0.100000000000D+01
-.188754842257D-03 0.000000000000D+00 0.000000000000D+00 0.102183384187D-06 0.000000000000D+00  7 -2 2 23 -11 11 23 21 2 0.13379706D+00 0.37832413D-01 0.44831453D+05 0.44831453D+05 0.44831453D+05 0.11514870D+01  1  2  4  2  7  2        2 -.174512923992D-02 0.100000000000D+01
-.268073674289D-03 0.000000000000D+00 -.449169619886D-04 0.102183384187D-06 0.000000000000D+00  7 -2 2 23 -11 11 23 21 2 0.13379706D+00 0.42417648D-01 0.44831453D+05 0.44831453D+05 0.44831453D+05 0.11514870D+01  1  2  5  2  7  2        2 -.218789492802D-02 0.100000000000D+01
0.271724452522D-03 0.000000000000D+00 0.446246427511D-04 0.102183384187D-06 0.000000000000D+00  7 -2 2 23 -11 11 23 21 2 0.13379706D+00 0.37832413D-01 0.44831453D+05 0.44831453D+05 0.44831453D+05 0.11514870D+01  1  2  6  2  7  2        2 0.251222316540D-02 0.100000000000D+01
0.322433992974D-05 0.000000000000D+00 0.000000000000D+00 0.102183384187D-06 0.000000000000D+00  7 -2 21 23 -11 11 23 -2 2 0.13379706D+00 0.42199697D-01 0.53424076D+05 0.53424076D+05 0.53424076D+05 0.11447736D+01  1  2 12  4  7  2        2 0.101675265526D-03 0.100000000000D+01
-.469502019823D-05 0.000000000000D+00 -.818543042031D-06 0.102183384187D-06 0.000000000000D+00  7 -2 21 23 -11 11 23 -2 2 0.13379706D+00 0.42417648D-01 0.44831453D+05 0.44831453D+05 0.44831453D+05 0.11514870D+01  1  2  5  4  7  2        2 -.149843469707D-03 0.100000000000D+01
  </mgrwgt>
  </event>
  <event>
  9     66 0.27870365E-05 0.23829644E+03 0.75467711E-02 0.98201865E-01
       21 -1    0    0  502  501 0.00000000E+00 0.00000000E+00 0.51871605E+03 0.51871660E+03 0.75000000E+00 0.0000E+00 0.9000E+01
        2 -1    0    0  501    0 0.00000000E+00 0.00000000E+00 -.74683729E+03 0.74683736E+03 0.32000000E+00 0.0000E+00 0.9000E+01
       25  2    1    2    0    0 -.37365234E+02 0.87060364E+02 -.37374690E+03 0.48874958E+03 0.30035602E+03 0.0000E+00 0.0000E+00
       23  2    3    3    0    0 -.12828324E+03 0.27587395E+02 -.12465882E+03 0.20210827E+03 0.89945975E+02 0.0000E+00 0.0000E+00
       23  1    1    2    0    0 0.23084736E+03 -.76654960E+02 0.38773159E+03 0.46670925E+03 0.91188000E+02 0.0000E+00 0.9000E+01
      -11  1    4    4    0    0 -.13144313E+03 0.18029337E+02 -.77003080E+02 0.15340087E+03 0.51099893E-03 0.0000E+00 0.9000E+01
       11  1    4    4    0    0 0.31598910E+01 0.95580584E+01 -.47655737E+02 0.48707398E+02 0.51099893E-03 0.0000E+00 0.9000E+01
       23  1    3    3    0    0 0.90918001E+02 0.59472969E+02 -.24908809E+03 0.28664131E+03 0.91188000E+02 0.0000E+00 0.9000E+01
        2  1    1    2  502    0 -.19348213E+03 -.10405404E+02 -.24210593E+03 0.31009513E+03 0.32000000E+00 0.0000E+00 0.9000E+01
#aMCatNLO 2  0  0  1  1 0.19376172D+03 0.00000000D+00  -5  7  0 0.00000000D+00 0.00000000D+00 0.00000000D+00 0.00000000D+00 0.00000000D+00
  <mgrwgt>
 0.1261272054D-03    1    2    0
 0.467750574760066D+03 0.000000000000000D+00 0.000000000000000D+00 0.467750574760066D+03
 0.467750574760066D+03 0.000000000000000D+00 0.000000000000000D+00 -.467750574760066D+03
 0.423978053965825D+03 0.140283375525574D+03 -.815254608293666D+02 0.380941350719973D+03
 0.184809364090262D+03 -.166167530847230D+03 0.161618699846893D+02 -.792568401223504D+02
 0.496990584965917D+02 -.698147118105270D+01 0.901265935892078D+01 -.483738301861226D+02
 0.277014672967454D+03 0.328656265027089D+02 0.563509314857565D+02 -.253310680411500D+03
 0.000000000000000D+00 -.000000000000000D+00 -.000000000000000D+00 -.000000000000000D+00
 0.511178786142361D+03 0.000000000000000D+00 0.000000000000000D+00 0.511178786142361D+03
 0.757849844075700D+03 0.000000000000000D+00 0.000000000000000D+00 -.757849844075700D+03
 0.461083562193962D+03 0.230847361694268D+03 -.766549599954974D+02 0.380941350719973D+03
 0.154544489147323D+03 -.131443126229786D+03 0.180293368310562D+02 -.792568401223504D+02
 0.494102098640773D+02 0.315989100788730D+01 0.955805841971075D+01 -.483738301861226D+02
 0.290318220321777D+03 0.909180008942507D+02 0.594729687308423D+02 -.253310680411500D+03
 0.313672148690921D+03 -.193482127366620D+03 -.104054039861118D+02 -.246671057933338D+03
0.153080894967D-05 0.000000000000D+00 0.000000000000D+00 0.889235732009D-06 0.371025527460D-11  7 21 2 23 -11 11 23 2 2 0.79802505D-01 0.11489807D+00 0.13620312D+06 0.13620312D+06 0.13620312D+06 0.11108740D+01  1  2  1  3  7  1       -2 0.126127205378D-03 0.100000000000D+01
  </mgrwgt>
  </event>
  <event>
  8     66 0.27870365E-05 0.12174953E+03 0.75467711E-02 0.10001015E+00
       -2 -1    0    0    0  501 0.00000000E+00 0.00000000E+00 0.13981755E+03 0.13981791E+03 0.32000000E+00 0.0000E+00 0.9000E+01
        2 -1    0    0  501    0 0.00000000E+00 0.00000000E+00 -.22848741E+04 0.22848741E+04 0.32000000E+00 0.0000E+00 0.9000E+01
       25  2    1    2    0    0 0.23837208E+03 0.40017137E+02 -.21314776E+04 0.21659987E+04 0.29988456E+03 0.0000E+00 0.0000E+00
       23  2    3    3    0    0 0.20538437E+03 -.63178603E+02 -.10863685E+04 0.11113395E+04 0.93299383E+02 0.0000E+00 0.0000E+00
       23  1    1    2    0    0 -.23837208E+03 -.40017137E+02 -.13578928E+02 0.25869337E+03 0.91188000E+02 0.0000E+00 0.9000E+01
      -13  1    4    4    0    0 0.10299266E+03 -.44539426E+02 -.34725489E+03 0.36493454E+03 0.10565837E+00 0.0000E+00 0.9000E+01
       13  1    4    4    0    0 0.10239171E+03 -.18639177E+02 -.73911358E+03 0.74640497E+03 0.10565837E+00 0.0000E+00 0.9000E+01
       23  1    3    3    0    0 0.32987711E+02 0.10319574E+03 -.10451091E+04 0.10546592E+04 0.91188000E+02 0.0000E+00 0.9000E+01
#aMCatNLO 1  0  0  2  1 0.21322136D+02 0.00000000D+00  -5  7  0 0.00000000D+00 0.00000000D+00 0.00000000D+00 0.00000000D+00 0.00000000D+00
  <mgrwgt>
 0.7303919307D-03    9    2    0
 0.565213204335583D+03 0.000000000000000D+00 0.000000000000000D+00 0.565213204335583D+03
 0.565213204335583D+03 0.000000000000000D+00 0.000000000000000D+00 -.565213204335583D+03
 0.529113773649290D+03 -.238372081448473D+03 -.400171372810902D+02 0.461761316733159D+03
 0.123822646801496D+03 0.102992663996973D+03 -.445394587660912D+02 -.523526086891407D+02
 0.198475426501644D+03 0.102391706017922D+03 -.186391439008306D+02 -.169000046681630D+03
 0.279014561718735D+03 0.329877114335781D+02 0.103195739948012D+03 -.240408661362388D+03
 0.000000000000000D+00 0.000000000000000D+00 0.000000000000000D+00 -.000000000000000D+00
 0.574278692452999D+03 0.000000000000000D+00 0.000000000000000D+00 0.574278692452999D+03
 0.577991819238577D+03 0.000000000000000D+00 0.000000000000000D+00 -.577991819238577D+03
 0.532263967193788D+03 -.243759093493292D+03 -.484527619136228D+02 0.461761316733159D+03
 0.123507146917271D+03 0.101737344117410D+03 -.465051880441482D+02 -.523526086891407D+02
 0.197767568147736D+03 0.100380578685295D+03 -.217884064465833D+02 -.169000046681630D+03
 0.277088797914912D+03 0.301652144268753D+02 0.987759381957787D+02 -.240408661362388D+03
 0.216430315178695D+02 0.114759562637111D+02 0.179704182085756D+02 -.371312678557810D+01
0.199253242155D-04 0.000000000000D+00 0.000000000000D+00 0.631748318292D-06 0.000000000000D+00  7 -2 2 23 -13 13 23 21 0 0.21510422D-01 0.35151912D+00 0.94934790D+05 0.94934790D+05 0.94934790D+05 0.11235793D+01  1  2  2  2  7  2        2 0.222369699641D-03 0.100000000000D+01
-.611505769940D-06 0.000000000000D+00 -.765184914458D-07 0.631748318292D-06 0.000000000000D+00  7 -2 2 23 -13 13 23 21 2 0.21510422D-01 0.35151912D+00 0.94934790D+05 0.94934790D+05 0.94934790D+05 0.11235793D+01  1  2  3  2  7  2        2 -.861545480756D-05 0.100000000000D+01
0.119038944543D-05 0.000000000000D+00 0.000000000000D+00 0.631748318292D-06 0.000000000000D+00  7 -2 2 23 -13 13 23 21 2 0.21510422D-01 0.35151912D+00 0.94934790D+05 0.94934790D+05 0.94934790D+05 0.11235793D+01  1  2 15  2  7  2        2 0.167712995930D-04 0.100000000000D+01
0.246961986157D-04 0.000000000000D+00 0.000000000000D+00 0.631748318292D-06 0.000000000000D+00  7 -2 2 23 -13 13 23 21 2 0.21510422D-01 0.36223103D+00 0.10189067D+06 0.10189067D+06 0.10189067D+06 0.11210551D+01  1  2 12  2  7  2        2 0.315892167319D-03 0.100000000000D+01
-.211221512864D-04 0.000000000000D+00 0.000000000000D+00 0.631748318292D-06 0.000000000000D+00  7 -2 2 23 -13 13 23 21 2 0.21510422D-01 0.35151912D+00 0.94934790D+05 0.94934790D+05 0.94934790D+05 0.11235793D+01  1  2  4  2  7  2        2 -.297588262928D-03 0.100000000000D+01
-.393172385865D-03 0.000000000000D+00 -.618901930835D-04 0.631748318292D-06 0.000000000000D+00  7 -2 2 23 -13 13 23 21 2 0.21510422D-01 0.36198710D+00 0.94934790D+05 0.94934790D+05 0.94934790D+05 0.11235793D+01  1  2  5  2  7  2        2 -.507844252853D-02 0.100000000000D+01
0.394845145596D-03 0.000000000000D+00 0.618635558832D-04 0.631748318292D-06 0.000000000000D+00  7 -2 2 23 -13 13 23 21 2 0.21510422D-01 0.35151912D+00 0.94934790D+05 0.94934790D+05 0.94934790D+05 0.11235793D+01  1  2  6  2  7  2        2 0.556294098124D-02 0.100000000000D+01
0.500818814421D-06 0.000000000000D+00 0.000000000000D+00 0.631748318292D-06 0.000000000000D+00  7 -2 21 23 -13 13 23 -2 2 0.21510422D-01 0.36223103D+00 0.10189067D+06 0.10189067D+06 0.10189067D+06 0.11210551D+01  1  2 12  4  7  2        2 0.928352591466D-06 0.100000000000D+01
-.205187281557D-05 0.000000000000D+00 -.326021881894D-06 0.631748318292D-06 0.000000000000D+00  7 -2 21 23 -13 13 23 -2 2 0.21510422D-01 0.36198710D+00 0.94934790D+05 0.94934790D+05 0.94934790D+05 0.11235793D+01  1  2  5  4  7  2        2 -.386432338779D-05 0.100000000000D+01
  </mgrwgt>
  </event>
  <event>
  8     66 0.27870365E-05 0.92381308E+03 0.75467711E-02 0.81277123E-01
       -2 -1    0    0    0  501 0.00000000E+00 0.00000000E+00 0.94280395E+03 0.94280400E+03 0.32000000E+00 0.0000E+00 0.9000E+01
        2 -1    0    0  501    0 0.00000000E+00 0.00000000E+00 -.10634225E+04 0.10634225E+04 0.32000000E+00 0.0000E+00 0.9000E+01
       25  2    1    2    0    0 0.82480421E+03 0.35719268E+03 0.32144815E+03 0.10004299E+04 0.29940363E+03 0.0000E+00 0.0000E+00
       23  2    3    3    0    0 0.44645328E+03 0.31808889E+03 0.20261532E+03 0.59163288E+03 0.92062071E+02 0.0000E+00 0.0000E+00
       23  1    1    2    0    0 -.82480421E+03 -.35719268E+03 -.44206669E+03 0.10057966E+04 0.91188000E+02 0.0000E+00 0.9000E+01
      -13  1    4    4    0    0 0.42706538E+03 0.28108547E+03 0.17052506E+03 0.53895517E+03 0.10565837E+00 0.0000E+00 0.9000E+01
       13  1    4    4    0    0 0.19387900E+02 0.37003428E+02 0.32090267E+02 0.52677707E+02 0.10565837E+00 0.0000E+00 0.9000E+01
       23  1    3    3    0    0 0.37835093E+03 0.39103789E+02 0.11883283E+03 0.40879705E+03 0.91188000E+02 0.0000E+00 0.9000E+01
#aMCatNLO 1  0  0  2  1 0.15763657D+04 0.00000000D+00  -5  7  0 0.00000000D+00 0.00000000D+00 0.00000000D+00 0.00000000D+00 0.00000000D+00
  <mgrwgt>
 0.5816062373D-03    5    2    0
 0.100129866425526D+04 0.000000000000000D+00 0.000000000000000D+00 0.100129866425526D+04
 0.100129866425526D+04 0.000000000000000D+00 0.000000000000000D+00 -.100129866425526D+04
 0.980993213126526D+03 -.824804208890322D+03 -.357192682191760D+03 -.382287637312236D+03
 0.550203450516072D+03 0.427065912886180D+03 0.281085786871904D+03 0.203296147108321D+03
 0.547053495194433D+02 0.193873630070209D+02 0.370031067801296D+02 0.353210349550630D+02
 0.416695315348474D+03 0.378350932997121D+03 0.391037885397270D+02 0.143670455248852D+03
 0.000000000000000D+00 0.000000000000000D+00 0.000000000000000D+00 -.000000000000000D+00
 0.147196644023850D+04 0.000000000000000D+00 0.000000000000000D+00 0.147196644023850D+04
 0.441706980162360D+04 0.000000000000000D+00 0.000000000000000D+00 -.441706980162360D+04
 0.193918054270550D+04 -.181797518556352D+04 -.548569332807742D+03 -.382287637312236D+03
 0.328250980200237D+03 0.128297579948804D+03 0.223515354176416D+03 0.203296147108321D+03
 0.491238702129803D+02 -.159256615563018D+02 0.301985499386821D+02 0.353210349550630D+02
 0.232037354154764D+03 0.157712535133443D+03 -.341158753566693D+01 0.143670455248852D+03
 0.334044349458861D+04 0.154789073203757D+04 0.298267016228310D+03 -.294510336138510D+04
0.654932252110D-03 0.000000000000D+00 0.000000000000D+00 0.189697110637D-05 0.000000000000D+00  7 -2 2 23 -13 13 23 21 0 0.14504677D+00 0.16360347D+00 0.85343060D+06 0.85343060D+06 0.85343060D+06 0.10524768D+01  1  2  2  2  7  2        2 0.577471787762D-03 0.100000000000D+01
-.360981364724D-04 0.000000000000D+00 -.251511229572D-05 0.189697110637D-05 0.000000000000D+00  7 -2 2 23 -13 13 23 21 2 0.14504677D+00 0.16360347D+00 0.85343060D+06 0.85343060D+06 0.85343060D+06 0.10524768D+01  1  2  3  2  7  2        2 -.352569107949D-04 0.100000000000D+01
0.406222920163D-04 0.000000000000D+00 0.000000000000D+00 0.189697110637D-05 0.000000000000D+00  7 -2 2 23 -13 13 23 21 2 0.14504677D+00 0.16360347D+00 0.85343060D+06 0.85343060D+06 0.85343060D+06 0.10524768D+01  1  2 15  2  7  2        2 0.396756360816D-04 0.100000000000D+01
-.157805357053D-03 0.000000000000D+00 -.233251230310D-03 0.189697110637D-05 0.000000000000D+00  7 -2 2 23 -13 13 23 21 2 0.14504677D+00 0.75168761D+00 0.85343060D+06 0.85343060D+06 0.85343060D+06 0.10524768D+01  1  2  5  2  7  2        2 -.283850261360D-06 0.100000000000D+01
-.320779680350D-04 0.000000000000D+00 -.430859299096D-04 0.189697110637D-05 0.000000000000D+00  7 -2 21 23 -13 13 23 -2 2 0.14504677D+00 0.75168761D+00 0.85343060D+06 0.85343060D+06 0.85343060D+06 0.10524768D+01  1  2  5  4  7  2        2 -.425452072410D-09 0.100000000000D+01
  </mgrwgt>
  </event>
  <event>
  8     66 0.27870365E-05 0.29339711E+03 0.75467711E-02 0.99015410E-01
       -2 -1    0    0    0  501 0.00000000E+00 0.00000000E+00 0.33042582E+03 0.33042598E+03 0.32000000E+00 0.0000E+00 0.9000E+01
        2 -1    0    0  501    0 0.00000000E+00 0.00000000E+00 -.27408982E+03 0.27409000E+03 0.32000000E+00 0.0000E+00 0.9000E+01
       25  2    1    2    0    0 0.43016065E+02 0.21569139E+03 0.67057562E+02 0.36618143E+03 0.28498941E+03 0.0000E+00 0.0000E+00
       23  2    3    3    0    0 -.35091610E+02 0.21922115E+03 0.53628261E+02 0.24531429E+03 0.89519702E+02 0.0000E+00 0.0000E+00
       23  1    1    2    0    0 -.43016065E+02 -.21569139E+03 -.10721555E+02 0.23833456E+03 0.91188000E+02 0.0000E+00 0.9000E+01
      -13  1    4    4    0    0 -.39139854E+02 0.22079573E+03 0.64728976E+02 0.23339352E+03 0.10565837E+00 0.0000E+00 0.9000E+01
       13  1    4    4    0    0 0.40482447E+01 -.15745878E+01 -.11100715E+02 0.11920766E+02 0.10565837E+00 0.0000E+00 0.9000E+01
       23  1    3    3    0    0 0.78107674E+02 -.35297555E+01 0.13429301E+02 0.12086714E+03 0.91188000E+02 0.0000E+00 0.9000E+01
#aMCatNLO 1  0  0  2  2 0.97345593D+02 0.00000000D+00  -5  7  0 0.00000000D+00 0.00000000D+00 0.00000000D+00 0.00000000D+00 0.00000000D+00
  <mgrwgt>
 0.4755722118D-02    4    2    0
 0.300942614757823D+03 0.000000000000000D+00 0.000000000000000D+00 0.300942614757823D+03
 0.300942614757823D+03 0.000000000000000D+00 0.000000000000000D+00 -.300942614757823D+03
 0.240379817510954D+03 -.430160656232299D+02 -.215691395821354D+03 -.330763539334943D+02
 0.228355365552836D+03 -.391399114249843D+02 0.220796042324588D+03 0.431665148490433D+02
 0.130115881974205D+02 0.404830535762127D+01 -.157489735297611D+01 -.122650866070443D+02
 0.120138458254435D+03 0.781076716905929D+02 -.352974915025771D+01 0.217492569149523D+01
 0.000000000000000D+00 0.000000000000000D+00 0.000000000000000D+00 0.000000000000000D+00
 0.378859874712019D+03 0.000000000000000D+00 0.000000000000000D+00 0.378859874712019D+03
 0.336864440221843D+03 0.000000000000000D+00 0.000000000000000D+00 -.336864440221843D+03
 0.254771071597836D+03 -.824863899030138D+02 -.220669431209544D+03 -.330763539334943D+02
 0.233134846410335D+03 -.759270175754298D+02 0.216156416996254D+03 0.431665148490433D+02
 0.125629364327100D+02 0.200966460657783D+01 -.183201269184601D+01 -.122650866070443D+02
 0.109237627348325D+03 0.598232483362015D+02 -.583579826872000D+01 0.217492569149523D+01
 0.106017833144656D+03 0.965804945356643D+02 0.121808251738565D+02 0.419954344901761D+02
0.131678908231D-03 0.000000000000D+00 0.000000000000D+00 0.343532156352D-09 0.000000000000D+00  7 -2 2 23 -13 13 23 21 0 0.50834769D-01 0.42167691D-01 0.86081867D+05 0.86081867D+05 0.86081867D+05 0.11271027D+01  1  2  2  2  7  2        2 0.715261666468D-02 0.100000000000D+01
-.730975983636D-05 0.000000000000D+00 -.505681679460D-06 0.343532156352D-09 0.000000000000D+00  7 -2 2 23 -13 13 23 21 2 0.50834769D-01 0.42167691D-01 0.86081867D+05 0.86081867D+05 0.86081867D+05 0.11271027D+01  1  2  3  2  7  2        2 -.504404392198D-03 0.100000000000D+01
0.850846896414D-05 0.000000000000D+00 0.000000000000D+00 0.343532156352D-09 0.000000000000D+00  7 -2 2 23 -13 13 23 21 2 0.50834769D-01 0.42167691D-01 0.86081867D+05 0.86081867D+05 0.86081867D+05 0.11271027D+01  1  2 15  2  7  2        2 0.587120399640D-03 0.100000000000D+01
-.359341788472D-04 0.000000000000D+00 0.000000000000D+00 0.343532156352D-09 0.000000000000D+00  7 -2 2 23 -13 13 23 21 2 0.50834769D-01 0.42167691D-01 0.86081867D+05 0.86081867D+05 0.86081867D+05 0.11271027D+01  1  2  4  2  7  2        2 -.247961055442D-02 0.100000000000D+01
  </mgrwgt>
  </event>
  <event>
  8     66 0.27870365E-05 0.12150549E+04 0.75467711E-02 0.82660994E-01
       -2 -1    0    0    0  501 0.00000000E+00 0.00000000E+00 0.85913604E+03 0.85913610E+03 0.32000000E+00 0.0000E+00 0.9000E+01
        2 -1    0    0  501    0 0.00000000E+00 0.00000000E+00 -.18751850E+04 0.18751850E+04 0.32000000E+00 0.0000E+00 0.9000E+01
       25  2    1    2    0    0 -.90586505E+03 0.79695247E+03 -.86740960E+03 0.15152503E+04 0.29641076E+03 0.0000E+00 0.0000E+00
       23  2    3    3    0    0 -.15266959E+03 0.93821652E+02 -.84845277E+02 0.21816954E+03 0.91042398E+02 0.0000E+00 0.0000E+00
       23  1    1    2    0    0 0.90586505E+03 -.79695247E+03 -.14863933E+03 0.12190708E+04 0.91188000E+02 0.0000E+00 0.9000E+01
      -13  1    4    4    0    0 -.13142085E+03 0.57088908E+02 -.26009246E+02 0.14562649E+03 0.10565837E+00 0.0000E+00 0.9000E+01
       13  1    4    4    0    0 -.21248746E+02 0.36732744E+02 -.58836031E+02 0.72543045E+02 0.10565837E+00 0.0000E+00 0.9000E+01
       23  1    3    3    0    0 -.75319546E+03 0.70313082E+03 -.78256433E+03 0.12970808E+04 0.91188000E+02 0.0000E+00 0.9000E+01
#aMCatNLO 1  0  0  1  2 0.79656612D+03 0.00000000D+00  -5  7  0 0.00000000D+00 0.00000000D+00 0.00000000D+00 0.00000000D+00 0.00000000D+00
  <mgrwgt>
 0.5178877755D-03    4    2    0
 0.126926715905169D+04 0.000000000000000D+00 0.000000000000000D+00 0.126926715905169D+04
 0.126926715905169D+04 0.000000000000000D+00 0.000000000000000D+00 -.126926715905169D+04
 0.125359983399424D+04 0.905865050843054D+03 -.796952467206491D+03 0.327830088797510D+03
 0.146447985524962D+03 -.131420997466885D+03 0.570889351864156D+02 0.302718907306738D+02
 0.545887356724844D+02 -.212485974416265D+02 0.367327166547176D+02 -.343385307817371D+02
 0.108389776291170D+04 -.753195455934543D+03 0.703130815365358D+03 -.323763448746446D+03
 0.000000000000000D+00 -.000000000000000D+00 -.000000000000000D+00 -.000000000000000D+00
 0.166223887099626D+04 0.000000000000000D+00 0.000000000000000D+00 0.166223887099626D+04
 0.180816026382682D+04 0.000000000000000D+00 0.000000000000000D+00 -.180816026382682D+04
 0.120995258888412D+04 0.106782188632488D+04 -.456019591649269D+03 0.327830088797510D+03
 0.151974751300204D+03 -.111802335552818D+03 0.983878825327793D+02 0.302718907306738D+02
 0.647635199880379D+02 -.134022396962485D+02 0.532499652217443D+02 -.343385307817371D+02
 0.123388691040521D+04 -.600821563853893D+03 0.102389078225623D+04 -.323763448746446D+03
 0.809821364245517D+03 -.341795747221923D+03 -.719509038361485D+03 -.145921392830556D+03
0.174742641642D-02 0.000000000000D+00 0.000000000000D+00 0.211391808775D-06 0.000000000000D+00  7 -2 2 23 -13 13 23 21 0 0.13217478D+00 0.28849000D+00 0.14763583D+07 0.14763583D+07 0.14763583D+07 0.10367837D+01  1  2  2  1  7  1       -2 0.657836055678D-03 0.100000000000D+01
-.968543474071D-04 0.000000000000D+00 -.671057754701D-05 0.211391808775D-06 0.000000000000D+00  7 -2 2 23 -13 13 23 21 2 0.13217478D+00 0.28849000D+00 0.14763583D+07 0.14763583D+07 0.14763583D+07 0.10367837D+01  1  2  3  1  7  1       -2 -.391935177017D-04 0.100000000000D+01
0.110717291973D-03 0.000000000000D+00 0.000000000000D+00 0.211391808775D-06 0.000000000000D+00  7 -2 2 23 -13 13 23 21 2 0.13217478D+00 0.28849000D+00 0.14763583D+07 0.14763583D+07 0.14763583D+07 0.10367837D+01  1  2 15  1  7  1       -2 0.448033594670D-04 0.100000000000D+01
-.359700729512D-03 0.000000000000D+00 0.000000000000D+00 0.211391808775D-06 0.000000000000D+00  7 -2 2 23 -13 13 23 21 2 0.13217478D+00 0.28849000D+00 0.14763583D+07 0.14763583D+07 0.14763583D+07 0.10367837D+01  1  2  4  1  7  1       -2 -.145558121931D-03 0.100000000000D+01
  </mgrwgt>
  </event>
  <event>
  9     66 0.27870365E-05 0.23502540E+03 0.75467711E-02 0.10337979E+00
       21 -1    0    0  502  501 0.00000000E+00 0.00000000E+00 0.16064091E+03 0.16064266E+03 0.75000000E+00 0.0000E+00 0.9000E+01
        2 -1    0    0  501    0 0.00000000E+00 0.00000000E+00 -.47243047E+03 0.47243058E+03 0.32000000E+00 0.0000E+00 0.9000E+01
       25  2    1    2    0    0 -.25113190E+02 -.12231286E+03 -.24472741E+03 0.40679936E+03 0.30000518E+03 0.0000E+00 0.0000E+00
       23  2    3    3    0    0 0.96145996E+02 -.91546141E+02 -.17217138E+03 0.23583150E+03 0.91371566E+02 0.0000E+00 0.0000E+00
       23  1    1    2    0    0 0.47724085E+01 0.13424398E+03 -.78588705E+01 0.16254610E+03 0.91188000E+02 0.0000E+00 0.9000E+01
      -13  1    4    4    0    0 0.10295816E+03 -.56468902E+02 -.95923609E+02 0.15162608E+03 0.10565837E+00 0.0000E+00 0.9000E+01
       13  1    4    4    0    0 -.68121608E+01 -.35077239E+02 -.76247775E+02 0.84205419E+02 0.10565837E+00 0.0000E+00 0.9000E+01
       23  1    3    3    0    0 -.12125919E+03 -.30766719E+02 -.72556025E+02 0.17096786E+03 0.91188000E+02 0.0000E+00 0.9000E+01
        2  1    1    2  502    0 0.20340781E+02 -.11931122E+02 -.59203283E+02 0.63727782E+02 0.32000000E+00 0.0000E+00 0.9000E+01
#aMCatNLO 2  0  0  1  2 0.23581753D+02 0.00000000D+00  -5  7  0 0.00000000D+00 0.00000000D+00 0.00000000D+00 0.00000000D+00 0.00000000D+00
  <mgrwgt>
 0.7730483663D-04    1    2    0
 0.254852079769395D+03 0.000000000000000D+00 0.000000000000000D+00 0.254852079769395D+03
 0.254852079769395D+03 0.000000000000000D+00 0.000000000000000D+00 -.254852079769395D+03
 0.174719464092927D+03 0.117963006959071D+02 0.130124037334202D+03 0.716953414571581D+02
 0.127263369998781D+03 0.107923393316565D+03 -.593812632746729D+02 -.319745537949883D+02
 0.568226272804722D+02 -.455804875556024D+01 -.363994713937696D+02 -.433948573548934D+02
 0.150898698166611D+03 -.115161645256912D+03 -.343433026657595D+02 0.367406969272363D+01
 0.000000000000000D+00 0.000000000000000D+00 -.000000000000000D+00 -.000000000000000D+00
 0.258768213457926D+03 0.000000000000000D+00 0.000000000000000D+00 0.258768213457926D+03
 0.293281368738143D+03 0.000000000000000D+00 0.000000000000000D+00 -.293281368738143D+03
 0.177481537503339D+03 0.477240861099062D+01 0.134243982881693D+03 0.716953414571581D+02
 0.121702605678083D+03 0.102958301968032D+03 -.564689312304201D+02 -.319745537949883D+02
 0.562132710203414D+02 -.681230682918328D+01 -.350772101173949D+02 -.433948573548934D+02
 0.154851965324544D+03 -.121259185171677D+03 -.307667197515039D+02 0.367406969272363D+01
 0.418002026697617D+02 0.203407814218374D+02 -.119311217823745D+02 -.345131552802165D+02
0.429270211937D-07 0.000000000000D+00 0.000000000000D+00 0.264101084859D-06 0.101896730097D-10  7 21 2 23 -13 13 23 2 2 0.24714072D-01 0.72681584D-01 0.60985772D+05 0.60985772D+05 0.60985772D+05 0.11397845D+01  1  2  1  3  7  1       -2 0.773048366292D-04 0.100000000000D+01
  </mgrwgt>
  </event>
  <event>
  8     66 0.27870365E-05 0.51449362E+03 0.75467711E-02 0.81438953E-01
       -2 -1    0    0    0  501 0.00000000E+00 0.00000000E+00 0.13679754E+04 0.13679754E+04 0.32000000E+00 0.0000E+00 0.9000E+01
        2 -1    0    0  501    0 0.00000000E+00 0.00000000E+00 -.34058957E+03 0.34058972E+03 0.32000000E+00 0.0000E+00 0.9000E+01
       25  2    1    2    0    0 0.39371239E+03 0.25976604E+03 0.10889752E+04 0.12242137E+04 0.30057319E+03 0.0000E+00 0.0000E+00
       23  2    3    3    0    0 0.32540525E+02 -.36901521E+01 0.12352898E+03 0.15638598E+03 0.90136917E+02 0.0000E+00 0.0000E+00
       23  1    1    2    0    0 -.39371239E+03 -.25976604E+03 -.61589408E+02 0.48435147E+03 0.91188000E+02 0.0000E+00 0.9000E+01
      -13  1    4    4    0    0 -.28828082E+02 0.78260374E+01 0.61509867E+02 0.68379676E+02 0.10565837E+00 0.0000E+00 0.9000E+01
       13  1    4    4    0    0 0.61368607E+02 -.11516189E+02 0.62019115E+02 0.88006308E+02 0.10565837E+00 0.0000E+00 0.9000E+01
       23  1    3    3    0    0 0.36117187E+03 0.26345619E+03 0.96544626E+03 0.10678277E+04 0.91188000E+02 0.0000E+00 0.9000E+01
#aMCatNLO 1  0  0  2  2 0.18059396D+04 0.00000000D+00  -5  7  0 0.00000000D+00 0.00000000D+00 0.00000000D+00 0.00000000D+00 0.00000000D+00
  <mgrwgt>
 0.4744977836D-03    5    2    0
 0.682582096759739D+03 0.000000000000000D+00 0.000000000000000D+00 0.682582096759739D+03
 0.682582096759739D+03 0.000000000000000D+00 0.000000000000000D+00 -.682582096759739D+03
 0.652538460214732D+03 -.393712393849973D+03 -.259766036207209D+03 -.441591834251419D+03
 0.392895750594107D+02 -.288282062101022D+02 0.782606395716080D+01 0.255217154203105D+02
 0.634700195500441D+02 0.613687307750833D+02 -.115162160113005D+02 0.113885483499606D+02
 0.609866138695290D+03 0.361171869284992D+03 0.263456188261349D+03 0.404681570481148D+03
 0.000000000000000D+00 0.000000000000000D+00 -.000000000000000D+00 -.000000000000000D+00
 0.193901069382075D+04 0.000000000000000D+00 0.000000000000000D+00 0.193901069382075D+04
 0.214218860379537D+04 0.000000000000000D+00 0.000000000000000D+00 -.214218860379537D+04
 0.861762407820209D+03 -.559858858146108D+03 0.475261935216663D+03 -.441591834251419D+03
 0.836606348469614D+02 -.423180899522411D+02 0.675049859476715D+02 0.255217154203105D+02
 0.724942824783502D+02 0.464509634216090D+02 0.544796288142255D+02 0.113885483499606D+02
 0.124594904984650D+04 0.157555046187345D+03 0.116425212793587D+04 0.404681570481148D+03
 0.181733292262410D+04 0.398170938489395D+03 -.176149867791443D+04 -.203177909974619D+03
0.355042868409D-03 0.000000000000D+00 0.000000000000D+00 0.838545625482D-06 0.000000000000D+00  7 -2 2 23 -13 13 23 21 0 0.21045777D+00 0.52398410D-01 0.26470368D+06 0.26470368D+06 0.26470368D+06 0.10885968D+01  1  2  2  2  7  2        2 0.442715917947D-03 0.100000000000D+01
-.178079646088D-04 0.000000000000D+00 -.136345809963D-05 0.838545625482D-06 0.000000000000D+00  7 -2 2 23 -13 13 23 21 2 0.21045777D+00 0.52398410D-01 0.26470368D+06 0.26470368D+06 0.26470368D+06 0.10885968D+01  1  2  3  2  7  2        2 -.263143557513D-04 0.100000000000D+01
0.218075441142D-04 0.000000000000D+00 0.000000000000D+00 0.838545625482D-06 0.000000000000D+00  7 -2 2 23 -13 13 23 21 2 0.21045777D+00 0.52398410D-01 0.26470368D+06 0.26470368D+06 0.26470368D+06 0.10885968D+01  1  2 15  2  7  2        2 0.322244280291D-04 0.100000000000D+01
0.602344317080D-03 0.000000000000D+00 -.217532617304D-03 0.838545625482D-06 0.000000000000D+00  7 -2 2 23 -13 13 23 21 2 0.21045777D+00 0.42215044D+00 0.26470368D+06 0.26470368D+06 0.26470368D+06 0.10885968D+01  1  2  5  2  7  2        2 0.253913951904D-04 0.100000000000D+01
0.126172383903D-03 0.000000000000D+00 -.550656734485D-04 0.838545625482D-06 0.000000000000D+00  7 -2 21 23 -13 13 23 -2 2 0.21045777D+00 0.42215044D+00 0.26470368D+06 0.26470368D+06 0.26470368D+06 0.10885968D+01  1  2  5  4  7  2        2 0.480398218576D-06 0.100000000000D+01
  </mgrwgt>
  </event>
  <event>
  8     66 0.27870365E-05 0.30262697E+03 0.75467711E-02 0.89273631E-01
       -2 -1    0    0    0  501 0.00000000E+00 0.00000000E+00 0.31279443E+03 0.31279459E+03 0.32000000E+00 0.0000E+00 0.9000E+01
        2 -1    0    0  501    0 0.00000000E+00 0.00000000E+00 -.47719791E+03 0.47719802E+03 0.32000000E+00 0.0000E+00 0.9000E+01
       25  2    1    2    0    0 0.24712374E+03 -.82313954E+02 -.28609960E+03 0.48837874E+03 0.29801859E+03 0.0000E+00 0.0000E+00
       23  2    3    3    0    0 0.20615404E+03 -.15281020E+02 -.62374932E+02 0.23433168E+03 0.91036830E+02 0.0000E+00 0.0000E+00
       23  1    1    2    0    0 -.24712374E+03 0.82313954E+02 0.12169612E+03 0.30161387E+03 0.91188000E+02 0.0000E+00 0.9000E+01
      -11  1    4    4    0    0 0.10817858E+02 0.60940113E+01 -.33490372E+02 0.35717895E+02 0.51099893E-03 0.0000E+00 0.9000E+01
       11  1    4    4    0    0 0.19533619E+03 -.21375031E+02 -.28884560E+02 0.19861378E+03 0.51099893E-03 0.0000E+00 0.9000E+01
       23  1    3    3    0    0 0.40969696E+02 -.67032935E+02 -.22372467E+03 0.25404706E+03 0.91188000E+02 0.0000E+00 0.9000E+01
#aMCatNLO 1  0  0  1  2 0.70973562D+03 0.00000000D+00  -5  7  0 0.00000000D+00 0.00000000D+00 0.00000000D+00 0.00000000D+00 0.00000000D+00
  <mgrwgt>
 0.7794712710D-03    5    2    0
 0.386348228794259D+03 0.000000000000000D+00 0.000000000000000D+00 0.386348228794259D+03
 0.386348228794259D+03 0.000000000000000D+00 0.000000000000000D+00 -.386348228794259D+03
 0.334258025770330D+03 -.247123739742388D+03 0.823139542764480D+02 0.188593336666463D+03
 0.293917994916305D+02 0.108178581616143D+02 0.609401127969318D+01 -.266404738823164D+02
 0.196913933850160D+03 0.195336185957114D+03 -.213750308566106D+02 0.127271307038067D+02
 0.212132698476398D+03 0.409696956236599D+02 -.670329346995306D+02 -.174679993487953D+03
 0.000000000000000D+00 0.000000000000000D+00 0.000000000000000D+00 0.000000000000000D+00
 0.156513348245575D+04 0.000000000000000D+00 0.000000000000000D+00 0.156513348245575D+04
 0.645615949925263D+03 0.000000000000000D+00 0.000000000000000D+00 -.645615949925263D+03
 0.390591727411775D+03 -.262333666872292D+03 -.199650311216542D+03 0.188593336666463D+03
 0.337842237270567D+02 0.949220038868279D+01 -.184812622931047D+02 -.266404738823164D+02
 0.277314193176308D+03 0.185385192356912D+03 -.205848275037382D+03 0.127271307038067D+02
 0.347492614202099D+03 0.292267651908053D+02 -.284725414483040D+03 -.174679993487953D+03
 0.116156667386377D+04 0.382295089358912D+02 0.708705263030068D+03 0.919517532530487D+03
0.229966153765D-04 0.000000000000D+00 0.000000000000D+00 0.767502182326D-07 0.000000000000D+00  7 -2 2 23 -11 11 23 21 0 0.48122240D-01 0.73415084D-01 0.91583085D+05 0.91583085D+05 0.91583085D+05 0.11248691D+01  1  2  2  1  7  1       -2 0.758225918856D-03 0.100000000000D+01
-.118492809875D-05 0.000000000000D+00 -.883130581935D-07 0.767502182326D-07 0.000000000000D+00  7 -2 2 23 -11 11 23 21 2 0.48122240D-01 0.73415084D-01 0.91583085D+05 0.91583085D+05 0.91583085D+05 0.11248691D+01  1  2  3  1  7  1       -2 -.494345582028D-04 0.100000000000D+01
0.146137112480D-05 0.000000000000D+00 0.000000000000D+00 0.767502182326D-07 0.000000000000D+00  7 -2 2 23 -11 11 23 21 2 0.48122240D-01 0.73415084D-01 0.91583085D+05 0.91583085D+05 0.91583085D+05 0.11248691D+01  1  2 15  1  7  1       -2 0.609676114534D-04 0.100000000000D+01
0.857069121545D-05 0.000000000000D+00 -.100105770941D-04 0.767502182326D-07 0.000000000000D+00  7 -2 2 23 -11 11 23 21 2 0.26413898D+00 0.73415084D-01 0.91583085D+05 0.91583085D+05 0.91583085D+05 0.11248691D+01  1  2  5  1  7  1       -2 0.443478470248D-05 0.100000000000D+01
0.132105884958D-05 0.000000000000D+00 -.208597564380D-05 0.767502182326D-07 0.000000000000D+00  7 21 2 23 -11 11 23 2 2 0.26413898D+00 0.73415084D-01 0.91583085D+05 0.91583085D+05 0.91583085D+05 0.11248691D+01  1  2  5  3  7  1       -2 0.527751422611D-05 0.100000000000D+01
  </mgrwgt>
  </event>
  <event>
  9     66 0.27870365E-05 0.16205697E+03 0.75467711E-02 0.10452160E+00
       21 -1    0    0  502  501 0.00000000E+00 0.00000000E+00 0.67559189E+03 0.67559231E+03 0.75000000E+00 0.0000E+00 0.9000E+01
        2 -1    0    0  501    0 0.00000000E+00 0.00000000E+00 -.24812860E+03 0.24812881E+03 0.32000000E+00 0.0000E+00 0.9000E+01
       25  2    1    2    0    0 0.69862711E+02 0.13148249E+03 0.54484739E+03 0.63949047E+03 0.29986821E+03 0.0000E+00 0.0000E+00
       23  2    3    3    0    0 0.56529657E+02 0.61813214E+02 0.50110799E+03 0.51595924E+03 0.89934695E+02 0.0000E+00 0.0000E+00
       23  1    1    2    0    0 -.82429141E+02 -.24835099E+02 -.12436786E+03 0.17661813E+03 0.91188000E+02 0.0000E+00 0.9000E+01
      -13  1    4    4    0    0 0.15107643E+02 -.13482878E+02 0.25070299E+02 0.32226696E+02 0.10565837E+00 0.0000E+00 0.9000E+01
       13  1    4    4    0    0 0.41422014E+02 0.75296091E+02 0.47603769E+03 0.48373255E+03 0.10565837E+00 0.0000E+00 0.9000E+01
       23  1    3    3    0    0 0.13333054E+02 0.69669271E+02 0.43739400E+02 0.12353123E+03 0.91188000E+02 0.0000E+00 0.9000E+01
        2  1    1    2  502    0 0.12566430E+02 -.10664739E+03 0.69837678E+01 0.10761252E+03 0.32000000E+00 0.0000E+00 0.9000E+01
#aMCatNLO 2  0  0  1  2 0.10738519D+03 0.00000000D+00  -5  7  0 0.00000000D+00 0.00000000D+00 0.00000000D+00 0.00000000D+00 0.00000000D+00
  <mgrwgt>
 0.8119092289D-04    1    2    0
 0.345578729040388D+03 0.000000000000000D+00 0.000000000000000D+00 0.345578729040388D+03
 0.345578729040388D+03 0.000000000000000D+00 0.000000000000000D+00 -.345578729040388D+03
 0.286543200367315D+03 -.773018960977049D+02 -.683484335546135D+02 -.251286017961751D+03
 0.251555772746394D+02 0.155385258851140D+02 -.171400745375812D+02 0.987801225875706D+01
 0.270712291377123D+03 0.463827325682718D+02 0.331964458696615D+02 0.264635188143555D+03
 0.108746389061698D+03 0.153806376443191D+02 0.522920622225332D+02 -.232271824405612D+02
 0.000000000000000D+00 0.000000000000000D+00 -.000000000000000D+00 -.000000000000000D+00
 0.382134250145511D+03 0.000000000000000D+00 0.000000000000000D+00 0.382134250145511D+03
 0.438677723771112D+03 0.000000000000000D+00 0.000000000000000D+00 -.438677723771112D+03
 0.280840274191103D+03 -.824291409635318D+02 -.248350993691226D+02 -.251286017961751D+03
 0.225301178171813D+02 0.151076070334094D+02 -.134830001259362D+02 0.987801225875706D+01
 0.278239265497393D+03 0.414220504585874D+02 0.752962136933839D+02 0.264635188143555D+03
 0.117840277719421D+03 0.133330536451155D+02 0.696692714570756D+02 -.232271824405612D+02
 0.121362038691525D+03 0.125664298264195D+02 -.106647385655401D+03 -.565434736256010D+02
0.491518945406D-06 0.000000000000D+00 0.000000000000D+00 0.501025540028D-06 0.622226884979D-11  7 21 2 23 -13 13 23 2 2 0.10393721D+00 0.38173659D-01 0.51644023D+05 0.51644023D+05 0.51644023D+05 0.11460616D+01  1  2  1  3  7  1       -2 0.811909228944D-04 0.100000000000D+01
  </mgrwgt>
  </event>
  <event>
  8     66 0.27870365E-05 0.37226908E+03 0.75467711E-02 0.90527629E-01
       -4 -1    0    0    0  501 0.00000000E+00 0.00000000E+00 0.29489468E+03 0.29489875E+03 0.15500000E+01 0.0000E+00 0.9000E+01
        4 -1    0    0  501    0 0.00000000E+00 0.00000000E+00 -.62768940E+03 0.62769131E+03 0.15500000E+01 0.0000E+00 0.9000E+01
       25  2    1    2    0    0 0.13155747E+03 -.28933503E+03 -.39107378E+03 0.58683148E+03 0.30068316E+03 0.0000E+00 0.0000E+00
       23  2    3    3    0    0 0.28727654E+00 -.14548275E+02 -.18367617E+03 0.20726773E+03 0.94927554E+02 0.0000E+00 0.0000E+00
       23  1    1    2    0    0 -.13155747E+03 0.28933503E+03 0.58279056E+02 0.33575858E+03 0.91188000E+02 0.0000E+00 0.9000E+01
      -13  1    4    4    0    0 -.27385354E+02 0.31822943E+02 -.83719044E+02 0.93656536E+02 0.10565837E+00 0.0000E+00 0.9000E+01
       13  1    4    4    0    0 0.27672631E+02 -.46371218E+02 -.99957131E+02 0.11361119E+03 0.10565837E+00 0.0000E+00 0.9000E+01
       23  1    3    3    0    0 0.13127019E+03 -.27478675E+03 -.20739761E+03 0.37956375E+03 0.91188000E+02 0.0000E+00 0.9000E+01
#aMCatNLO 1  0  0  2  2 0.54755088D+03 0.00000000D+00  -5  7  0 0.00000000D+00 0.00000000D+00 0.00000000D+00 0.00000000D+00 0.00000000D+00
  <mgrwgt>
 0.2136346604D-04    3    2    0
 0.430238334420994D+03 0.000000000000000D+00 0.000000000000000D+00 0.430238334420994D+03
 0.430238334420994D+03 0.000000000000000D+00 0.000000000000000D+00 -.430238334420994D+03
 0.382535060030807D+03 -.131557467778409D+03 0.289335028033095D+03 0.192342650063873D+03
 0.680382393906659D+02 -.273854222112522D+02 0.318230399325953D+02 -.535400298761727D+02
 0.831531753599364D+02 0.276726976084756D+02 -.463713124045136D+02 -.632326953829521D+02
 0.326750194060580D+03 0.131270192381186D+03 -.274786755561177D+03 -.755699248047487D+02
 0.000000000000000D+00 0.000000000000000D+00 0.000000000000000D+00 0.000000000000000D+00
 0.848175639158431D+03 0.000000000000000D+00 0.000000000000000D+00 0.848175639158431D+03
 0.731571103401957D+03 0.000000000000000D+00 0.000000000000000D+00 -.731571103401957D+03
 0.340258164056669D+03 -.241617343100456D+03 0.109935123335076D+03 0.192342650063873D+03
 0.724971956904813D+02 -.487847822881097D+02 -.305836573094378D+01 -.535400298761727D+02
 0.114504412986962D+03 -.242466468677931D+01 -.954306440785783D+02 -.632326953829521D+02
 0.492657902573073D+03 0.649875022048695D+01 -.478166822703411D+03 -.755699248047487D+02
 0.559829067253202D+03 0.286328039854858D+03 0.466720709177858D+03 0.116604535756474D+03
0.240965455848D-04 0.000000000000D+00 0.000000000000D+00 0.470068583886D-07 0.000000000000D+00  7 -4 4 23 -13 13 23 21 0 0.45368872D-01 0.96568061D-01 0.13858427D+06 0.13858427D+06 0.13858427D+06 0.11102750D+01  1  2  2  2  7  2        4 0.211369092709D-04 0.100000000000D+01
-.130460633188D-05 0.000000000000D+00 -.925370798119D-07 0.470068583886D-07 0.000000000000D+00  7 -4 4 23 -13 13 23 21 2 0.45368872D-01 0.96568061D-01 0.13858427D+06 0.13858427D+06 0.13858427D+06 0.11102750D+01  1  2  3  2  7  2        4 -.141067610686D-05 0.100000000000D+01
0.151412812683D-05 0.000000000000D+00 0.000000000000D+00 0.470068583886D-07 0.000000000000D+00  7 -4 4 23 -13 13 23 21 2 0.45368872D-01 0.96568061D-01 0.13858427D+06 0.13858427D+06 0.13858427D+06 0.11102750D+01  1  2 15  2  7  2        4 0.163723287176D-05 0.100000000000D+01
  </mgrwgt>
  </event>
  <event>
  9     66 0.27870365E-05 0.23931050E+03 0.75467711E-02 0.10244213E+00
       -2 -1    0    0    0  502 0.00000000E+00 0.00000000E+00 0.21453389E+03 0.21453412E+03 0.32000000E+00 0.0000E+00 0.9000E+01
        2 -1    0    0  501    0 0.00000000E+00 0.00000000E+00 -.84452382E+03 0.84452388E+03 0.32000000E+00 0.0000E+00 0.9000E+01
       25  2    1    2    0    0 -.16728086E+03 -.76816613E+02 -.63378996E+03 0.72470792E+03 0.29937966E+03 0.0000E+00 0.0000E+00
       23  2    3    3    0    0 -.15573809E+02 -.17644604E+02 -.46144817E+03 0.47067387E+03 0.89697281E+02 0.0000E+00 0.0000E+00
       23  1    1    2    0    0 0.18120984E+03 0.13237239E+03 0.64724653E+02 0.25072692E+03 0.91188000E+02 0.0000E+00 0.9000E+01
      -13  1    4    4    0    0 -.23197792E+01 0.11323214E+02 -.41709884E+01 0.12288403E+02 0.10565837E+00 0.0000E+00 0.9000E+01
       13  1    4    4    0    0 -.13254029E+02 -.28967818E+02 -.45727718E+03 0.45838547E+03 0.10565837E+00 0.0000E+00 0.9000E+01
       23  1    3    3    0    0 -.15170705E+03 -.59172008E+02 -.17234178E+03 0.25403405E+03 0.91188000E+02 0.0000E+00 0.9000E+01
       21  1    1    2  501  502 -.13928978E+02 -.55555781E+02 -.60924634E+02 0.83623171E+02 0.75000000E+00 0.0000E+00 0.9000E+01
#aMCatNLO 2  0  0  1  2 0.57275311D+02 0.00000000D+00  -5  7  0 0.00000000D+00 0.00000000D+00 0.00000000D+00 0.00000000D+00 0.00000000D+00
  <mgrwgt>
 0.3415611129D-03    1    2    0
 0.395081427865005D+03 0.000000000000000D+00 0.000000000000000D+00 0.395081427865005D+03
 0.395081427865005D+03 0.000000000000000D+00 0.000000000000000D+00 -.395081427865005D+03
 0.343628154990087D+03 0.175058459728012D+03 0.107837610514111D+03 0.259789612945080D+03
 0.114102610964762D+02 -.252700815573853D+01 0.104966755933982D+02 0.369162424381857D+01
 0.238809971998381D+03 -.174328347539915D+02 -.456349938530202D+02 -.233760018682285D+03
 0.196314467645066D+03 -.155098616818282D+03 -.726992922544891D+02 -.297212185066131D+02
 0.000000000000000D+00 -.000000000000000D+00 -.000000000000000D+00 -.000000000000000D+00
 0.418241547849252D+03 0.000000000000000D+00 0.000000000000000D+00 0.418241547849252D+03
 0.433187724671045D+03 0.000000000000000D+00 0.000000000000000D+00 -.433187724671045D+03
 0.355197620118333D+03 0.181209835065503D+03 0.132372393931313D+03 0.259789612945080D+03
 0.121336650264595D+02 -.231976404474695D+01 0.113232695010530D+02 0.369162424381857D+01
 0.235920651387525D+03 -.132540446282340D+02 -.289678738909966D+02 -.233760018682285D+03
 0.188984013075639D+03 -.151707048195172D+03 -.591720081843035D+02 -.297212185066131D+02
 0.591933229123406D+02 -.139289781973501D+02 -.555557813570655D+02 -.149461768217930D+02
0.778246497721D-05 0.000000000000D+00 0.000000000000D+00 0.237544560050D-06 0.499971863076D-09  7 -2 2 23 -13 13 23 21 2 0.33005051D-01 0.12992604D+00 0.70105986D+05 0.70105986D+05 0.70105986D+05 0.11346038D+01  1  2  1  1  7  1       -2 0.341561112932D-03 0.100000000000D+01
  </mgrwgt>
  </event>
  <event>
  9     66 0.27870365E-05 0.48137673E+03 0.75467711E-02 0.87407242E-01
       21 -1    0    0  502  501 0.00000000E+00 0.00000000E+00 0.52895157E+03 0.52895210E+03 0.75000000E+00 0.0000E+00 0.9000E+01
        2 -1    0    0  501    0 0.00000000E+00 0.00000000E+00 -.21449824E+04 0.21449824E+04 0.32000000E+00 0.0000E+00 0.9000E+01
       25  2    1    2    0    0 0.13057119E+03 0.12934485E+03 -.19183155E+03 0.40048581E+03 0.29968419E+03 0.0000E+00 0.0000E+00
       23  2    3    3    0    0 0.73418582E+02 -.54603948E+02 -.11660690E+03 0.17448231E+03 0.92059920E+02 0.0000E+00 0.0000E+00
       23  1    1    2    0    0 -.87508590E+03 0.70157275E+02 -.11621988E+04 0.14593556E+04 0.91188000E+02 0.0000E+00 0.9000E+01
      -13  1    4    4    0    0 0.22568205E+02 0.24495394E+02 -.46463490E+02 0.57168307E+02 0.10565837E+00 0.0000E+00 0.9000E+01
       13  1    4    4    0    0 0.50850377E+02 -.79099343E+02 -.70143410E+02 0.11731401E+03 0.10565837E+00 0.0000E+00 0.9000E+01
       23  1    3    3    0    0 0.57152612E+02 0.18394879E+03 -.75224648E+02 0.22600349E+03 0.91188000E+02 0.0000E+00 0.9000E+01
        2  1    1    2  502    0 0.74451470E+03 -.19950212E+03 -.26200040E+03 0.81409308E+03 0.32000000E+00 0.0000E+00 0.9000E+01
#aMCatNLO 2  0  0  1  2 0.77078093D+03 0.00000000D+00  -5  7  0 0.00000000D+00 0.00000000D+00 0.00000000D+00 0.00000000D+00 0.00000000D+00
  <mgrwgt>
 0.4996228870D-04    1    2    0
 0.507816039146619D+03 0.000000000000000D+00 0.000000000000000D+00 0.507816039146619D+03
 0.507816039146619D+03 0.000000000000000D+00 0.000000000000000D+00 -.507816039146619D+03
 0.467695525794544D+03 -.432327283971879D+03 -.484854894561543D+02 -.145485842438124D+03
 0.544747699616963D+02 0.513403931221543D+02 0.167856494753647D+02 -.706445809192545D+01
 0.174126674230317D+03 0.138855194591293D+03 -.102681471788284D+03 0.222676663554328D+02
 0.319335108306681D+03 0.242131696258432D+03 0.134381311769074D+03 0.130282634174617D+03
 0.000000000000000D+00 0.000000000000000D+00 -.000000000000000D+00 0.000000000000000D+00
 0.133332572730230D+04 0.000000000000000D+00 0.000000000000000D+00 0.133332572730230D+04
 0.850949204434871D+03 0.000000000000000D+00 0.000000000000000D+00 -.850949204434871D+03
 0.894527109223755D+03 -.875085895364779D+03 0.701572745757703D+02 -.145485842438124D+03
 0.340479044654100D+02 0.225681679376822D+02 0.244955307411308D+02 -.706445809192545D+01
 0.966350927433867D+02 0.508504141084359D+02 -.790994789464928D+02 0.222676663554328D+02
 0.249784699654021D+03 0.571526117745730D+02 0.183948794606319D+03 0.130282634174617D+03
 0.909280125650596D+03 0.744514701544088D+03 -.199502120976727D+03 0.482376522867426D+03
0.544591455793D-05 0.000000000000D+00 0.000000000000D+00 0.870206894446D-06 0.450193407304D-11  7 21 2 23 -13 13 23 2 2 0.81377205D-01 0.32999732D+00 0.99386570D+06 0.99386570D+06 0.99386570D+06 0.10480419D+01  1  2  1  3  7  1       -2 0.499622887012D-04 0.100000000000D+01
  </mgrwgt>
  </event>
  <event>
  8     66 0.27870365E-05 0.22690403E+03 0.75467711E-02 0.97014699E-01
       -2 -1    0    0    0  501 0.00000000E+00 0.00000000E+00 0.22390425E+03 0.22390448E+03 0.32000000E+00 0.0000E+00 0.9000E+01
        2 -1    0    0  501    0 0.00000000E+00 0.00000000E+00 -.75949255E+03 0.75949261E+03 0.32000000E+00 0.0000E+00 0.9000E+01
       25  2    1    2    0    0 -.26530440E+03 0.44484851E+02 -.31028856E+02 0.40437998E+03 0.30032492E+03 0.0000E+00 0.0000E+00
       23  2    3    3    0    0 0.30973795E+01 -.23652437E+02 0.42156591E+02 0.10379129E+03 0.91795541E+02 0.0000E+00 0.0000E+00
       23  1    1    2    0    0 0.26530440E+03 -.44484851E+02 -.50455944E+03 0.57901711E+03 0.91188000E+02 0.0000E+00 0.9000E+01
      -13  1    4    4    0    0 0.27402915E+02 -.46848760E+02 0.62767252E+01 0.54636384E+02 0.10565837E+00 0.0000E+00 0.9000E+01
       13  1    4    4    0    0 -.24305535E+02 0.23196323E+02 0.35879866E+02 0.49154902E+02 0.10565837E+00 0.0000E+00 0.9000E+01
       23  1    3    3    0    0 -.26840178E+03 0.68137288E+02 -.73185448E+02 0.30058870E+03 0.91188000E+02 0.0000E+00 0.9000E+01
#aMCatNLO 1  0  0  1  2 0.13603013D+03 0.00000000D+00  -5  7  0 0.00000000D+00 0.00000000D+00 0.00000000D+00 0.00000000D+00 0.00000000D+00
  <mgrwgt>
 0.5965245580D-03    9    2    0
 0.412375741600445D+03 0.000000000000000D+00 0.000000000000000D+00 0.412375741600445D+03
 0.412375741600445D+03 0.000000000000000D+00 0.000000000000000D+00 -.412375741600445D+03
 0.362736664798093D+03 0.265304397778349D+03 -.444848508597567D+02 -.225604324445027D+03
 0.692220492534060D+02 0.274029831362981D+02 -.468488524825093D+02 0.429645625969217D+02
 0.819102956461008D+02 -.243056035278420D+02 0.231964152435606D+02 0.747024798104274D+02
 0.310882473503289D+03 -.268401777386805D+03 0.681372880987054D+02 0.107937282037678D+03
 0.000000000000000D+00 0.000000000000000D+00 -.000000000000000D+00 0.000000000000000D+00
 0.496439838122414D+03 0.000000000000000D+00 0.000000000000000D+00 0.496439838122414D+03
 0.476883161962632D+03 0.000000000000000D+00 0.000000000000000D+00 -.476883161962632D+03
 0.359428386354127D+03 0.264123687343140D+03 0.146587908470386D+02 -.225604324445027D+03
 0.623415984546056D+02 0.271878819326395D+02 -.360740950648431D+02 0.429645625969217D+02
 0.869220870419955D+02 -.245816375947398D+02 0.370233955637487D+02 0.747024798104274D+02
 0.327202183094457D+03 -.269445019802635D+03 0.120394940623164D+03 0.107937282037678D+03
 0.137428745139861D+03 0.271508812159486D+01 -.136003031969108D+03 0.195566761597816D+02
0.121692173795D-04 0.000000000000D+00 0.000000000000D+00 0.652430230834D-06 0.000000000000D+00  7 -2 2 23 -13 13 23 21 0 0.34446830D-01 0.11684503D+00 0.11004456D+06 0.11004456D+06 0.11004456D+06 0.11183267D+01  1  2  2  1  7  1       -2 0.435993247196D-03 0.100000000000D+01
-.637140927782D-06 0.000000000000D+00 -.467329989659D-07 0.652430230834D-06 0.000000000000D+00  7 -2 2 23 -13 13 23 21 2 0.34446830D-01 0.11684503D+00 0.11004456D+06 0.11004456D+06 0.11004456D+06 0.11183267D+01  1  2  3  1  7  1       -2 -.285489431399D-04 0.100000000000D+01
0.785544755748D-06 0.000000000000D+00 0.000000000000D+00 0.652430230834D-06 0.000000000000D+00  7 -2 2 23 -13 13 23 21 2 0.34446830D-01 0.11684503D+00 0.11004456D+06 0.11004456D+06 0.11004456D+06 0.11183267D+01  1  2 15  1  7  1       -2 0.351986061291D-04 0.100000000000D+01
0.606861621925D-05 0.000000000000D+00 0.000000000000D+00 0.652430230834D-06 0.000000000000D+00  7 -2 2 23 -13 13 23 21 2 0.43691243D-01 0.11684503D+00 0.16578562D+06 0.16578562D+06 0.16578562D+06 0.11041389D+01  1  2 12  1  7  1       -2 0.169299986994D-03 0.100000000000D+01
-.676821575597D-05 0.000000000000D+00 0.000000000000D+00 0.652430230834D-06 0.000000000000D+00  7 -2 2 23 -13 13 23 21 2 0.34446830D-01 0.11684503D+00 0.11004456D+06 0.11004456D+06 0.11004456D+06 0.11183267D+01  1  2  4  1  7  1       -2 -.303269494001D-03 0.100000000000D+01
-.131814976253D-04 0.000000000000D+00 -.593057207263D-05 0.652430230834D-06 0.000000000000D+00  7 -2 2 23 -13 13 23 21 2 0.47509144D-01 0.11684503D+00 0.11004456D+06 0.11004456D+06 0.11004456D+06 0.11183267D+01  1  2  5  1  7  1       -2 -.323987839907D-03 0.100000000000D+01
0.146199182516D-04 0.000000000000D+00 0.563673192130D-05 0.652430230834D-06 0.000000000000D+00  7 -2 2 23 -13 13 23 21 2 0.34446830D-01 0.11684503D+00 0.11004456D+06 0.11004456D+06 0.11004456D+06 0.11183267D+01  1  2  6  1  7  1       -2 0.655087746959D-03 0.100000000000D+01
0.197868066261D-06 0.000000000000D+00 0.000000000000D+00 0.652430230834D-06 0.000000000000D+00  7 21 2 23 -13 13 23 2 2 0.43691243D-01 0.11684503D+00 0.16578562D+06 0.16578562D+06 0.16578562D+06 0.11041389D+01  1  2 12  3  7  1       -2 0.600720703424D-04 0.100000000000D+01
-.387775553759D-06 0.000000000000D+00 -.240985853518D-06 0.652430230834D-06 0.000000000000D+00  7 21 2 23 -13 13 23 2 2 0.47509144D-01 0.11684503D+00 0.11004456D+06 0.11004456D+06 0.11004456D+06 0.11183267D+01  1  2  5  3  7  1       -2 -.103320822543D-03 0.100000000000D+01
  </mgrwgt>
  </event>
  <event>
  8     66 0.27870365E-05 0.24415051E+03 0.75467711E-02 0.93241394E-01
       -2 -1    0    0    0  501 0.00000000E+00 0.00000000E+00 0.17343115E+04 0.17343115E+04 0.32000000E+00 0.0000E+00 0.9000E+01
        2 -1    0    0  501    0 0.00000000E+00 0.00000000E+00 -.16966248E+03 0.16966278E+03 0.32000000E+00 0.0000E+00 0.9000E+01
       25  2    1    2    0    0 -.38369720E+03 0.17940481E+03 0.38397895E+03 0.64631510E+03 0.30145273E+03 0.0000E+00 0.0000E+00
       23  2    3    3    0    0 -.26250098E+03 -.89138999E+01 0.20896179E+03 0.34782102E+03 0.91259002E+02 0.0000E+00 0.0000E+00
       23  1    1    2    0    0 0.38369720E+03 -.17940481E+03 0.11806700E+04 0.12576592E+04 0.91188000E+02 0.0000E+00 0.9000E+01
      -11  1    4    4    0    0 -.26636195E+03 0.13498919E+01 0.20515582E+03 0.33621335E+03 0.51099893E-03 0.0000E+00 0.9000E+01
       11  1    4    4    0    0 0.38609622E+01 -.10263792E+02 0.38059737E+01 0.11607665E+02 0.51099893E-03 0.0000E+00 0.9000E+01
       23  1    3    3    0    0 -.12119621E+03 0.18831871E+03 0.17501716E+03 0.29849409E+03 0.91188000E+02 0.0000E+00 0.9000E+01
#aMCatNLO 1  0  0  2  1 0.16446352D+03 0.00000000D+00  -5  7  0 0.00000000D+00 0.00000000D+00 0.00000000D+00 0.00000000D+00 0.00000000D+00
  <mgrwgt>
 0.8309842075D-03    9    2    0
 0.542446219387856D+03 0.000000000000000D+00 0.000000000000000D+00 0.542446219387856D+03
 0.542446219387856D+03 0.000000000000000D+00 0.000000000000000D+00 -.542446219387856D+03
 0.504397057464547D+03 0.383697197992888D+03 -.179404814956544D+03 0.258246999707081D+03
 0.294171771862172D+03 -.266361945815685D+03 0.134989185729390D+01 -.124845997027481D+03
 0.148822888917802D+02 0.386096217832107D+01 -.102637917960638D+02 -.100613156039871D+02
 0.271441320557211D+03 -.121196214355524D+03 0.188318714895314D+03 -.123339687075613D+03
 0.000000000000000D+00 -.000000000000000D+00 0.000000000000000D+00 -.000000000000000D+00
 0.617273296130219D+03 0.000000000000000D+00 0.000000000000000D+00 0.617273296130219D+03
 0.647173647110126D+03 0.000000000000000D+00 0.000000000000000D+00 -.647173647110126D+03
 0.573417080936827D+03 0.450283160962203D+03 -.225932422335285D+03 0.258246999707081D+03
 0.264316517889675D+03 -.231859261860017D+03 -.227592035287996D+02 -.124845997027481D+03
 0.164233038877768D+02 0.579498119633453D+01 -.116152069220208D+02 -.100613156039871D+02
 0.243130595123574D+03 -.894066271699357D+02 0.166105423003974D+03 -.123339687075613D+03
 0.167159445402491D+03 -.134812253128585D+03 0.942014097821321D+02 -.299003509799075D+02
0.515454842297D-03 0.000000000000D+00 0.000000000000D+00 0.262918610273D-06 0.000000000000D+00  7 -2 2 23 -11 11 23 21 0 0.26681717D+00 0.26101946D-01 0.22676863D+06 0.22676863D+06 0.22676863D+06 0.10936600D+01  1  2  2  2  7  2        2 0.610487169425D-03 0.100000000000D+01
-.280457309465D-04 0.000000000000D+00 -.197948231680D-05 0.262918610273D-06 0.000000000000D+00  7 -2 2 23 -11 11 23 21 2 0.26681717D+00 0.26101946D-01 0.22676863D+06 0.22676863D+06 0.22676863D+06 0.10936600D+01  1  2  3  2  7  2        2 -.397298869691D-04 0.100000000000D+01
0.316576880811D-04 0.000000000000D+00 0.000000000000D+00 0.262918610273D-06 0.000000000000D+00  7 -2 2 23 -11 11 23 21 2 0.26681717D+00 0.26101946D-01 0.22676863D+06 0.22676863D+06 0.22676863D+06 0.10936600D+01  1  2 15  2  7  2        2 0.448466246633D-04 0.100000000000D+01
0.320063423880D-03 0.000000000000D+00 0.000000000000D+00 0.262918610273D-06 0.000000000000D+00  7 -2 2 23 -11 11 23 21 2 0.26681717D+00 0.32647417D-01 0.32030664D+06 0.32030664D+06 0.32030664D+06 0.10824537D+01  1  2 12  2  7  2        2 0.337912571485D-03 0.100000000000D+01
-.323568911399D-03 0.000000000000D+00 0.000000000000D+00 0.262918610273D-06 0.000000000000D+00  7 -2 2 23 -11 11 23 21 2 0.26681717D+00 0.26101946D-01 0.22676863D+06 0.22676863D+06 0.22676863D+06 0.10936600D+01  1  2  4  2  7  2        2 -.458371233081D-03 0.100000000000D+01
-.667094556057D-03 0.000000000000D+00 -.269289606475D-03 0.262918610273D-06 0.000000000000D+00  7 -2 2 23 -11 11 23 21 2 0.26681717D+00 0.35810676D-01 0.22676863D+06 0.22676863D+06 0.22676863D+06 0.10936600D+01  1  2  5  2  7  2        2 -.658459844909D-03 0.100000000000D+01
0.728450681663D-03 0.000000000000D+00 0.256363558558D-03 0.262918610273D-06 0.000000000000D+00  7 -2 2 23 -11 11 23 21 2 0.26681717D+00 0.26101946D-01 0.22676863D+06 0.22676863D+06 0.22676863D+06 0.10936600D+01  1  2  6  2  7  2        2 0.103193114489D-02 0.100000000000D+01
0.997371154724D-05 0.000000000000D+00 0.000000000000D+00 0.262918610273D-06 0.000000000000D+00  7 -2 21 23 -11 11 23 -2 2 0.26681717D+00 0.32647417D-01 0.32030664D+06 0.32030664D+06 0.32030664D+06 0.10824537D+01  1  2 12  4  7  2        2 0.491391554021D-04 0.100000000000D+01
-.202390242461D-04 0.000000000000D+00 -.108129363429D-04 0.262918610273D-06 0.000000000000D+00  7 -2 21 23 -11 11 23 -2 2 0.26681717D+00 0.35810676D-01 0.22676863D+06 0.22676863D+06 0.22676863D+06 0.10936600D+01  1  2  5  4  7  2        2 -.867714933775D-04 0.100000000000D+01
  </mgrwgt>
  </event>
  <event>
  8     66 0.27870365E-05 0.15563954E+03 0.75467711E-02 0.99830561E-01
       -2 -1    0    0    0  501 0.00000000E+00 0.00000000E+00 0.16371945E+03 0.16371976E+03 0.32000000E+00 0.0000E+00 0.9000E+01
        2 -1    0    0  501    0 0.00000000E+00 0.00000000E+00 -.86611832E+03 0.86611838E+03 0.32000000E+00 0.0000E+00 0.9000E+01
       25  2    1    2    0    0 -.18220351E+03 0.11651947E+03 -.99361053E+02 0.38273323E+03 0.29972855E+03 0.0000E+00 0.0000E+00
       23  2    3    3    0    0 0.25073620E+02 -.27906682E+02 -.19391841E+02 0.10249575E+03 0.93390926E+02 0.0000E+00 0.0000E+00
       23  1    1    2    0    0 0.18220351E+03 -.11651947E+03 -.60303782E+03 0.64710491E+03 0.91188000E+02 0.0000E+00 0.9000E+01
      -13  1    4    4    0    0 -.29800615E+02 -.32794087E+02 -.69274327E+00 0.44317264E+02 0.10565837E+00 0.0000E+00 0.9000E+01
       13  1    4    4    0    0 0.54874235E+02 0.48874046E+01 -.18699098E+02 0.58178482E+02 0.10565837E+00 0.0000E+00 0.9000E+01
       23  1    3    3    0    0 -.20727713E+03 0.14442615E+03 -.79969212E+02 0.28023748E+03 0.91188000E+02 0.0000E+00 0.9000E+01
#aMCatNLO 1  0  0  1  2 0.44743756D+02 0.00000000D+00  -5  7  0 0.00000000D+00 0.00000000D+00 0.00000000D+00 0.00000000D+00 0.00000000D+00
  <mgrwgt>
 0.4557318369D-03    9    2    0
 0.376564211530429D+03 0.000000000000000D+00 0.000000000000000D+00 0.376564211530429D+03
 0.376564211530429D+03 0.000000000000000D+00 0.000000000000000D+00 -.376564211530429D+03
 0.322442001458002D+03 0.182203509560048D+03 -.116519467249116D+03 -.221085250110056D+03
 0.599539489368094D+02 -.298007220441008D+02 -.327941347533560D+02 0.403848695001794D+02
 0.621145018342489D+02 0.548743430882181D+02 0.488745188121277D+01 0.286902530986094D+02
 0.308617970831798D+03 -.207277130604165D+03 0.144426150121259D+03 0.152010127511267D+03
 0.000000000000000D+00 -.000000000000000D+00 -.000000000000000D+00 0.000000000000000D+00
 0.402568954823190D+03 0.000000000000000D+00 0.000000000000000D+00 0.402568954823190D+03
 0.396979009447979D+03 0.000000000000000D+00 0.000000000000000D+00 -.396979009447979D+03
 0.318514180887336D+03 0.186196091681525D+03 -.979201700806839D+02 -.221085250110056D+03
 0.577831504415037D+02 -.290673255172238D+02 -.293776339699894D+02 0.403848695001794D+02
 0.631921625652700D+02 0.556548912157871D+02 0.852360666456103D+01 0.286902530986094D+02
 0.314966883468285D+03 -.203392756275499D+03 0.162521365261273D+03 0.152010127511267D+03
 0.450915869087739D+02 -.939090110458925D+01 -.437471678751605D+02 0.558994537521197D+01
0.564305609429D-05 0.000000000000D+00 0.000000000000D+00 0.167333630795D-06 0.000000000000D+00  7 -2 2 23 -13 13 23 21 0 0.25187636D-01 0.13324900D+00 0.90812260D+05 0.90812260D+05 0.90812260D+05 0.11251730D+01  1  2  2  1  7  1       -2 0.297017326551D-03 0.100000000000D+01
-.294579353340D-06 0.000000000000D+00 -.216708212529D-07 0.167333630795D-06 0.000000000000D+00  7 -2 2 23 -13 13 23 21 2 0.25187636D-01 0.13324900D+00 0.90812260D+05 0.90812260D+05 0.90812260D+05 0.11251730D+01  1  2  3  1  7  1       -2 -.196294602000D-04 0.100000000000D+01
0.365035583167D-06 0.000000000000D+00 0.000000000000D+00 0.167333630795D-06 0.000000000000D+00  7 -2 2 23 -13 13 23 21 2 0.25187636D-01 0.13324900D+00 0.90812260D+05 0.90812260D+05 0.90812260D+05 0.11251730D+01  1  2 15  1  7  1       -2 0.243243505362D-04 0.100000000000D+01
0.916312471592D-05 0.000000000000D+00 0.000000000000D+00 0.167333630795D-06 0.000000000000D+00  7 -2 2 23 -13 13 23 21 2 0.27568172D-01 0.13324900D+00 0.10482024D+06 0.10482024D+06 0.10482024D+06 0.11200481D+01  1  2 12  1  7  1       -2 0.517105499767D-03 0.100000000000D+01
-.775412278459D-05 0.000000000000D+00 0.000000000000D+00 0.167333630795D-06 0.000000000000D+00  7 -2 2 23 -13 13 23 21 2 0.25187636D-01 0.13324900D+00 0.90812260D+05 0.90812260D+05 0.90812260D+05 0.11251730D+01  1  2  4  1  7  1       -2 -.516700314738D-03 0.100000000000D+01
-.279128974195D-04 0.000000000000D+00 -.655640035493D-05 0.167333630795D-06 0.000000000000D+00  7 -2 2 23 -13 13 23 21 2 0.28346451D-01 0.13324900D+00 0.90812260D+05 0.90812260D+05 0.90812260D+05 0.11251730D+01  1  2  5  1  7  1       -2 -.151774424773D-02 0.100000000000D+01
0.285336393920D-04 0.000000000000D+00 0.651090430832D-05 0.167333630795D-06 0.000000000000D+00  7 -2 2 23 -13 13 23 21 2 0.25187636D-01 0.13324900D+00 0.90812260D+05 0.90812260D+05 0.90812260D+05 0.11251730D+01  1  2  6  1  7  1       -2 0.190135504222D-02 0.100000000000D+01
0.136202378008D-06 0.000000000000D+00 0.000000000000D+00 0.167333630795D-06 0.000000000000D+00  7 21 2 23 -13 13 23 2 2 0.27568172D-01 0.13324900D+00 0.10482024D+06 0.10482024D+06 0.10482024D+06 0.11200481D+01  1  2 12  3  7  1       -2 0.926006875693D-04 0.100000000000D+01
-.493257916600D-06 0.000000000000D+00 -.122781872173D-06 0.167333630795D-06 0.000000000000D+00  7 21 2 23 -13 13 23 2 2 0.28346451D-01 0.13324900D+00 0.90812260D+05 0.90812260D+05 0.90812260D+05 0.11251730D+01  1  2  5  3  7  1       -2 -.322597047039D-03 0.100000000000D+01
  </mgrwgt>
  </event>
  <event>
  8     66 0.27870365E-05 0.26509083E+03 0.75467711E-02 0.90756500E-01
       -2 -1    0    0    0  501 0.00000000E+00 0.00000000E+00 0.63908278E+02 0.63909079E+02 0.32000000E+00 0.0000E+00 0.9000E+01
        2 -1    0    0  501    0 0.00000000E+00 0.00000000E+00 -.14240398E+04 0.14240398E+04 0.32000000E+00 0.0000E+00 0.9000E+01
       25  2    1    2    0    0 0.96178806E+02 -.14266496E+03 -.11520519E+04 0.12029646E+04 0.30049407E+03 0.0000E+00 0.0000E+00
       23  2    3    3    0    0 0.16881795E+03 -.99881077E+02 -.61398870E+03 0.65075619E+03 0.89586660E+02 0.0000E+00 0.0000E+00
       23  1    1    2    0    0 -.96178806E+02 0.14266496E+03 -.20807958E+03 0.28498424E+03 0.91188000E+02 0.0000E+00 0.9000E+01
      -13  1    4    4    0    0 0.27225297E+02 0.13015311E+02 -.14308015E+03 0.14622776E+03 0.10565837E+00 0.0000E+00 0.9000E+01
       13  1    4    4    0    0 0.14159265E+03 -.11289639E+03 -.47090854E+03 0.50452843E+03 0.10565837E+00 0.0000E+00 0.9000E+01
       23  1    3    3    0    0 -.72639145E+02 -.42783880E+02 -.53806321E+03 0.55220845E+03 0.91188000E+02 0.0000E+00 0.9000E+01
#aMCatNLO 1  0  0  1  1 0.61104462D+03 0.00000000D+00  -5  7  0 0.00000000D+00 0.00000000D+00 0.00000000D+00 0.00000000D+00 0.00000000D+00
  <mgrwgt>
 0.5781136636D-03    3    2    0
 0.301676236873892D+03 0.000000000000000D+00 0.000000000000000D+00 0.301676236873892D+03
 0.301676236873892D+03 0.000000000000000D+00 0.000000000000000D+00 -.301676236873892D+03
 0.233737979262319D+03 -.961788061641091D+02 0.142664957657758D+03 0.129284719541751D+03
 0.380730722265504D+02 0.272251376564297D+02 0.130154856239892D+02 -.232152502103317D+02
 0.182671171282712D+03 0.141592812659711D+03 -.112896562683098D+03 -.239707812816182D+02
 0.148870250976203D+03 -.726391441520315D+02 -.427838805986487D+02 -.820986880498011D+02
 0.000000000000000D+00 0.000000000000000D+00 -.000000000000000D+00 -.000000000000000D+00
 0.711833260097677D+03 0.000000000000000D+00 0.000000000000000D+00 0.711833260097677D+03
 0.759818219711763D+03 0.000000000000000D+00 0.000000000000000D+00 -.759818219711763D+03
 0.506450488423607D+03 -.249820598127132D+03 0.411159307233732D+03 0.129284719541751D+03
 0.519342714978897D+02 0.854220731723052D+01 0.456645530782648D+02 -.232152502103317D+02
 0.895302161673077D+02 0.850916500931149D+02 -.141588253801147D+02 -.239707812816182D+02
 0.210810667832336D+03 -.147298536068009D+03 0.876859910170284D+02 -.820986880498011D+02
 0.612925835888301D+03 0.303485276784796D+03 -.530351025948910D+03 -.479849596140861D+02
0.503406093064D-05 0.000000000000D+00 0.000000000000D+00 0.100222110884D-06 0.000000000000D+00  7 -2 2 23 -13 13 23 21 0 0.98321072D-02 0.21908310D+00 0.70273146D+05 0.70273146D+05 0.70273146D+05 0.11345159D+01  1  2  2  1  7  1       -2 0.571719671984D-03 0.100000000000D+01
-.273986723874D-06 0.000000000000D+00 -.193321194723D-07 0.100222110884D-06 0.000000000000D+00  7 -2 2 23 -13 13 23 21 2 0.98321072D-02 0.21908310D+00 0.70273146D+05 0.70273146D+05 0.70273146D+05 0.11345159D+01  1  2  3  1  7  1       -2 -.400511817746D-04 0.100000000000D+01
0.317727475970D-06 0.000000000000D+00 0.000000000000D+00 0.100222110884D-06 0.000000000000D+00  7 -2 2 23 -13 13 23 21 2 0.98321072D-02 0.21908310D+00 0.70273146D+05 0.70273146D+05 0.70273146D+05 0.11345159D+01  1  2 15  1  7  1       -2 0.464451733826D-04 0.100000000000D+01
  </mgrwgt>
  </event>
  <event>
  8     66 0.27870365E-05 0.39004718E+03 0.75467711E-02 0.92035471E-01
       -2 -1    0    0    0  501 0.00000000E+00 0.00000000E+00 0.10214864E+03 0.10214915E+03 0.32000000E+00 0.0000E+00 0.9000E+01
        2 -1    0    0  501    0 0.00000000E+00 0.00000000E+00 -.18725785E+04 0.18725785E+04 0.32000000E+00 0.0000E+00 0.9000E+01
       25  2    1    2    0    0 0.15653765E+02 0.34107499E+03 -.13569017E+04 0.14307627E+04 0.29886831E+03 0.0000E+00 0.0000E+00
       23  2    3    3    0    0 0.10038813E+03 0.24029732E+03 -.67020485E+03 0.72563578E+03 0.97735155E+02 0.0000E+00 0.0000E+00
       23  1    1    2    0    0 -.15653765E+02 -.34107499E+03 -.41352813E+03 0.54396503E+03 0.91188000E+02 0.0000E+00 0.9000E+01
      -11  1    4    4    0    0 0.30265492E+02 0.14552532E+03 -.47375793E+03 0.49652814E+03 0.51099893E-03 0.0000E+00 0.9000E+01
       11  1    4    4    0    0 0.70122634E+02 0.94772004E+02 -.19644692E+03 0.22910764E+03 0.51099893E-03 0.0000E+00 0.9000E+01
       23  1    3    3    0    0 -.84734360E+02 0.10077767E+03 -.68669688E+03 0.70512687E+03 0.91188000E+02 0.0000E+00 0.9000E+01
#aMCatNLO 1  0  0  1  1 0.39817678D+03 0.00000000D+00  -5  7  0 0.00000000D+00 0.00000000D+00 0.00000000D+00 0.00000000D+00 0.00000000D+00
  <mgrwgt>
 0.4827861900D-03    5    2    0
 0.437357837825412D+03 0.000000000000000D+00 0.000000000000000D+00 0.437357837825412D+03
 0.437357837825412D+03 0.000000000000000D+00 0.000000000000000D+00 -.437357837825412D+03
 0.391053070056273D+03 -.156537653321750D+02 -.341074987136356D+03 0.167421817686036D+03
 0.162055716269687D+03 0.302654917550502D+02 0.145525316032056D+03 -.645634384019051D+02
 0.119615664845934D+03 0.701226338663738D+02 0.947720043436929D+02 0.202235182116337D+02
 0.201991224478931D+03 -.847343602892490D+02 0.100777666760607D+03 -.123081897495764D+03
 0.000000000000000D+00 -.000000000000000D+00 -.000000000000000D+00 0.000000000000000D+00
 0.707921881411229D+03 0.000000000000000D+00 0.000000000000000D+00 0.707921881411229D+03
 0.654854355861087D+03 0.000000000000000D+00 0.000000000000000D+00 -.654854355861087D+03
 0.420931070837797D+03 0.160453064558482D+03 -.339252802625344D+03 0.167421817686036D+03
 0.192517634849308D+03 0.107166979954706D+03 0.146321018849250D+03 -.645634384019051D+02
 0.163790608584321D+03 0.131589081142021D+03 0.954080001664679D+02 0.202235182116337D+02
 0.183839383827387D+03 -.105365535726223D+01 0.101643514408267D+03 -.123081897495764D+03
 0.401697539173502D+03 -.398155470297947D+03 -.411973079864107D+01 0.530675255501421D+02
0.144348545089D-04 0.000000000000D+00 0.000000000000D+00 0.605202657805D-08 0.000000000000D+00  7 -2 2 23 -11 11 23 21 0 0.15715217D-01 0.28808904D+00 0.15213680D+06 0.15213680D+06 0.15213680D+06 0.11070675D+01  1  2  2  1  7  1       -2 0.444163244982D-03 0.100000000000D+01
-.789156946394D-06 0.000000000000D+00 -.554336420985D-07 0.605202657805D-08 0.000000000000D+00  7 -2 2 23 -11 11 23 21 2 0.15715217D-01 0.28808904D+00 0.15213680D+06 0.15213680D+06 0.15213680D+06 0.11070675D+01  1  2  3  1  7  1       -2 -.297606049622D-04 0.100000000000D+01
0.924684933972D-06 0.000000000000D+00 0.000000000000D+00 0.605202657805D-08 0.000000000000D+00  7 -2 2 23 -11 11 23 21 2 0.15715217D-01 0.28808904D+00 0.15213680D+06 0.15213680D+06 0.15213680D+06 0.11070675D+01  1  2 15  1  7  1       -2 0.348716223816D-04 0.100000000000D+01
0.822791068904D-06 0.000000000000D+00 -.455467241113D-05 0.605202657805D-08 0.000000000000D+00  7 -2 2 23 -11 11 23 21 2 0.41576362D-01 0.28808904D+00 0.15213680D+06 0.15213680D+06 0.15213680D+06 0.11070675D+01  1  2  5  1  7  1       -2 0.576865727757D-05 0.100000000000D+01
0.359360457294D-06 0.000000000000D+00 -.492474743592D-06 0.605202657805D-08 0.000000000000D+00  7 21 2 23 -11 11 23 2 2 0.41576362D-01 0.28808904D+00 0.15213680D+06 0.15213680D+06 0.15213680D+06 0.11070675D+01  1  2  5  3  7  1       -2 0.277432703655D-04 0.100000000000D+01
  </mgrwgt>
  </event>
  <event>
  8     66 0.27870365E-05 0.29317973E+03 0.75467711E-02 0.90042804E-01
       -2 -1    0    0    0  501 0.00000000E+00 0.00000000E+00 0.42486580E+03 0.42486592E+03 0.32000000E+00 0.0000E+00 0.9000E+01
        2 -1    0    0  501    0 0.00000000E+00 0.00000000E+00 -.47058262E+03 0.47058273E+03 0.32000000E+00 0.0000E+00 0.9000E+01
       25  2    1    2    0    0 0.20754994E+03 -.32051317E+02 -.35556074E+03 0.51019188E+03 0.29961317E+03 0.0000E+00 0.0000E+00
       23  2    3    3    0    0 0.24641808E+03 -.76332037E+01 -.27274854E+03 0.37873813E+03 0.90943218E+02 0.0000E+00 0.0000E+00
       23  1    1    2    0    0 -.20754994E+03 0.32051317E+02 0.30984393E+03 0.38525677E+03 0.91188000E+02 0.0000E+00 0.9000E+01
      -13  1    4    4    0    0 0.13513636E+03 -.37221804E+02 -.10439807E+03 0.17477491E+03 0.10565837E+00 0.0000E+00 0.9000E+01
       13  1    4    4    0    0 0.11128172E+03 0.29588600E+02 -.16835046E+03 0.20396322E+03 0.10565837E+00 0.0000E+00 0.9000E+01
       23  1    3    3    0    0 -.38868140E+02 -.24418114E+02 -.82812209E+02 0.13145376E+03 0.91188000E+02 0.0000E+00 0.9000E+01
#aMCatNLO 1  0  0  1  1 0.66862773D+03 0.00000000D+00  -5  7  0 0.00000000D+00 0.00000000D+00 0.00000000D+00 0.00000000D+00 0.00000000D+00
  <mgrwgt>
 0.4835031653D-03    3    2    0
 0.447140431275014D+03 0.000000000000000D+00 0.000000000000000D+00 0.447140431275014D+03
 0.447140431275014D+03 0.000000000000000D+00 0.000000000000000D+00 -.447140431275014D+03
 0.401599481905683D+03 -.207549943074656D+03 0.320513174392488D+02 0.329943368933260D+03
 0.169666132741346D+03 0.135136394853362D+03 -.372218937111171D+02 -.955995921225542D+02
 0.195623303439030D+03 0.111281688624716D+03 0.295886899646825D+02 -.158143517260127D+03
 0.127391944463969D+03 -.388681404034227D+02 -.244181136928142D+02 -.762002595505782D+02
 0.000000000000000D+00 0.000000000000000D+00 0.000000000000000D+00 -.000000000000000D+00
 0.761259061467874D+03 0.000000000000000D+00 0.000000000000000D+00 0.761259061467874D+03
 0.110898607699490D+04 0.000000000000000D+00 0.000000000000000D+00 -.110898607699490D+04
 0.594421401626978D+03 -.442099404015519D+03 -.201759861306146D+03 0.329943368933260D+03
 0.159936476650449D+03 0.575194335670152D+02 -.114594543113931D+03 -.955995921225542D+02
 0.169712239389095D+03 0.252501042979363D+02 -.561720960976223D+02 -.158143517260127D+03
 0.192532453794369D+03 -.114206013729110D+03 -.995188489313040D+02 -.762002595505782D+02
 0.753642567001879D+03 0.473535879879678D+03 0.472045349449003D+03 -.347727015527021D+03
0.261488140522D-04 0.000000000000D+00 0.000000000000D+00 0.855258047720D-06 0.000000000000D+00  7 -2 2 23 -13 13 23 21 0 0.65363987D-01 0.72397344D-01 0.85954356D+05 0.85954356D+05 0.85954356D+05 0.11271564D+01  1  2  2  1  7  1       -2 0.472796751853D-03 0.100000000000D+01
-.113803513907D-05 0.000000000000D+00 -.100418331101D-06 0.855258047720D-06 0.000000000000D+00  7 -2 2 23 -13 13 23 21 2 0.65363987D-01 0.72397344D-01 0.85954356D+05 0.85954356D+05 0.85954356D+05 0.11271564D+01  1  2  3  1  7  1       -2 -.261424626667D-04 0.100000000000D+01
0.160410732681D-05 0.000000000000D+00 0.000000000000D+00 0.855258047720D-06 0.000000000000D+00  7 -2 2 23 -13 13 23 21 2 0.65363987D-01 0.72397344D-01 0.85954356D+05 0.85954356D+05 0.85954356D+05 0.11271564D+01  1  2 15  1  7  1       -2 0.368488761594D-04 0.100000000000D+01
  </mgrwgt>
  </event>
  <event>
  8     66 0.27870365E-05 0.54882757E+02 0.75467711E-02 0.10699664E+00
       -2 -1    0    0    0  501 0.00000000E+00 0.00000000E+00 0.50443525E+02 0.50444540E+02 0.32000000E+00 0.0000E+00 0.9000E+01
        2 -1    0    0  501    0 0.00000000E+00 0.00000000E+00 -.17367843E+04 0.17367843E+04 0.32000000E+00 0.0000E+00 0.9000E+01
       25  2    1    2    0    0 0.59839151E+02 -.16616128E+02 -.16385333E+04 0.16669890E+04 0.30034015E+03 0.0000E+00 0.0000E+00
       23  2    3    3    0    0 -.95463707E+01 0.75439284E+02 -.32966491E+03 0.34989363E+03 0.89243394E+02 0.0000E+00 0.0000E+00
       23  1    1    2    0    0 -.59839151E+02 0.16616128E+02 -.47807508E+02 0.12023988E+03 0.91188000E+02 0.0000E+00 0.9000E+01
      -11  1    4    4    0    0 -.19001628E+02 0.60462537E+02 -.92856547E+02 0.11242383E+03 0.51099893E-03 0.0000E+00 0.9000E+01
       11  1    4    4    0    0 0.94552570E+01 0.14976747E+02 -.23680836E+03 0.23746980E+03 0.51099893E-03 0.0000E+00 0.9000E+01
       23  1    3    3    0    0 0.69385522E+02 -.92055411E+02 -.13088684E+04 0.13170954E+04 0.91188000E+02 0.0000E+00 0.9000E+01
#aMCatNLO 1  0  0  2  1 0.40504017D+02 0.00000000D+00  -5  7  0 0.00000000D+00 0.00000000D+00 0.00000000D+00 0.00000000D+00 0.00000000D+00
  <mgrwgt>
 0.6322986807D-03    9    2    0
 0.295990636232521D+03 0.000000000000000D+00 0.000000000000000D+00 0.295990636232521D+03
 0.295990636232521D+03 0.000000000000000D+00 0.000000000000000D+00 -.295990636232521D+03
 0.226825480454660D+03 -.598391512168331D+02 0.166161276861798D+02 0.198186093159568D+03
 0.748999052305606D+02 -.190016276288983D+02 0.604625368636898D+02 0.399151047475338D+02
 0.423548580106156D+02 0.945525696676951D+01 0.149767466576944D+02 -.384737465337470D+02
 0.247901028769206D+03 0.693855218789618D+02 -.920554112075640D+02 -.199627451373355D+03
 0.000000000000000D+00 0.000000000000000D+00 0.000000000000000D+00 -.000000000000000D+00
 0.305427928306315D+03 0.000000000000000D+00 0.000000000000000D+00 0.305427928306315D+03
 0.343581601449716D+03 0.000000000000000D+00 0.000000000000000D+00 -.343581601449716D+03
 0.230302147065582D+03 -.732867542522657D+02 0.866900965116422D+01 0.198186093159568D+03
 0.740895646042765D+02 -.233845419971832D+02 0.578723698480254D+02 0.399151047475338D+02
 0.413755836003037D+02 0.699210734951026D+01 0.135211013137111D+02 -.384737465337470D+02
 0.247598024171809D+03 0.548091231508221D+02 -.100669612631621D+03 -.199627451373355D+03
 0.556442103140597D+02 0.348700657491165D+02 0.206071318187202D+02 -.381536731434011D+02
0.387495096093D-05 0.000000000000D+00 0.000000000000D+00 0.141544065138D-06 0.000000000000D+00  7 -2 2 23 -11 11 23 21 0 0.77606227D-02 0.26719767D+00 0.28628507D+05 0.28628507D+05 0.28628507D+05 0.11692262D+01  1  2  2  2  7  2        2 0.433462388533D-03 0.100000000000D+01
-.133412520908D-06 0.000000000000D+00 -.148808319880D-07 0.141544065138D-06 0.000000000000D+00  7 -2 2 23 -11 11 23 21 2 0.77606227D-02 0.26719767D+00 0.28628507D+05 0.28628507D+05 0.28628507D+05 0.11692262D+01  1  2  3  2  7  2        2 -.204022875832D-04 0.100000000000D+01
0.235691527352D-06 0.000000000000D+00 0.000000000000D+00 0.141544065138D-06 0.000000000000D+00  7 -2 2 23 -11 11 23 21 2 0.77606227D-02 0.26719767D+00 0.28628507D+05 0.28628507D+05 0.28628507D+05 0.11692262D+01  1  2 15  2  7  2        2 0.360434409699D-04 0.100000000000D+01
0.804310020106D-05 0.000000000000D+00 0.000000000000D+00 0.141544065138D-06 0.000000000000D+00  7 -2 2 23 -11 11 23 21 2 0.77606227D-02 0.31395172D+00 0.36466454D+05 0.36466454D+05 0.36466454D+05 0.11595514D+01  1  2 12  2  7  2        2 0.835824625755D-03 0.100000000000D+01
-.840670598846D-05 0.000000000000D+00 0.000000000000D+00 0.141544065138D-06 0.000000000000D+00  7 -2 2 23 -11 11 23 21 2 0.77606227D-02 0.26719767D+00 0.28628507D+05 0.28628507D+05 0.28628507D+05 0.11692262D+01  1  2  4  2  7  2        2 -.128560671845D-02 0.100000000000D+01
-.125964672393D-04 0.000000000000D+00 -.267571817991D-05 0.141544065138D-06 0.000000000000D+00  7 -2 2 23 -11 11 23 21 2 0.77606227D-02 0.31392314D+00 0.28628507D+05 0.28628507D+05 0.28628507D+05 0.11692262D+01  1  2  5  2  7  2        2 -.133668261792D-02 0.100000000000D+01
0.128942499530D-04 0.000000000000D+00 0.264134290667D-05 0.141544065138D-06 0.000000000000D+00  7 -2 2 23 -11 11 23 21 2 0.77606227D-02 0.26719767D+00 0.28628507D+05 0.28628507D+05 0.28628507D+05 0.11692262D+01  1  2  6  2  7  2        2 0.197187036061D-02 0.100000000000D+01
0.194458380566D-06 0.000000000000D+00 0.000000000000D+00 0.141544065138D-06 0.000000000000D+00  7 -2 21 23 -11 11 23 -2 2 0.77606227D-02 0.31395172D+00 0.36466454D+05 0.36466454D+05 0.36466454D+05 0.11595514D+01  1  2 12  4  7  2        2 0.433197114467D-05 0.100000000000D+01
-.283294614462D-06 0.000000000000D+00 -.646617705393D-07 0.141544065138D-06 0.000000000000D+00  7 -2 21 23 -11 11 23 -2 2 0.77606227D-02 0.31392314D+00 0.28628507D+05 0.28628507D+05 0.28628507D+05 0.11692262D+01  1  2  5  4  7  2        2 -.654248235015D-05 0.100000000000D+01
  </mgrwgt>
  </event>
  <event>
  9     66 -.27870365E-05 0.16765879E+04 0.75467711E-02 0.82266389E-01
       -2 -1    0    0    0  501 0.00000000E+00 0.00000000E+00 0.13406158E+04 0.13406158E+04 0.32000000E+00 0.0000E+00 0.9000E+01
        2 -1    0    0  502    0 0.00000000E+00 0.00000000E+00 -.23757498E+04 0.23757499E+04 0.32000000E+00 0.0000E+00 0.9000E+01
       25  2    1    2    0    0 0.15212530E+04 -.47595132E+03 -.75671584E+03 0.17894905E+04 0.29818911E+03 0.0000E+00 0.0000E+00
       23  2    3    3    0    0 0.69022388E+03 -.15964062E+03 -.45065576E+03 0.84468891E+03 0.92274663E+02 0.0000E+00 0.0000E+00
       23  1    1    2    0    0 -.16788426E+04 0.48090140E+03 -.24685361E+03 0.17660777E+04 0.91188000E+02 0.0000E+00 0.9000E+01
      -13  1    4    4    0    0 0.35458647E+03 -.38169396E+02 -.20461310E+03 0.41116299E+03 0.10565837E+00 0.0000E+00 0.9000E+01
       13  1    4    4    0    0 0.33563740E+03 -.12147122E+03 -.24604266E+03 0.43352592E+03 0.10565837E+00 0.0000E+00 0.9000E+01
       23  1    3    3    0    0 0.83102916E+03 -.31631070E+03 -.30606008E+03 0.94480154E+03 0.91188000E+02 0.0000E+00 0.9000E+01
       21  1    1    2  502  501 0.15758953E+03 -.49500797E+01 -.31564568E+02 0.16079754E+03 0.75000000E+00 0.0000E+00 0.9000E+01
#aMCatNLO 2  0  0  2  1 0.15766726D+03 0.00000000D+00  -5  7  0 0.00000000D+00 0.00000000D+00 0.00000000D+00 0.00000000D+00 0.00000000D+00
  <mgrwgt>
 -.9302138330D-04    3    2    0
 0.170367649340235D+04 0.000000000000000D+00 0.000000000000000D+00 0.170367649340235D+04
 0.170367649340235D+04 0.000000000000000D+00 0.000000000000000D+00 -.170367649340235D+04
 0.169184891103771D+04 -.159886965184210D+04 0.478389350515578D+03 0.262291731030728D+03
 0.385238215789298D+03 0.372004749785720D+03 -.387164156762844D+02 -.923146153031383D+02
 0.395616290413945D+03 0.353552538910007D+03 -.122034066210451D+03 -.128920666129687D+03
 0.934649569563747D+03 0.873312363146372D+03 -.317638868628842D+03 -.410564495979019D+02
 0.000000000000000D+00 0.000000000000000D+00 -.000000000000000D+00 0.000000000000000D+00
 0.179186487373675D+04 0.000000000000000D+00 0.000000000000000D+00 0.179186487373675D+04
 0.177745809716296D+04 0.000000000000000D+00 0.000000000000000D+00 -.177745809716296D+04
 0.176830165309290D+04 -.167884257111187D+04 0.480901397629989D+03 0.262291731030728D+03
 0.368389017259297D+03 0.354586499119731D+03 -.381692871392357D+02 -.923146153031383D+02
 0.379510567411863D+03 0.335637376989790D+03 -.121471329083723D+03 -.128920666129687D+03
 0.894797639416589D+03 0.831029164412549D+03 -.316310701690118D+03 -.410564495979019D+02
 0.158324093719066D+03 0.157589530589797D+03 -.495007971691161D+01 0.144067765737869D+02
-.481346082140D-02 0.000000000000D+00 0.000000000000D+00 0.634106283887D-06 0.000000000000D+00  7 -2 2 23 -13 13 23 21 2 0.19609777D+00 0.37414952D+00 0.30867683D+07 0.30867683D+07 0.30867683D+07 0.10167546D+01  1  2 13  2  7  2        2 -.270090235425D-03 0.100000000000D+01
-.561581041247D-04 0.000000000000D+00 0.000000000000D+00 0.634106283887D-06 0.000000000000D+00  7 -2 2 23 -13 13 23 21 2 0.19609777D+00 0.35032804D+00 0.28109470D+07 0.28109470D+07 0.28109470D+07 0.10192310D+01  1  2  8  2  7  2        2 -.393498705258D-05 0.100000000000D+01
0.351818600861D-02 0.000000000000D+00 0.000000000000D+00 0.634106283887D-06 0.141192650685D-09  7 -2 2 23 -13 13 23 21 2 0.20624849D+00 0.36549980D+00 0.30867683D+07 0.30867683D+07 0.30867683D+07 0.10167546D+01  1  2  1  2  7  2        2 0.181003839179D-03 0.100000000000D+01
  </mgrwgt>
  </event>
  <event>
  8     66 0.27870365E-05 0.43035982E+03 0.75467711E-02 0.93042131E-01
       -2 -1    0    0    0  501 0.00000000E+00 0.00000000E+00 0.16757806E+04 0.16757807E+04 0.32000000E+00 0.0000E+00 0.9000E+01
        2 -1    0    0  501    0 0.00000000E+00 0.00000000E+00 -.12626289E+03 0.12626330E+03 0.32000000E+00 0.0000E+00 0.9000E+01
       25  2    1    2    0    0 -.37761821E+03 -.81781796E+02 0.60892802E+03 0.78110907E+03 0.30009045E+03 0.0000E+00 0.0000E+00
       23  2    3    3    0    0 -.27472455E+02 -.59014292E+02 0.65755090E+02 0.12806046E+03 0.88534326E+02 0.0000E+00 0.0000E+00
       23  1    1    2    0    0 0.37761821E+03 0.81781796E+02 0.94058972E+03 0.10209349E+04 0.91188000E+02 0.0000E+00 0.9000E+01
      -13  1    4    4    0    0 0.27270558E+02 -.22887433E+02 0.59671192E+00 0.35607374E+02 0.10565837E+00 0.0000E+00 0.9000E+01
       13  1    4    4    0    0 -.54743013E+02 -.36126860E+02 0.65158378E+02 0.92453085E+02 0.10565837E+00 0.0000E+00 0.9000E+01
       23  1    3    3    0    0 -.35014575E+03 -.22767503E+02 0.54317293E+03 0.65304861E+03 0.91188000E+02 0.0000E+00 0.9000E+01
#aMCatNLO 1  0  0  2  1 0.25627889D+03 0.00000000D+00  -5  7  0 0.00000000D+00 0.00000000D+00 0.00000000D+00 0.00000000D+00 0.00000000D+00
  <mgrwgt>
 0.7873875338D-03    3    2    0
 0.459988372487048D+03 0.000000000000000D+00 0.000000000000000D+00 0.459988372487048D+03
 0.459988372487048D+03 0.000000000000000D+00 0.000000000000000D+00 -.459988372487048D+03
 0.415563867015274D+03 0.377618209367601D+03 0.817817957868685D+02 0.122858870483861D+03
 0.687424277096213D+02 0.272706744179560D+02 -.228874138478673D+02 -.588047444647012D+02
 0.713501332497570D+02 -.547431296839801D+02 -.361268784560598D+02 -.280870062516835D+02
 0.364320316999444D+03 -.350145754101576D+03 -.227675034829414D+02 -.359671197674766D+02
 0.000000000000000D+00 -.000000000000000D+00 -.000000000000000D+00 0.000000000000000D+00
 0.108017511633816D+04 0.000000000000000D+00 0.000000000000000D+00 0.108017511633816D+04
 0.504747756738591D+03 0.000000000000000D+00 0.000000000000000D+00 -.504747756738591D+03
 0.487968044223833D+03 0.418831863382849D+03 0.198199719975365D+03 0.122858870483861D+03
 0.678848129897082D+02 0.335027817261726D+02 -.528332089667904D+01 -.588047444647012D+02
 0.594907225429187D+02 -.487749622129462D+02 -.192683473505671D+02 -.280870062516835D+02
 0.339662222148157D+03 -.318034333973188D+03 0.679389617265894D+02 -.359671197674766D+02
 0.629917071172137D+03 -.855253489228875D+02 -.241587013454709D+03 0.575427359599572D+03
0.403588468019D-03 0.000000000000D+00 0.000000000000D+00 0.219389643287D-06 0.000000000000D+00  7 -2 2 23 -13 13 23 21 0 0.25781244D+00 0.19425094D-01 0.18520957D+06 0.18520957D+06 0.18520957D+06 0.11003973D+01  1  2  2  2  7  2        2 0.779883814039D-03 0.100000000000D+01
-.223007362789D-04 0.000000000000D+00 -.154988598448D-05 0.219389643287D-06 0.000000000000D+00  7 -2 2 23 -13 13 23 21 2 0.25781244D+00 0.19425094D-01 0.18520957D+06 0.18520957D+06 0.18520957D+06 0.11003973D+01  1  2  3  2  7  2        2 -.521806344955D-04 0.100000000000D+01
0.255076439174D-04 0.000000000000D+00 0.000000000000D+00 0.219389643287D-06 0.000000000000D+00  7 -2 2 23 -13 13 23 21 2 0.25781244D+00 0.19425094D-01 0.18520957D+06 0.18520957D+06 0.18520957D+06 0.11003973D+01  1  2 15  2  7  2        2 0.596843542494D-04 0.100000000000D+01
  </mgrwgt>
  </event>
  <event>
  8     66 0.27870365E-05 0.24225113E+03 0.75467711E-02 0.98591070E-01
       -2 -1    0    0    0  501 0.00000000E+00 0.00000000E+00 0.30046709E+03 0.30046726E+03 0.32000000E+00 0.0000E+00 0.9000E+01
        2 -1    0    0  501    0 0.00000000E+00 0.00000000E+00 -.24640178E+03 0.24640199E+03 0.32000000E+00 0.0000E+00 0.9000E+01
       25  2    1    2    0    0 0.18420569E+02 -.16209700E+03 0.95621890E+02 0.35540918E+03 0.30092754E+03 0.0000E+00 0.0000E+00
       23  2    3    3    0    0 -.52746352E+02 -.18939276E+02 -.32996939E+02 0.13087206E+03 0.11356859E+03 0.0000E+00 0.0000E+00
       23  1    1    2    0    0 -.18420569E+02 0.16209700E+03 -.41556584E+02 0.19146006E+03 0.91188000E+02 0.0000E+00 0.9000E+01
      -11  1    4    4    0    0 -.39140513E+02 0.38276834E+02 0.12930603E+02 0.56252079E+02 0.51099893E-03 0.0000E+00 0.9000E+01
       11  1    4    4    0    0 -.13605839E+02 -.57216110E+02 -.45927542E+02 0.74619979E+02 0.51099893E-03 0.0000E+00 0.9000E+01
       23  1    3    3    0    0 0.71166921E+02 -.14315773E+03 0.12861883E+03 0.22453712E+03 0.91188000E+02 0.0000E+00 0.9000E+01
#aMCatNLO 1  0  0  2  2 0.20318139D+03 0.00000000D+00  -5  7  0 0.00000000D+00 0.00000000D+00 0.00000000D+00 0.00000000D+00 0.00000000D+00
  <mgrwgt>
 0.3466096984D-03    3    2    0
 0.272095072342483D+03 0.000000000000000D+00 0.000000000000000D+00 0.272095072342483D+03
 0.272095072342483D+03 0.000000000000000D+00 0.000000000000000D+00 -.272095072342483D+03
 0.196531288548337D+03 -.184205687309022D+02 0.162097001748780D+03 -.607827336186479D+02
 0.552443563700217D+02 -.391405135516016D+02 0.382768335970157D+02 0.740561404889676D+01
 0.795502405759738D+02 -.136058401168470D+02 -.572161073692430D+02 -.535671442950001D+02
 0.212864259190634D+03 0.711669223993509D+02 -.143157727976553D+03 0.106944263864751D+03
 0.000000000000000D+00 0.000000000000000D+00 -.000000000000000D+00 0.000000000000000D+00
 0.906797413461989D+03 0.000000000000000D+00 0.000000000000000D+00 0.906797413461989D+03
 0.307186394250831D+03 0.000000000000000D+00 0.000000000000000D+00 -.307186394250831D+03
 0.258784270102582D+03 -.744189379950477D+02 0.222309082293234D+03 -.607827336186479D+02
 0.793865076343654D+02 -.556984999714083D+02 0.560807594088647D+02 0.740561404889676D+01
 0.727306577625669D+02 -.323345697089215D+02 -.370780963965678D+02 -.535671442950001D+02
 0.169982022599852D+03 0.240814076354124D+02 -.925291678113452D+02 0.106944263864751D+03
 0.633100349613454D+03 0.138370600039965D+03 -.148782577494185D+03 0.599611019211158D+03
0.465580421658D-05 0.000000000000D+00 0.000000000000D+00 0.203468096170D-09 0.000000000000D+00  7 -2 2 23 -11 11 23 21 0 0.46225735D-01 0.37907995D-01 0.58685608D+05 0.58685608D+05 0.58685608D+05 0.11412266D+01  1  2  2  2  7  2        2 0.342041904567D-03 0.100000000000D+01
-.254411145543D-06 0.000000000000D+00 -.178795140931D-07 0.203468096170D-09 0.000000000000D+00  7 -2 2 23 -11 11 23 21 2 0.46225735D-01 0.37907995D-01 0.58685608D+05 0.58685608D+05 0.58685608D+05 0.11412266D+01  1  2  3  2  7  2        2 -.243424620921D-04 0.100000000000D+01
0.302150673576D-06 0.000000000000D+00 0.000000000000D+00 0.203468096170D-09 0.000000000000D+00  7 -2 2 23 -11 11 23 21 2 0.46225735D-01 0.37907995D-01 0.58685608D+05 0.58685608D+05 0.58685608D+05 0.11412266D+01  1  2 15  2  7  2        2 0.289102558850D-04 0.100000000000D+01
  </mgrwgt>
  </event>
  <event>
  8     66 0.27870365E-05 0.97796169E+02 0.75467711E-02 0.10245925E+00
       -2 -1    0    0    0  501 0.00000000E+00 0.00000000E+00 0.70731601E+02 0.70732325E+02 0.32000000E+00 0.0000E+00 0.9000E+01
        2 -1    0    0  501    0 0.00000000E+00 0.00000000E+00 -.70192525E+03 0.70192533E+03 0.32000000E+00 0.0000E+00 0.9000E+01
       25  2    1    2    0    0 -.61630310E+02 -.21973074E+02 -.56371839E+03 0.64170242E+03 0.29953707E+03 0.0000E+00 0.0000E+00
       23  2    3    3    0    0 -.13885484E+03 0.33268095E+02 -.37370142E+03 0.41053815E+03 0.92202997E+02 0.0000E+00 0.0000E+00
       23  1    1    2    0    0 0.61630310E+02 0.21973074E+02 -.67475262E+02 0.13095523E+03 0.91188000E+02 0.0000E+00 0.9000E+01
      -13  1    4    4    0    0 -.33577904E+02 -.82846937E+01 -.21796903E+02 0.40880655E+02 0.10565837E+00 0.0000E+00 0.9000E+01
       13  1    4    4    0    0 -.10527694E+03 0.41552789E+02 -.35190451E+03 0.36965750E+03 0.10565837E+00 0.0000E+00 0.9000E+01
       23  1    3    3    0    0 0.77224532E+02 -.55241169E+02 -.19001697E+03 0.23116426E+03 0.91188000E+02 0.0000E+00 0.9000E+01
#aMCatNLO 1  0  0  2  1 0.11901838D+03 0.00000000D+00  -5  7  0 0.00000000D+00 0.00000000D+00 0.00000000D+00 0.00000000D+00 0.00000000D+00
  <mgrwgt>
 0.5644561821D-03    9    2    0
 0.222819668357584D+03 0.000000000000000D+00 0.000000000000000D+00 0.222819668357584D+03
 0.222819668357584D+03 0.000000000000000D+00 0.000000000000000D+00 -.222819668357584D+03
 0.131482130435785D+03 0.616303156257494D+02 0.219730761164879D+02 0.684922433694667D+02
 0.400068416658830D+02 -.335778091260895D+02 -.828475812456579D+01 0.201107159790092D+02
 0.142489348034637D+03 -.105277033952488D+03 0.415528516705585D+02 -.865639702390492D+02
 0.131661016578864D+03 0.772245274528285D+02 -.552411696624806D+02 -.203898910942670D+01
 0.000000000000000D+00 -.000000000000000D+00 -.000000000000000D+00 -.000000000000000D+00
 0.262674833781184D+03 0.000000000000000D+00 0.000000000000000D+00 0.262674833781184D+03
 0.341139769793230D+03 0.000000000000000D+00 0.000000000000000D+00 -.341139769793230D+03
 0.148193128886744D+03 0.766829217212683D+02 0.554481218775785D+02 0.684922433694667D+02
 0.357132969005094D+02 -.295024203265976D+02 0.778378563627934D+00 0.201107159790092D+02
 0.146074049930754D+03 -.897460528650683D+02 0.760917414360184D+02 -.865639702390492D+02
 0.131278447498512D+03 0.913763841072607D+02 -.237692739584841D+02 -.203898910942670D+01
 0.142555680357894D+03 -.488108326368630D+02 -.108548967918741D+03 -.784649360120461D+02
0.220935898816D-05 0.000000000000D+00 0.000000000000D+00 0.123101992922D-06 0.000000000000D+00  7 -2 2 23 -13 13 23 21 0 0.10881846D-01 0.10798856D+00 0.38346318D+05 0.38346318D+05 0.38346318D+05 0.11575725D+01  1  2  2  2  7  2        2 0.582472432121D-03 0.100000000000D+01
-.120252714540D-06 0.000000000000D+00 -.848452025211D-08 0.123101992922D-06 0.000000000000D+00  7 -2 2 23 -13 13 23 21 2 0.10881846D-01 0.10798856D+00 0.38346318D+05 0.38346318D+05 0.38346318D+05 0.11575725D+01  1  2  3  2  7  2        2 -.424815530420D-04 0.100000000000D+01
0.140821725490D-06 0.000000000000D+00 0.000000000000D+00 0.123101992922D-06 0.000000000000D+00  7 -2 2 23 -13 13 23 21 2 0.10881846D-01 0.10798856D+00 0.38346318D+05 0.38346318D+05 0.38346318D+05 0.11575725D+01  1  2 15  2  7  2        2 0.497479464289D-04 0.100000000000D+01
0.535761009815D-06 0.000000000000D+00 0.000000000000D+00 0.123101992922D-06 0.000000000000D+00  7 -2 2 23 -13 13 23 21 2 0.10881846D-01 0.17084858D+00 0.69926120D+05 0.69926120D+05 0.69926120D+05 0.11346986D+01  1  2 12  2  7  2        2 0.100132148145D-03 0.100000000000D+01
-.136111157212D-05 0.000000000000D+00 0.000000000000D+00 0.123101992922D-06 0.000000000000D+00  7 -2 2 23 -13 13 23 21 2 0.10881846D-01 0.10798856D+00 0.38346318D+05 0.38346318D+05 0.38346318D+05 0.11575725D+01  1  2  4  2  7  2        2 -.480838488080D-03 0.100000000000D+01
-.152850849750D-05 0.000000000000D+00 -.760699028535D-06 0.123101992922D-06 0.000000000000D+00  7 -2 2 23 -13 13 23 21 2 0.10881846D-01 0.18293552D+00 0.38346318D+05 0.38346318D+05 0.38346318D+05 0.11575725D+01  1  2  5  2  7  2        2 -.268507361019D-03 0.100000000000D+01
0.177221301286D-05 0.000000000000D+00 0.666013186364D-06 0.123101992922D-06 0.000000000000D+00  7 -2 2 23 -13 13 23 21 2 0.10881846D-01 0.10798856D+00 0.38346318D+05 0.38346318D+05 0.38346318D+05 0.11575725D+01  1  2  6  2  7  2        2 0.626067872110D-03 0.100000000000D+01
0.282519985027D-07 0.000000000000D+00 0.000000000000D+00 0.123101992922D-06 0.000000000000D+00  7 -2 21 23 -13 13 23 -2 2 0.10881846D-01 0.17084858D+00 0.69926120D+05 0.69926120D+05 0.69926120D+05 0.11346986D+01  1  2 12  4  7  2        2 0.332489369383D-05 0.100000000000D+01
-.535633806251D-07 0.000000000000D+00 -.447478545129D-07 0.123101992922D-06 0.000000000000D+00  7 -2 21 23 -13 13 23 -2 2 0.10881846D-01 0.18293552D+00 0.38346318D+05 0.38346318D+05 0.38346318D+05 0.11575725D+01  1  2  5  4  7  2        2 -.546170826064D-05 0.100000000000D+01
  </mgrwgt>
  </event>
  <event>
  8     66 0.27870365E-05 0.49024204E+03 0.75467711E-02 0.91385525E-01
       -2 -1    0    0    0  501 0.00000000E+00 0.00000000E+00 0.13731869E+03 0.13731906E+03 0.32000000E+00 0.0000E+00 0.9000E+01
        2 -1    0    0  501    0 0.00000000E+00 0.00000000E+00 -.19938075E+04 0.19938075E+04 0.32000000E+00 0.0000E+00 0.9000E+01
       25  2    1    2    0    0 0.45146100E+03 -.28430087E+02 -.13007252E+04 0.14087598E+04 0.29680450E+03 0.0000E+00 0.0000E+00
       23  2    3    3    0    0 0.26050753E+02 -.25504312E+02 -.13483513E+03 0.16433332E+03 0.86578379E+02 0.0000E+00 0.0000E+00
       23  1    1    2    0    0 -.45146100E+03 0.28430087E+02 -.55576367E+03 0.72236681E+03 0.91188000E+02 0.0000E+00 0.9000E+01
      -13  1    4    4    0    0 0.18575448E+02 0.25970992E+02 -.90565905E+02 0.96029860E+02 0.10565837E+00 0.0000E+00 0.9000E+01
       13  1    4    4    0    0 0.74753049E+01 -.51475304E+02 -.44269226E+02 0.68303460E+02 0.10565837E+00 0.0000E+00 0.9000E+01
       23  1    3    3    0    0 0.42541025E+03 -.29257751E+01 -.11658900E+04 0.12444265E+04 0.91188000E+02 0.0000E+00 0.9000E+01
#aMCatNLO 1  0  0  1  1 0.31814514D+03 0.00000000D+00  -5  7  0 0.00000000D+00 0.00000000D+00 0.00000000D+00 0.00000000D+00 0.00000000D+00
  <mgrwgt>
 0.6574053043D-03    4    2    0
 0.523247036390007D+03 0.000000000000000D+00 0.000000000000000D+00 0.523247036390007D+03
 0.523247036390007D+03 0.000000000000000D+00 0.000000000000000D+00 -.523247036390007D+03
 0.485130404278190D+03 -.451461000869222D+03 0.284300871442050D+02 0.149702881235646D+03
 0.348947590504864D+02 0.185754644512720D+02 0.259711069552874D+02 -.140747267514525D+02
 0.605622511582017D+02 0.747528832799005D+01 -.514754190114002D+02 0.310191483984215D+02
 0.465906658293136D+03 0.425410248089960D+03 -.292577508809221D+01 -.166647302882615D+03
 0.000000000000000D+00 0.000000000000000D+00 -.000000000000000D+00 -.000000000000000D+00
 0.694806561976679D+03 0.000000000000000D+00 0.000000000000000D+00 0.694806561976679D+03
 0.717965638973369D+03 0.000000000000000D+00 0.000000000000000D+00 -.717965638973369D+03
 0.578942650324648D+03 -.525507080464130D+03 0.168198385107407D+03 0.149702881235646D+03
 0.408048886812748D+02 0.133077226200077D+02 0.359144194695126D+02 -.140747267514525D+02
 0.484068226279265D+02 -.107586434272148D+00 -.371620954028079D+02 0.310191483984215D+02
 0.425630889525294D+03 0.363370466195236D+03 0.114179610759103D+03 -.166647302882615D+03
 0.318986949790906D+03 0.148936478083159D+03 -.281130319933215D+03 -.231590769966902D+02
0.568065284642D-04 0.000000000000D+00 0.000000000000D+00 0.271042879382D-08 0.000000000000D+00  7 -2 2 23 -13 13 23 21 0 0.21125983D-01 0.30673965D+00 0.24033726D+06 0.24033726D+06 0.24033726D+06 0.10917493D+01  1  2  2  1  7  1       -2 0.909098995188D-03 0.100000000000D+01
-.313962919890D-05 0.000000000000D+00 -.218152026805D-06 0.271042879382D-08 0.000000000000D+00  7 -2 2 23 -13 13 23 21 2 0.21125983D-01 0.30673965D+00 0.24033726D+06 0.24033726D+06 0.24033726D+06 0.10917493D+01  1  2  3  1  7  1       -2 -.598876305166D-04 0.100000000000D+01
0.362704464571D-05 0.000000000000D+00 0.000000000000D+00 0.271042879382D-08 0.000000000000D+00  7 -2 2 23 -13 13 23 21 2 0.21125983D-01 0.30673965D+00 0.24033726D+06 0.24033726D+06 0.24033726D+06 0.10917493D+01  1  2 15  1  7  1       -2 0.691849565184D-04 0.100000000000D+01
-.136825419560D-04 0.000000000000D+00 0.000000000000D+00 0.271042879382D-08 0.000000000000D+00  7 -2 2 23 -13 13 23 21 2 0.21125983D-01 0.30673965D+00 0.24033726D+06 0.24033726D+06 0.24033726D+06 0.10917493D+01  1  2  4  1  7  1       -2 -.260991016862D-03 0.100000000000D+01
  </mgrwgt>
  </event>
  <event>
  8     66 0.27870365E-05 0.17078044E+03 0.75467711E-02 0.90790460E-01
       -2 -1    0    0    0  501 0.00000000E+00 0.00000000E+00 0.65059560E+03 0.65059568E+03 0.32000000E+00 0.0000E+00 0.9000E+01
        2 -1    0    0  501    0 0.00000000E+00 0.00000000E+00 -.79153175E+03 0.79153182E+03 0.32000000E+00 0.0000E+00 0.9000E+01
       25  2    1    2    0    0 -.24288875E+03 -.62776825E+03 -.18682549E+03 0.76131254E+03 0.30266334E+03 0.0000E+00 0.0000E+00
       23  2    3    3    0    0 -.11632583E+03 -.89991422E+02 -.11716457E+01 0.17139331E+03 0.88000799E+02 0.0000E+00 0.0000E+00
       23  1    1    2    0    0 0.24288875E+03 0.62776825E+03 0.45889337E+02 0.68081496E+03 0.91188000E+02 0.0000E+00 0.9000E+01
      -13  1    4    4    0    0 -.69637889E+02 -.74847831E+02 0.37513037E+02 0.10889845E+03 0.10565837E+00 0.0000E+00 0.9000E+01
       13  1    4    4    0    0 -.46687940E+02 -.15143591E+02 -.38684682E+02 0.62494863E+02 0.10565837E+00 0.0000E+00 0.9000E+01
       23  1    3    3    0    0 -.12656292E+03 -.53777683E+03 -.18565384E+03 0.58991923E+03 0.91188000E+02 0.0000E+00 0.9000E+01
#aMCatNLO 1  0  0  1  2 0.31822053D+02 0.00000000D+00  -5  7  0 0.00000000D+00 0.00000000D+00 0.00000000D+00 0.00000000D+00 0.00000000D+00
  <mgrwgt>
 0.5132984682D-03    9    2    0
 0.717612136827133D+03 0.000000000000000D+00 0.000000000000000D+00 0.717612136827133D+03
 0.717612136827133D+03 0.000000000000000D+00 0.000000000000000D+00 -.717612136827133D+03
 0.688595819862293D+03 0.242888746940704D+03 0.627768252911519D+03 0.112964724732177D+03
 0.113106019627985D+03 -.696379218912287D+02 -.748479178036680D+02 0.483871957361923D+02
 0.589966182110761D+02 -.466879073117125D+02 -.151435046426377D+02 -.327339966752431D+02
 0.574525815952913D+03 -.126562917737763D+03 -.537776830465213D+03 -.128617923793127D+03
 0.000000000000000D+00 -.000000000000000D+00 0.000000000000000D+00 0.000000000000000D+00
 0.736186140222090D+03 0.000000000000000D+00 0.000000000000000D+00 0.736186140222090D+03
 0.731549013222269D+03 0.000000000000000D+00 0.000000000000000D+00 -.731549013222269D+03
 0.676750634824453D+03 0.246866165868624D+03 0.613165750435237D+03 0.112964724732177D+03
 0.114329247893985D+03 -.689753755208087D+02 -.772803583360934D+02 0.483871957361923D+02
 0.590630316047421D+02 -.463439853099457D+02 -.164061631589920D+02 -.327339966752431D+02
 0.585434098159848D+03 -.123183814578866D+03 -.550182705516249D+03 -.128617923793127D+03
 0.321581409613313D+02 -.836299045900431D+01 0.307034765760977D+02 0.463712699982157D+01
0.606544446568D-04 0.000000000000D+00 0.000000000000D+00 0.121734365011D-07 0.000000000000D+00  7 -2 2 23 -13 13 23 21 0 0.10009164D+00 0.12177413D+00 0.48339096D+06 0.48339096D+06 0.48339096D+06 0.10695488D+01  1  2  2  1  7  1       -2 0.215917621866D-03 0.100000000000D+01
-.336559018870D-05 0.000000000000D+00 -.232929038164D-06 0.121734365011D-07 0.000000000000D+00  7 -2 2 23 -13 13 23 21 2 0.10009164D+00 0.12177413D+00 0.48339096D+06 0.48339096D+06 0.48339096D+06 0.10695488D+01  1  2  3  1  7  1       -2 -.137052807280D-04 0.100000000000D+01
0.380148427234D-05 0.000000000000D+00 0.000000000000D+00 0.121734365011D-07 0.000000000000D+00  7 -2 2 23 -13 13 23 21 2 0.10009164D+00 0.12177413D+00 0.48339096D+06 0.48339096D+06 0.48339096D+06 0.10695488D+01  1  2 15  1  7  1       -2 0.154803188191D-04 0.100000000000D+01
0.998248689675D-04 0.000000000000D+00 0.000000000000D+00 0.121734365011D-07 0.000000000000D+00  7 -2 2 23 -13 13 23 21 2 0.10363231D+00 0.12177413D+00 0.50620102D+06 0.50620102D+06 0.50620102D+06 0.10681323D+01  1  2 12  1  7  1       -2 0.371702096865D-03 0.100000000000D+01
-.840792884042D-04 0.000000000000D+00 0.000000000000D+00 0.121734365011D-07 0.000000000000D+00  7 -2 2 23 -13 13 23 21 2 0.10009164D+00 0.12177413D+00 0.48339096D+06 0.48339096D+06 0.48339096D+06 0.10695488D+01  1  2  4  1  7  1       -2 -.342385788638D-03 0.100000000000D+01
-.122784414916D-02 0.000000000000D+00 -.180384679181D-03 0.121734365011D-07 0.000000000000D+00  7 -2 2 23 -13 13 23 21 2 0.10425606D+00 0.12177413D+00 0.48339096D+06 0.48339096D+06 0.48339096D+06 0.10695488D+01  1  2  5  1  7  1       -2 -.452519920827D-02 0.100000000000D+01
0.123432141779D-02 0.000000000000D+00 0.180234911081D-03 0.121734365011D-07 0.000000000000D+00  7 -2 2 23 -13 13 23 21 2 0.10009164D+00 0.12177413D+00 0.48339096D+06 0.48339096D+06 0.48339096D+06 0.10695488D+01  1  2  6  1  7  1       -2 0.502637593732D-02 0.100000000000D+01
0.163549880755D-05 0.000000000000D+00 0.000000000000D+00 0.121734365011D-07 0.000000000000D+00  7 21 2 23 -13 13 23 2 2 0.10363231D+00 0.12177413D+00 0.50620102D+06 0.50620102D+06 0.50620102D+06 0.10681323D+01  1  2 12  3  7  1       -2 0.548199123320D-04 0.100000000000D+01
-.872983169662D-05 0.000000000000D+00 -.129819897765D-05 0.121734365011D-07 0.000000000000D+00  7 21 2 23 -13 13 23 2 2 0.10425606D+00 0.12177413D+00 0.48339096D+06 0.48339096D+06 0.48339096D+06 0.10695488D+01  1  2  5  3  7  1       -2 -.289707141399D-03 0.100000000000D+01
  </mgrwgt>
  </event>
  <event>
  8     66 0.27870365E-05 0.45739452E+03 0.75467711E-02 0.95017729E-01
       -2 -1    0    0    0  501 0.00000000E+00 0.00000000E+00 0.14288341E+03 0.14288377E+03 0.32000000E+00 0.0000E+00 0.9000E+01
        2 -1    0    0  501    0 0.00000000E+00 0.00000000E+00 -.16312195E+04 0.16312196E+04 0.32000000E+00 0.0000E+00 0.9000E+01
       25  2    1    2    0    0 0.12202595E+03 -.40499940E+03 -.96125815E+03 0.10921640E+04 0.29981672E+03 0.0000E+00 0.0000E+00
       23  2    3    3    0    0 0.13191860E+03 -.31609164E+03 -.49578435E+03 0.60948026E+03 0.91365349E+02 0.0000E+00 0.0000E+00
       23  1    1    2    0    0 -.12202595E+03 0.40499940E+03 -.52707798E+03 0.68193936E+03 0.91188000E+02 0.0000E+00 0.9000E+01
      -13  1    4    4    0    0 -.58671034E+01 -.85678544E+02 -.12770472E+03 0.15389523E+03 0.10565837E+00 0.0000E+00 0.9000E+01
       13  1    4    4    0    0 0.13778570E+03 -.23041310E+03 -.36807963E+03 0.45558503E+03 0.10565837E+00 0.0000E+00 0.9000E+01
       23  1    3    3    0    0 -.98926484E+01 -.88907761E+02 -.46547380E+03 0.48268371E+03 0.91188000E+02 0.0000E+00 0.9000E+01
#aMCatNLO 1  0  0  1  2 0.50343799D+02 0.00000000D+00  -5  7  0 0.00000000D+00 0.00000000D+00 0.00000000D+00 0.00000000D+00 0.00000000D+00
  <mgrwgt>
 0.3603510361D-03    4    2    0
 0.482777956966876D+03 0.000000000000000D+00 0.000000000000000D+00 0.482777956966876D+03
 0.482777956966876D+03 0.000000000000000D+00 0.000000000000000D+00 -.482777956966876D+03
 0.440535548065409D+03 -.122025950404121D+03 0.404999403154943D+03 0.827131708822802D+02
 0.859176130657888D+02 -.586729550914827D+01 -.856783506769639D+02 0.257513176480683D+01
 0.269719181175256D+03 0.137785894342888D+03 -.230413291288782D+03 0.259460827766336D+02
 0.169383571627298D+03 -.989264842961882D+01 -.889077611891964D+02 -.111234385423721D+03
 0.000000000000000D+00 -.000000000000000D+00 -.000000000000000D+00 -.000000000000000D+00
 0.493520157177089D+03 0.000000000000000D+00 0.000000000000000D+00 0.493520157177089D+03
 0.546253317212166D+03 0.000000000000000D+00 0.000000000000000D+00 -.546253317212166D+03
 0.436976166870183D+03 -.992860073705669D+02 0.407349652229590D+03 0.827131708822802D+02
 0.852707630829975D+02 -.143109955258968D+01 -.852198550058679D+02 0.257513176480683D+01
 0.275996529903135D+03 0.151927636237866D+03 -.228951695023852D+03 0.259460827766336D+02
 0.168624018653694D+03 -.113347950107306D+01 -.880024718206779D+02 -.111234385423721D+03
 0.729059958792453D+02 -.500770498136362D+02 -.517563037919216D+01 -.527331600350776D+02
0.203856566007D-04 0.000000000000D+00 0.000000000000D+00 0.112966821405D-05 0.000000000000D+00  7 -2 2 23 -13 13 23 21 0 0.21982093D-01 0.25095688D+00 0.20920975D+06 0.20920975D+06 0.20920975D+06 0.10963269D+01  1  2  2  1  7  1       -2 0.482199556605D-03 0.100000000000D+01
-.112851958233D-05 0.000000000000D+00 -.782862890134D-07 0.112966821405D-05 0.000000000000D+00  7 -2 2 23 -13 13 23 21 2 0.21982093D-01 0.25095688D+00 0.20920975D+06 0.20920975D+06 0.20920975D+06 0.10963269D+01  1  2  3  1  7  1       -2 -.320842091349D-04 0.100000000000D+01
0.126408540511D-05 0.000000000000D+00 0.000000000000D+00 0.112966821405D-05 0.000000000000D+00  7 -2 2 23 -13 13 23 21 2 0.21982093D-01 0.25095688D+00 0.20920975D+06 0.20920975D+06 0.20920975D+06 0.10963269D+01  1  2 15  1  7  1       -2 0.359383932165D-04 0.100000000000D+01
-.442142622590D-05 0.000000000000D+00 0.000000000000D+00 0.112966821405D-05 0.000000000000D+00  7 -2 2 23 -13 13 23 21 2 0.21982093D-01 0.25095688D+00 0.20920975D+06 0.20920975D+06 0.20920975D+06 0.10963269D+01  1  2  4  1  7  1       -2 -.125702704612D-03 0.100000000000D+01
  </mgrwgt>
  </event>
  <event>
  8     66 0.27870365E-05 0.73652689E+02 0.75467711E-02 0.10861544E+00
       -2 -1    0    0    0  501 0.00000000E+00 0.00000000E+00 0.19432405E+02 0.19435039E+02 0.32000000E+00 0.0000E+00 0.9000E+01
        2 -1    0    0  501    0 0.00000000E+00 0.00000000E+00 -.21676346E+04 0.21676346E+04 0.32000000E+00 0.0000E+00 0.9000E+01
       25  2    1    2    0    0 0.24095102E+02 0.30541189E+02 -.13885885E+04 0.14210138E+04 0.29931407E+03 0.0000E+00 0.0000E+00
       23  2    3    3    0    0 0.26563345E+02 0.89782535E+02 -.30397648E+03 0.33096148E+03 0.91472851E+02 0.0000E+00 0.0000E+00
       23  1    1    2    0    0 -.24095102E+02 -.30541189E+02 -.75961373E+03 0.76605588E+03 0.91188000E+02 0.0000E+00 0.9000E+01
      -11  1    4    4    0    0 0.52603481E+02 0.25081410E+02 -.10460865E+03 0.11974629E+03 0.51099893E-03 0.0000E+00 0.9000E+01
       11  1    4    4    0    0 -.26040136E+02 0.64701125E+02 -.19936783E+03 0.21121519E+03 0.51099893E-03 0.0000E+00 0.9000E+01
       23  1    3    3    0    0 -.24682430E+01 -.59241346E+02 -.10846120E+04 0.10900523E+04 0.91188000E+02 0.0000E+00 0.9000E+01
#aMCatNLO 1  0  0  2  1 0.63647515D+01 0.00000000D+00  -5  7  0 0.00000000D+00 0.00000000D+00 0.00000000D+00 0.00000000D+00 0.00000000D+00
  <mgrwgt>
 0.1647430676D-02   11    2    0
 0.205244390880825D+03 0.000000000000000D+00 0.000000000000000D+00 0.205244390880825D+03
 0.205244390880825D+03 0.000000000000000D+00 0.000000000000000D+00 -.205244390880825D+03
 0.106248187464905D+03 -.240951025107972D+02 -.305411897862938D+02 -.382110946847821D+02
 0.905577431578035D+02 0.526034815422200D+02 0.250814097485648D+02 0.693145111826999D+02
 0.819996146326357D+02 -.260401361722364D+02 0.647011254460439D+02 0.431232243002241D+02
 0.131683236506305D+03 -.246824285918638D+01 -.592413454083149D+02 -.742266407981419D+02
 0.000000000000000D+00 0.000000000000000D+00 -.000000000000000D+00 -.000000000000000D+00
 0.207431895893456D+03 0.000000000000000D+00 0.000000000000000D+00 0.207431895893456D+03
 0.209951580709094D+03 0.000000000000000D+00 0.000000000000000D+00 -.209951580709094D+03
 0.106014251937332D+03 -.248571030918599D+02 -.290827601630812D+02 -.382110946847821D+02
 0.905356065879696D+02 0.519533748246986D+02 0.263256803156035D+02 0.693145111826999D+02
 0.830856057967885D+02 -.266327753327321D+02 0.658354060870602D+02 0.431232243002241D+02
 0.130902658163005D+03 -.341089952929899D+01 -.574371493927505D+02 -.742266407981419D+02
 0.684535411745508D+01 0.294740312919238D+01 -.564117684683188D+01 -.251968481563748D+01
0.170470184125D-05 0.000000000000D+00 0.000000000000D+00 0.368961127624D-07 0.000000000000D+00  7 -2 2 23 -11 11 23 21 0 0.29898052D-02 0.33348245D+00 0.28212368D+05 0.28212368D+05 0.28212368D+05 0.11698196D+01  1  2  2  2  7  2        2 0.461049214093D-03 0.100000000000D+01
-.900792750960D-07 0.000000000000D+00 -.654650392869D-08 0.368961127624D-07 0.000000000000D+00  7 -2 2 23 -11 11 23 21 2 0.29898052D-02 0.33348245D+00 0.28212368D+05 0.28212368D+05 0.28212368D+05 0.11698196D+01  1  2  3  2  7  2        2 -.333396881750D-04 0.100000000000D+01
0.108224478114D-06 0.000000000000D+00 0.000000000000D+00 0.368961127624D-07 0.000000000000D+00  7 -2 2 23 -11 11 23 21 2 0.29898052D-02 0.33348245D+00 0.28212368D+05 0.28212368D+05 0.28212368D+05 0.11698196D+01  1  2 15  2  7  2        2 0.400554994407D-04 0.100000000000D+01
0.181896292234D-05 0.000000000000D+00 0.000000000000D+00 0.368961127624D-07 0.000000000000D+00  7 -2 2 23 -11 11 23 21 2 0.29898052D-02 0.34287775D+00 0.29298768D+05 0.29298768D+05 0.29298768D+05 0.11682902D+01  1  2 12  2  7  2        2 0.622740645876D-03 0.100000000000D+01
-.302975697769D-05 0.000000000000D+00 0.000000000000D+00 0.368961127624D-07 0.000000000000D+00  7 -2 2 23 -11 11 23 21 2 0.29898052D-02 0.33348245D+00 0.28212368D+05 0.28212368D+05 0.28212368D+05 0.11698196D+01  1  2  4  2  7  2        2 -.112135841207D-02 0.100000000000D+01
-.451968339178D-04 0.000000000000D+00 -.587826801502D-05 0.368961127624D-07 0.000000000000D+00  7 -2 2 23 -11 11 23 21 2 0.29898052D-02 0.34265586D+00 0.28212368D+05 0.28212368D+05 0.28212368D+05 0.11698196D+01  1  2  5  2  7  2        2 -.155443553868D-01 0.100000000000D+01
0.453418169846D-04 0.000000000000D+00 0.587610435068D-05 0.368961127624D-07 0.000000000000D+00  7 -2 2 23 -11 11 23 21 2 0.29898052D-02 0.33348245D+00 0.28212368D+05 0.28212368D+05 0.28212368D+05 0.11698196D+01  1  2  6  2  7  2        2 0.167816852205D-01 0.100000000000D+01
0.131961806576D-05 0.000000000000D+00 0.000000000000D+00 0.368961127624D-07 0.663213861596D-08  7 -2 2 23 -11 11 23 21 2 0.30216707D-02 0.34113073D+00 0.29298768D+05 0.29298768D+05 0.29298768D+05 0.11682902D+01  1  2 11  2  7  2        2 0.451137115908D-03 0.100000000000D+01
0.475056564950D-07 0.000000000000D+00 0.000000000000D+00 0.368961127624D-07 0.000000000000D+00  7 -2 21 23 -11 11 23 -2 2 0.29898052D-02 0.34287775D+00 0.29298768D+05 0.29298768D+05 0.29298768D+05 0.11682902D+01  1  2 12  4  7  2        2 0.290728337628D-05 0.100000000000D+01
-.219315811596D-06 0.000000000000D+00 -.287280861785D-07 0.368961127624D-07 0.000000000000D+00  7 -2 21 23 -11 11 23 -2 2 0.29898052D-02 0.34265586D+00 0.28212368D+05 0.28212368D+05 0.28212368D+05 0.11698196D+01  1  2  5  4  7  2        2 -.135356771162D-04 0.100000000000D+01
0.719453535760D-08 0.000000000000D+00 0.000000000000D+00 0.368961127624D-07 0.273998260279D-10  7 -2 21 23 -11 11 23 -2 2 0.30216707D-02 0.34113073D+00 0.29298768D+05 0.29298768D+05 0.29298768D+05 0.11682902D+01  1  2 11  4  7  2        2 0.444860462897D-06 0.100000000000D+01
  </mgrwgt>
  </event>
  <event>
  8     66 0.27870365E-05 0.39180464E+03 0.75467711E-02 0.89022268E-01
       -2 -1    0    0    0  501 0.00000000E+00 0.00000000E+00 0.30416049E+03 0.30416065E+03 0.32000000E+00 0.0000E+00 0.9000E+01
        2 -1    0    0  501    0 0.00000000E+00 0.00000000E+00 -.73776855E+03 0.73776862E+03 0.32000000E+00 0.0000E+00 0.9000E+01
       25  2    1    2    0    0 0.95172471E+02 -.33264577E+03 -.50004266E+03 0.67800647E+03 0.29989848E+03 0.0000E+00 0.0000E+00
       23  2    3    3    0    0 -.87606745E+01 -.27493601E+03 -.41366550E+03 0.50506491E+03 0.91131036E+02 0.0000E+00 0.0000E+00
       23  1    1    2    0    0 -.95172471E+02 0.33264577E+03 0.66434595E+02 0.36392281E+03 0.91188000E+02 0.0000E+00 0.9000E+01
      -11  1    4    4    0    0 -.15271443E+02 -.13002614E+03 -.27414069E+03 0.30379785E+03 0.51099893E-03 0.0000E+00 0.9000E+01
       11  1    4    4    0    0 0.65107688E+01 -.14490987E+03 -.13952480E+03 0.20126706E+03 0.51099893E-03 0.0000E+00 0.9000E+01
       23  1    3    3    0    0 0.10393315E+03 -.57709758E+02 -.86377165E+02 0.17294155E+03 0.91188000E+02 0.0000E+00 0.9000E+01
#aMCatNLO 1  0  0  2  2 0.65667143D+03 0.00000000D+00  -5  7  0 0.00000000D+00 0.00000000D+00 0.00000000D+00 0.00000000D+00 0.00000000D+00
  <mgrwgt>
 0.4096455541D-03    5    2    0
 0.473708945923890D+03 0.000000000000000D+00 0.000000000000000D+00 0.473708945923890D+03
 0.473708945923890D+03 0.000000000000000D+00 0.000000000000000D+00 -.473708945923890D+03
 0.430631941847123D+03 -.951724707294588D+02 0.332645766364005D+03 0.239619725670442D+03
 0.208636821983505D+03 -.152714432639684D+02 -.130026139811093D+03 -.162447866941484D+03
 0.157488017139017D+03 0.651076880398761D+01 -.144909868132346D+03 -.613287497820266D+02
 0.150661110878135D+03 0.103933145189440D+03 -.577097584205662D+02 -.158431089469312D+02
 0.000000000000000D+00 0.000000000000000D+00 0.000000000000000D+00 -.000000000000000D+00
 0.781009427292339D+03 0.000000000000000D+00 0.000000000000000D+00 0.781009427292339D+03
 0.110317802827092D+04 0.000000000000000D+00 0.000000000000000D+00 -.110317802827092D+04
 0.537433314365642D+03 -.390405651475327D+03 0.265866753114764D+03 0.239619725670442D+03
 0.284059773605297D+03 -.165530304559547D+03 -.164013303665520D+03 -.162447866941484D+03
 0.209376228934778D+03 -.105372699356031D+03 -.170216873204585D+03 -.613287497820266D+02
 0.121874378848310D+03 0.208173438716128D+02 -.765097834834746D+02 -.158431089469312D+02
 0.731443759809227D+03 0.640491311519292D+03 0.144873207238816D+03 -.322168600978578D+03
0.190533875429D-04 0.000000000000D+00 0.000000000000D+00 0.124172981966D-05 0.000000000000D+00  7 -2 2 23 -11 11 23 21 0 0.46793939D-01 0.11350287D+00 0.15351088D+06 0.15351088D+06 0.15351088D+06 0.11067598D+01  1  2  2  2  7  2        2 0.396754866022D-03 0.100000000000D+01
-.101214377997D-05 0.000000000000D+00 -.731700250367D-07 0.124172981966D-05 0.000000000000D+00  7 -2 2 23 -11 11 23 21 2 0.46793939D-01 0.11350287D+00 0.15351088D+06 0.15351088D+06 0.15351088D+06 0.11067598D+01  1  2  3  2  7  2        2 -.258166009404D-04 0.100000000000D+01
0.119695286693D-05 0.000000000000D+00 0.000000000000D+00 0.124172981966D-05 0.000000000000D+00  7 -2 2 23 -11 11 23 21 2 0.46793939D-01 0.11350287D+00 0.15351088D+06 0.15351088D+06 0.15351088D+06 0.11067598D+01  1  2 15  2  7  2        2 0.305304988496D-04 0.100000000000D+01
0.223607615879D-05 0.000000000000D+00 -.586956392332D-05 0.124172981966D-05 0.000000000000D+00  7 -2 2 23 -11 11 23 21 2 0.46793939D-01 0.34491371D+00 0.15351088D+06 0.15351088D+06 0.15351088D+06 0.11067598D+01  1  2  5  2  7  2        2 0.785812521943D-05 0.100000000000D+01
0.569630581685D-06 0.000000000000D+00 -.744089497834D-06 0.124172981966D-05 0.000000000000D+00  7 -2 21 23 -11 11 23 -2 2 0.46793939D-01 0.34491371D+00 0.15351088D+06 0.15351088D+06 0.15351088D+06 0.11067598D+01  1  2  5  4  7  2        2 0.318664986392D-06 0.100000000000D+01
  </mgrwgt>
  </event>
  <event>
  8     66 0.27870365E-05 0.84475354E+02 0.75467711E-02 0.10235320E+00
       -2 -1    0    0    0  501 0.00000000E+00 0.00000000E+00 0.87524528E+02 0.87525112E+02 0.32000000E+00 0.0000E+00 0.9000E+01
        2 -1    0    0  501    0 0.00000000E+00 0.00000000E+00 -.11687453E+04 0.11687453E+04 0.32000000E+00 0.0000E+00 0.9000E+01
       25  2    1    2    0    0 -.73197333E+02 0.83814618E+01 -.20185042E+03 0.36912020E+03 0.30013003E+03 0.0000E+00 0.0000E+00
       23  2    3    3    0    0 -.77305322E+01 -.20497711E+02 -.23060381E+03 0.24969693E+03 0.93222964E+02 0.0000E+00 0.0000E+00
       23  1    1    2    0    0 0.73197333E+02 -.83814618E+01 -.87937035E+03 0.88715025E+03 0.91188000E+02 0.0000E+00 0.9000E+01
      -13  1    4    4    0    0 -.30780187E+02 0.27541904E+02 -.12040425E+03 0.12729168E+03 0.10565837E+00 0.0000E+00 0.9000E+01
       13  1    4    4    0    0 0.23049655E+02 -.48039615E+02 -.11019957E+03 0.12240526E+03 0.10565837E+00 0.0000E+00 0.9000E+01
       23  1    3    3    0    0 -.65466801E+02 0.28879173E+02 0.28753397E+02 0.11942327E+03 0.91188000E+02 0.0000E+00 0.9000E+01
#aMCatNLO 1  0  0  1  2 0.16002943D+03 0.00000000D+00  -5  7  0 0.00000000D+00 0.00000000D+00 0.00000000D+00 0.00000000D+00 0.00000000D+00
  <mgrwgt>
 0.1976146675D-03    9    2    0
 0.319834761631520D+03 0.000000000000000D+00 0.000000000000000D+00 0.319834761631520D+03
 0.319834761631520D+03 0.000000000000000D+00 0.000000000000000D+00 -.319834761631520D+03
 0.255924585797644D+03 0.731973332141924D+02 -.838146183879246D+01 -.227495151111998D+03
 0.464758569496599D+02 -.307802545914261D+02 0.275419993767473D+02 -.213077327940702D+02
 0.541280316540366D+02 0.230497229638104D+02 -.480397105177159D+02 -.952577006892541D+01
 0.283141048861700D+03 -.654668015865767D+02 0.288791729797611D+02 0.258328653974994D+03
 0.000000000000000D+00 -.000000000000000D+00 -.000000000000000D+00 0.000000000000000D+00
 0.525738769543349D+03 0.000000000000000D+00 0.000000000000000D+00 0.525738769543349D+03
 0.362348955404669D+03 0.000000000000000D+00 0.000000000000000D+00 -.362348955404669D+03
 0.267351598999943D+03 0.926932459991695D+02 0.530617047454466D+02 -.227495151111998D+03
 0.521469034305045D+02 -.271058264579747D+02 0.391222984063696D+02 -.213077327940702D+02
 0.460847065841180D+02 0.267833895463830D+02 -.362727160541489D+02 -.952577006892541D+01
 0.293800229090713D+03 -.439714666873505D+02 0.966237026954909D+02 0.258328653974994D+03
 0.228704286842739D+03 -.483993424002274D+02 -.152534989793158D+03 0.163389814138680D+03
0.444880440497D-05 0.000000000000D+00 0.000000000000D+00 0.161119692736D-06 0.000000000000D+00  7 -2 2 23 -13 13 23 21 0 0.13465360D-01 0.17980702D+00 0.26851573D+05 0.26851573D+05 0.26851573D+05 0.11718300D+01  1  2  2  1  7  1       -2 0.431241190804D-03 0.100000000000D+01
-.112755906182D-06 0.000000000000D+00 -.170845803122D-07 0.161119692736D-06 0.000000000000D+00  7 -2 2 23 -13 13 23 21 2 0.13465360D-01 0.17980702D+00 0.26851573D+05 0.26851573D+05 0.26851573D+05 0.11718300D+01  1  2  3  1  7  1       -2 -.150087826170D-04 0.100000000000D+01
0.272175105766D-06 0.000000000000D+00 0.000000000000D+00 0.161119692736D-06 0.000000000000D+00  7 -2 2 23 -13 13 23 21 2 0.13465360D-01 0.17980702D+00 0.26851573D+05 0.26851573D+05 0.26851573D+05 0.11718300D+01  1  2 15  1  7  1       -2 0.362288516366D-04 0.100000000000D+01
0.272944567770D-08 0.000000000000D+00 0.000000000000D+00 0.161119692736D-06 0.000000000000D+00  7 -2 2 23 -13 13 23 21 2 0.22548459D-01 0.17980702D+00 0.71048331D+05 0.71048331D+05 0.71048331D+05 0.11341112D+01  1  2 12  1  7  1       -2 0.146714160331D-06 0.100000000000D+01
-.358369863287D-05 0.000000000000D+00 0.000000000000D+00 0.161119692736D-06 0.000000000000D+00  7 -2 2 23 -13 13 23 21 2 0.13465360D-01 0.17980702D+00 0.26851573D+05 0.26851573D+05 0.26851573D+05 0.11718300D+01  1  2  4  1  7  1       -2 -.477021165162D-03 0.100000000000D+01
-.196676299572D-05 0.000000000000D+00 -.150411834915D-05 0.161119692736D-06 0.000000000000D+00  7 -2 2 23 -13 13 23 21 2 0.24959010D-01 0.17980702D+00 0.26851573D+05 0.26851573D+05 0.26851573D+05 0.11718300D+01  1  2  5  1  7  1       -2 -.968971120027D-04 0.100000000000D+01
0.262594259757D-05 0.000000000000D+00 0.125706139244D-05 0.161119692736D-06 0.000000000000D+00  7 -2 2 23 -13 13 23 21 2 0.13465360D-01 0.17980702D+00 0.26851573D+05 0.26851573D+05 0.26851573D+05 0.11718300D+01  1  2  6  1  7  1       -2 0.349535584844D-03 0.100000000000D+01
0.157702034551D-09 0.000000000000D+00 0.000000000000D+00 0.161119692736D-06 0.000000000000D+00  7 21 2 23 -13 13 23 2 2 0.22548459D-01 0.17980702D+00 0.71048331D+05 0.71048331D+05 0.71048331D+05 0.11341112D+01  1  2 12  3  7  1       -2 0.107223131790D-06 0.100000000000D+01
-.490154350587D-07 0.000000000000D+00 -.101220766320D-06 0.161119692736D-06 0.000000000000D+00  7 21 2 23 -13 13 23 2 2 0.24959010D-01 0.17980702D+00 0.26851573D+05 0.26851573D+05 0.26851573D+05 0.11718300D+01  1  2  5  3  7  1       -2 -.307178372723D-04 0.100000000000D+01
  </mgrwgt>
  </event>
  <event>
  8     66 0.27870365E-05 0.35884271E+03 0.75467711E-02 0.92855479E-01
       -2 -1    0    0    0  501 0.00000000E+00 0.00000000E+00 0.89569928E+02 0.89570500E+02 0.32000000E+00 0.0000E+00 0.9000E+01
        2 -1    0    0  501    0 0.00000000E+00 0.00000000E+00 -.16754930E+04 0.16754930E+04 0.32000000E+00 0.0000E+00 0.9000E+01
       25  2    1    2    0    0 -.10213435E+03 -.28451521E+03 -.11548572E+04 0.12307290E+04 0.29936341E+03 0.0000E+00 0.0000E+00
       23  2    3    3    0    0 0.51492023E+02 -.86204275E+02 -.21693484E+03 0.25556653E+03 0.90393146E+02 0.0000E+00 0.0000E+00
       23  1    1    2    0    0 0.10213435E+03 0.28451521E+03 -.43106592E+03 0.53433455E+03 0.91188000E+02 0.0000E+00 0.9000E+01
      -13  1    4    4    0    0 -.23873185E+02 -.52977037E+01 -.42783388E+02 0.49279043E+02 0.10565837E+00 0.0000E+00 0.9000E+01
       13  1    4    4    0    0 0.75365208E+02 -.80906571E+02 -.17415145E+03 0.20628749E+03 0.10565837E+00 0.0000E+00 0.9000E+01
       23  1    3    3    0    0 -.15362638E+03 -.19831094E+03 -.93792232E+03 0.97516246E+03 0.91188000E+02 0.0000E+00 0.9000E+01
#aMCatNLO 1  0  0  1  1 0.37160164D+03 0.00000000D+00  -5  7  0 0.00000000D+00 0.00000000D+00 0.00000000D+00 0.00000000D+00 0.00000000D+00
  <mgrwgt>
 0.6674381428D-03    3    2    0
 0.387394269562421D+03 0.000000000000000D+00 0.000000000000000D+00 0.387394269562421D+03
 0.387394269562421D+03 0.000000000000000D+00 0.000000000000000D+00 -.387394269562421D+03
 0.334926276523484D+03 0.102134353256149D+03 0.284515213063475D+03 0.111714040220011D+03
 0.246898143759707D+02 -.238733201682451D+02 -.529760036842151D+01 0.340396069319984D+01
 0.113475875771576D+03 0.753653431151113D+02 -.809066742255998D+02 0.255137120980155D+02
 0.301696572453812D+03 -.153626376203015D+03 -.198310938469454D+03 -.140631713011226D+03
 0.000000000000000D+00 0.000000000000000D+00 -.000000000000000D+00 -.000000000000000D+00
 0.506903208919424D+03 0.000000000000000D+00 0.000000000000000D+00 0.506903208919424D+03
 0.876494906742412D+03 0.000000000000000D+00 0.000000000000000D+00 -.876494906742412D+03
 0.491181774989424D+03 0.548275948032733D+02 0.466324128481007D+03 0.111714040220011D+03
 0.278070471263581D+02 -.268795326631804D+02 0.625584888689499D+01 0.340396069319984D+01
 0.791964916137108D+02 0.643320344241390D+02 -.385035599101113D+02 0.255137120980155D+02
 0.261108036738469D+03 -.185855164742802D+03 -.744495435806796D+02 -.140631713011226D+03
 0.524104765193875D+03 0.935750681785699D+02 -.359626873877111D+03 -.369591697822989D+03
0.135715921454D-04 0.000000000000D+00 0.000000000000D+00 0.271695723891D-06 0.000000000000D+00  7 -2 2 23 -13 13 23 21 0 0.13780035D-01 0.25776820D+00 0.12876809D+06 0.12876809D+06 0.12876809D+06 0.11128209D+01  1  2  2  1  7  1       -2 0.660574656005D-03 0.100000000000D+01
-.748604179510D-06 0.000000000000D+00 -.521184873208D-07 0.271695723891D-06 0.000000000000D+00  7 -2 2 23 -13 13 23 21 2 0.13780035D-01 0.25776820D+00 0.12876809D+06 0.12876809D+06 0.12876809D+06 0.11128209D+01  1  2  3  1  7  1       -2 -.451225745307D-04 0.100000000000D+01
0.862472568424D-06 0.000000000000D+00 0.000000000000D+00 0.271695723891D-06 0.000000000000D+00  7 -2 2 23 -13 13 23 21 2 0.13780035D-01 0.25776820D+00 0.12876809D+06 0.12876809D+06 0.12876809D+06 0.11128209D+01  1  2 15  1  7  1       -2 0.519860612786D-04 0.100000000000D+01
  </mgrwgt>
  </event>
  <event>
  8     66 0.27870365E-05 0.31375966E+03 0.75467711E-02 0.10022898E+00
       -2 -1    0    0    0  501 0.00000000E+00 0.00000000E+00 0.76841935E+02 0.76842602E+02 0.32000000E+00 0.0000E+00 0.9000E+01
        2 -1    0    0  501    0 0.00000000E+00 0.00000000E+00 -.20781951E+04 0.20781952E+04 0.32000000E+00 0.0000E+00 0.9000E+01
       25  2    1    2    0    0 -.26394971E+03 -.92283405E+02 -.16364288E+04 0.16863473E+04 0.29611198E+03 0.0000E+00 0.0000E+00
       23  2    3    3    0    0 -.19372646E+03 -.83312844E+02 -.58285250E+03 0.62646520E+03 0.90943064E+02 0.0000E+00 0.0000E+00
       23  1    1    2    0    0 0.26394971E+03 0.92283405E+02 -.36492437E+03 0.46869043E+03 0.91188000E+02 0.0000E+00 0.9000E+01
      -11  1    4    4    0    0 -.18306415E+03 -.60529885E+02 -.42592508E+03 0.46753451E+03 0.51099893E-03 0.0000E+00 0.9000E+01
       11  1    4    4    0    0 -.10662314E+02 -.22782959E+02 -.15692742E+03 0.15893069E+03 0.51099893E-03 0.0000E+00 0.9000E+01
       23  1    3    3    0    0 -.70223252E+02 -.89705601E+01 -.10535763E+04 0.10598821E+04 0.91188000E+02 0.0000E+00 0.9000E+01
#aMCatNLO 1  0  0  2  1 0.35296359D+02 0.00000000D+00  -5  7  0 0.00000000D+00 0.00000000D+00 0.00000000D+00 0.00000000D+00 0.00000000D+00
  <mgrwgt>
 0.5025447073D-05    1    2    0
 0.399616417555890D+03 0.000000000000000D+00 0.000000000000000D+00 0.399616417555890D+03
 0.399616417555890D+03 0.000000000000000D+00 0.000000000000000D+00 -.399616417555890D+03
 0.349964395648655D+03 0.263949714011937D+03 0.922834045736204D+02 0.189668522931577D+03
 0.194096147549455D+03 -.183064148281804D+03 -.605298853493002D+02 0.222927137647659D+02
 0.355771642162519D+02 -.106623141327593D+02 -.227829591358442D+02 -.251592218484390D+02
 0.219595127697419D+03 -.702232515973734D+02 -.897056008847608D+01 -.186802014847904D+03
 0.000000000000000D+00 0.000000000000000D+00 -.000000000000000D+00 0.000000000000000D+00
 0.119208634132154D+04 0.000000000000000D+00 0.000000000000000D+00 0.119208634132154D+04
 0.619589714022079D+03 0.000000000000000D+00 0.000000000000000D+00 -.619589714022079D+03
 0.356635477313402D+03 0.110566275781704D+03 0.265846877738438D+03 0.189668522931577D+03
 0.296560138791216D+03 -.289572160903894D+03 0.599909531705941D+02 0.222927137647659D+02
 0.367899597667277D+02 -.263712304743549D+02 -.500728458217869D+01 -.251592218484390D+02
 0.301690296688403D+03 -.183380009404910D+03 0.119073771970804D+03 -.186802014847904D+03
 0.820000182783872D+03 0.388757125001456D+03 -.439904318297657D+03 0.572496627299463D+03
0.105213793122D-06 0.000000000000D+00 0.000000000000D+00 0.204594649052D-07 0.000000000000D+00  7 -2 2 23 -11 11 23 21 2 0.11821889D-01 0.31972238D+00 0.98445127D+05 0.98445127D+05 0.98445127D+05 0.11222810D+01  1  2 14  2  7  2        2 0.502544707287D-05 0.100000000000D+01
  </mgrwgt>
  </event>
  <event>
  8     66 0.27870365E-05 0.60792289E+03 0.75467711E-02 0.87759249E-01
       -2 -1    0    0    0  501 0.00000000E+00 0.00000000E+00 0.25162907E+03 0.25162928E+03 0.32000000E+00 0.0000E+00 0.9000E+01
        2 -1    0    0  501    0 0.00000000E+00 0.00000000E+00 -.28938141E+04 0.28938141E+04 0.32000000E+00 0.0000E+00 0.9000E+01
       25  2    1    2    0    0 0.73392238E+02 -.56781756E+03 -.26487201E+03 0.69845838E+03 0.29980615E+03 0.0000E+00 0.0000E+00
       23  2    3    3    0    0 -.66868114E+02 -.31122668E+03 -.19123576E+03 0.38341966E+03 0.95426055E+02 0.0000E+00 0.0000E+00
       23  1    1    2    0    0 -.73392238E+02 0.56781756E+03 -.23773130E+04 0.24469850E+04 0.91188000E+02 0.0000E+00 0.9000E+01
      -11  1    4    4    0    0 0.20569622E+02 -.79005747E+02 -.68585744E+02 0.10662561E+03 0.51099893E-03 0.0000E+00 0.9000E+01
       11  1    4    4    0    0 -.87437736E+02 -.23222093E+03 -.12265001E+03 0.27679405E+03 0.51099893E-03 0.0000E+00 0.9000E+01
       23  1    3    3    0    0 0.14026035E+03 -.25659088E+03 -.73636249E+02 0.31503872E+03 0.91188000E+02 0.0000E+00 0.9000E+01
#aMCatNLO 1  0  0  2  1 0.60897732D+03 0.00000000D+00  -5  7  0 0.00000000D+00 0.00000000D+00 0.00000000D+00 0.00000000D+00 0.00000000D+00
  <mgrwgt>
 0.5205606559D-03    6    2    0
 0.853327668991232D+03 0.000000000000000D+00 0.000000000000000D+00 0.853327668991232D+03
 0.853327668991232D+03 0.000000000000000D+00 0.000000000000000D+00 -.853327668991232D+03
 0.829430495133991D+03 -.733922381373684D+02 0.567817562849212D+03 -.593158064612954D+03
 0.903337691298948D+02 0.205696218470927D+02 -.790057471378061D+02 0.386674594650046D+02
 0.320261489126355D+03 -.874377360915465D+02 -.232220932484307D+03 0.202473460583689D+03
 0.466629584592224D+03 0.140260352381822D+03 -.256590883227100D+03 0.352017144564261D+03
 0.000000000000000D+00 0.000000000000000D+00 -.000000000000000D+00 -.000000000000000D+00
 0.114902449575920D+04 0.000000000000000D+00 0.000000000000000D+00 0.114902449575920D+04
 0.128756239986093D+04 0.000000000000000D+00 0.000000000000000D+00 -.128756239986093D+04
 0.107439342324587D+04 -.217125442499543D+03 0.864306675419076D+03 -.593158064612954D+03
 0.673430470626168D+02 0.866547786288348D+01 -.544501887931338D+02 0.386674594650046D+02
 0.279087061315450D+03 -.132686819713804D+03 -.138882300626091D+03 0.202473460583689D+03
 0.391226637317701D+03 0.754946865727321D+02 -.122993953652302D+03 0.352017144564261D+03
 0.624536726678490D+03 0.265652097777732D+03 -.547980232347549D+03 -.138537904101725D+03
0.223757382845D-03 0.000000000000D+00 0.000000000000D+00 0.481232873041D-06 0.000000000000D+00  7 -2 2 23 -11 11 23 21 0 0.38712182D-01 0.44520218D+00 0.36957024D+06 0.36957024D+06 0.36957024D+06 0.10779136D+01  1  2  2  2  7  2        2 0.362546716804D-03 0.100000000000D+01
-.106930425717D-04 0.000000000000D+00 -.859287266796D-06 0.481232873041D-06 0.000000000000D+00  7 -2 2 23 -11 11 23 21 2 0.38712182D-01 0.44520218D+00 0.36957024D+06 0.36957024D+06 0.36957024D+06 0.10779136D+01  1  2  3  2  7  2        2 -.201305579471D-04 0.100000000000D+01
0.140879459049D-04 0.000000000000D+00 0.000000000000D+00 0.481232873041D-06 0.000000000000D+00  7 -2 2 23 -11 11 23 21 2 0.38712182D-01 0.44520218D+00 0.36957024D+06 0.36957024D+06 0.36957024D+06 0.10779136D+01  1  2 15  2  7  2        2 0.265217508948D-04 0.100000000000D+01
-.636214839885D-04 0.000000000000D+00 -.512715714756D-04 0.481232873041D-06 0.000000000000D+00  7 -2 2 23 -11 11 23 21 2 0.38712182D-01 0.70916485D+00 0.36957024D+06 0.36957024D+06 0.36957024D+06 0.10779136D+01  1  2  5  2  7  2        2 -.535664881824D-05 0.100000000000D+01
0.833856066566D-04 0.000000000000D+00 0.461762755072D-04 0.481232873041D-06 0.000000000000D+00  7 -2 2 23 -11 11 23 21 2 0.38712182D-01 0.44520218D+00 0.36957024D+06 0.36957024D+06 0.36957024D+06 0.10779136D+01  1  2  6  2  7  2        2 0.156980464213D-03 0.100000000000D+01
-.126565102134D-05 0.000000000000D+00 -.273434517880D-05 0.481232873041D-06 0.000000000000D+00  7 -2 21 23 -11 11 23 -2 2 0.38712182D-01 0.70916485D+00 0.36957024D+06 0.36957024D+06 0.36957024D+06 0.10779136D+01  1  2  5  4  7  2        2 -.106921522311D-08 0.100000000000D+01
  </mgrwgt>
  </event>
  <event>
  8     66 0.27870365E-05 0.16507459E+03 0.75467711E-02 0.99250530E-01
       -2 -1    0    0    0  501 0.00000000E+00 0.00000000E+00 0.35722001E+02 0.35723434E+02 0.32000000E+00 0.0000E+00 0.9000E+01
        2 -1    0    0  501    0 0.00000000E+00 0.00000000E+00 -.32922799E+04 0.32922799E+04 0.32000000E+00 0.0000E+00 0.9000E+01
       25  2    1    2    0    0 0.16066056E+03 -.21253293E+03 -.20935806E+04 0.21314192E+04 0.29813793E+03 0.0000E+00 0.0000E+00
       23  2    3    3    0    0 0.10849959E+03 -.38917959E+01 -.11842082E+04 0.11925235E+04 0.89307508E+02 0.0000E+00 0.0000E+00
       23  1    1    2    0    0 -.16066056E+03 0.21253293E+03 -.11629773E+04 0.11965841E+04 0.91188000E+02 0.0000E+00 0.9000E+01
      -11  1    4    4    0    0 0.46356370E+02 0.31641559E+02 -.78068098E+03 0.78269591E+03 0.51099893E-03 0.0000E+00 0.9000E+01
       11  1    4    4    0    0 0.62143222E+02 -.35533355E+02 -.40352726E+03 0.40982758E+03 0.51099893E-03 0.0000E+00 0.9000E+01
       23  1    3    3    0    0 0.52160967E+02 -.20864113E+03 -.90937233E+03 0.93889572E+03 0.91188000E+02 0.0000E+00 0.9000E+01
#aMCatNLO 1  0  0  1  2 0.36005463D+02 0.00000000D+00  -5  7  0 0.00000000D+00 0.00000000D+00 0.00000000D+00 0.00000000D+00 0.00000000D+00
  <mgrwgt>
 0.3132976088D-03    9    2    0
 0.342942029565087D+03 0.000000000000000D+00 0.000000000000000D+00 0.342942029565087D+03
 0.342942029565087D+03 0.000000000000000D+00 0.000000000000000D+00 -.342942029565087D+03
 0.284206904010752D+03 -.160660558253131D+03 0.212532929092608D+03 0.384220251481550D+02
 0.910967535914545D+02 0.463563697387051D+02 0.316415590143819D+02 -.717531688686292D+02
 0.726036515566398D+02 0.621432218227206D+02 -.355333549487097D+02 -.121198550708791D+02
 0.237976749971328D+03 0.521609666917056D+02 -.208641133158281D+03 0.454509987913533D+02
 0.000000000000000D+00 0.000000000000000D+00 0.000000000000000D+00 0.000000000000000D+00
 0.388868264604246D+03 0.000000000000000D+00 0.000000000000000D+00 0.388868264604246D+03
 0.350544474618059D+03 0.000000000000000D+00 0.000000000000000D+00 -.350544474618059D+03
 0.289333530061248D+03 -.175023889014818D+03 0.208060151233595D+03 0.384220251481550D+02
 0.884049011175083D+02 0.418610604532726D+02 0.302417082294279D+02 -.717531688686292D+02
 0.701435361568750D+02 0.585683647583757D+02 -.366465745627279D+02 -.121198550708791D+02
 0.238946494453179D+03 0.402172467712617D+02 -.212360438025709D+03 0.454509987913533D+02
 0.525842774334957D+02 0.343772170319079D+02 0.107051531254144D+02 0.383237899861872D+02
0.157007998049D-04 0.000000000000D+00 0.000000000000D+00 0.115802198442D-07 0.000000000000D+00  7 -2 2 23 -11 11 23 21 0 0.54958039D-02 0.50650471D+00 0.10333157D+06 0.10333157D+06 0.10333157D+06 0.11205559D+01  1  2  2  1  7  1       -2 0.365048135500D-03 0.100000000000D+01
-.867825411626D-06 0.000000000000D+00 -.602952053662D-07 0.115802198442D-07 0.000000000000D+00  7 -2 2 23 -11 11 23 21 2 0.54958039D-02 0.50650471D+00 0.10333157D+06 0.10333157D+06 0.10333157D+06 0.11205559D+01  1  2  3  1  7  1       -2 -.253354018254D-04 0.100000000000D+01
0.100492155839D-05 0.000000000000D+00 0.000000000000D+00 0.115802198442D-07 0.000000000000D+00  7 -2 2 23 -11 11 23 21 2 0.54958039D-02 0.50650471D+00 0.10333157D+06 0.10333157D+06 0.10333157D+06 0.11205559D+01  1  2 15  1  7  1       -2 0.293378035995D-04 0.100000000000D+01
0.516017976687D-04 0.000000000000D+00 0.000000000000D+00 0.115802198442D-07 0.000000000000D+00  7 -2 2 23 -11 11 23 21 2 0.62873472D-02 0.50650471D+00 0.11495190D+06 0.11495190D+06 0.11495190D+06 0.11167896D+01  1  2 12  1  7  1       -2 0.121776065215D-02 0.100000000000D+01
-.524187139005D-04 0.000000000000D+00 0.000000000000D+00 0.115802198442D-07 0.000000000000D+00  7 -2 2 23 -11 11 23 21 2 0.54958039D-02 0.50650471D+00 0.10333157D+06 0.10333157D+06 0.10333157D+06 0.11205559D+01  1  2  4  1  7  1       -2 -.153031838207D-02 0.100000000000D+01
-.897213897404D-04 0.000000000000D+00 -.143716259683D-04 0.115802198442D-07 0.000000000000D+00  7 -2 2 23 -11 11 23 21 2 0.64283389D-02 0.50650471D+00 0.10333157D+06 0.10333157D+06 0.10333157D+06 0.11205559D+01  1  2  5  1  7  1       -2 -.207104877241D-02 0.100000000000D+01
0.910282702107D-04 0.000000000000D+00 0.141968974562D-04 0.115802198442D-07 0.000000000000D+00  7 -2 2 23 -11 11 23 21 2 0.54958039D-02 0.50650471D+00 0.10333157D+06 0.10333157D+06 0.10333157D+06 0.11205559D+01  1  2  6  1  7  1       -2 0.265749051868D-02 0.100000000000D+01
0.107704598207D-05 0.000000000000D+00 0.000000000000D+00 0.115802198442D-07 0.000000000000D+00  7 21 2 23 -11 11 23 2 2 0.62873472D-02 0.50650471D+00 0.11495190D+06 0.11495190D+06 0.11495190D+06 0.11167896D+01  1  2 12  3  7  1       -2 0.399758616397D-03 0.100000000000D+01
-.201246078427D-05 0.000000000000D+00 -.339641726531D-06 0.115802198442D-07 0.000000000000D+00  7 21 2 23 -11 11 23 2 2 0.64283389D-02 0.50650471D+00 0.10333157D+06 0.10333157D+06 0.10333157D+06 0.11205559D+01  1  2  5  3  7  1       -2 -.729395561208D-03 0.100000000000D+01
  </mgrwgt>
  </event>
  <event>
  8     66 0.27870365E-05 0.22416860E+03 0.75467711E-02 0.99396833E-01
       -2 -1    0    0    0  501 0.00000000E+00 0.00000000E+00 0.14252179E+03 0.14252215E+03 0.32000000E+00 0.0000E+00 0.9000E+01
        2 -1    0    0  501    0 0.00000000E+00 0.00000000E+00 -.57378549E+03 0.57378558E+03 0.32000000E+00 0.0000E+00 0.9000E+01
       25  2    1    2    0    0 0.77808116E+02 0.61853391E+02 -.59890535E+02 0.32119608E+03 0.29949975E+03 0.0000E+00 0.0000E+00
       23  2    3    3    0    0 0.62978973E+02 -.85149065E+02 -.45074165E+02 0.14694224E+03 0.91343450E+02 0.0000E+00 0.0000E+00
       23  1    1    2    0    0 -.77808116E+02 -.61853391E+02 -.37137316E+03 0.39511165E+03 0.91188000E+02 0.0000E+00 0.9000E+01
      -11  1    4    4    0    0 0.74680085E+02 -.25310018E+02 -.23823669E+02 0.82372806E+02 0.51099893E-03 0.0000E+00 0.9000E+01
       11  1    4    4    0    0 -.11701112E+02 -.59839047E+02 -.21250497E+02 0.64569429E+02 0.51099893E-03 0.0000E+00 0.9000E+01
       23  1    3    3    0    0 0.14829143E+02 0.14700246E+03 -.14816370E+02 0.17425384E+03 0.91188000E+02 0.0000E+00 0.9000E+01
#aMCatNLO 1  0  0  1  2 0.19702719D+03 0.00000000D+00  -5  7  0 0.00000000D+00 0.00000000D+00 0.00000000D+00 0.00000000D+00 0.00000000D+00
  <mgrwgt>
 0.4719631406D-03    3    2    0
 0.285966952477327D+03 0.000000000000000D+00 0.000000000000000D+00 0.285966952477327D+03
 0.285966952477327D+03 0.000000000000000D+00 0.000000000000000D+00 -.285966952477327D+03
 0.214818129838743D+03 -.778081157671311D+02 -.618533907250076D+02 -.167187418007467D+03
 0.852021435369086D+02 0.746800845133160D+02 -.253100182860095D+02 0.322752724966003D+02
 0.648449286571661D+02 -.117011117295341D+02 -.598390466780974D+02 0.220734512367775D+02
 0.207068702921837D+03 0.148291429833491D+02 0.147002455689115D+03 0.112838694274089D+03
 0.000000000000000D+00 -.000000000000000D+00 -.000000000000000D+00 -.000000000000000D+00
 0.352005520084939D+03 0.000000000000000D+00 0.000000000000000D+00 0.352005520084939D+03
 0.498338834354241D+03 0.000000000000000D+00 0.000000000000000D+00 -.498338834354241D+03
 0.193946129138298D+03 -.358886611881787D+02 -.776021403352339D+01 -.167187418007467D+03
 0.989830781568160D+02 0.935685853187106D+02 -.936156035987242D+00 0.322752724966003D+02
 0.498215639412738D+02 0.581277896873384D-01 -.446648363392514D+02 0.220734512367775D+02
 0.262169146516656D+03 0.629502648384939D+02 0.209098310066232D+03 0.112838694274089D+03
 0.245424436686136D+03 -.120688316758713D+03 -.155737103657470D+03 -.146333314269303D+03
0.426488893548D-05 0.000000000000D+00 0.000000000000D+00 0.213512264083D-06 0.000000000000D+00  7 -2 2 23 -11 11 23 21 0 0.21926464D-01 0.88274725D-01 0.50251559D+05 0.50251559D+05 0.50251559D+05 0.11471037D+01  1  2  2  1  7  1       -2 0.466225088748D-03 0.100000000000D+01
-.219860331554D-06 0.000000000000D+00 -.163782964833D-07 0.213512264083D-06 0.000000000000D+00  7 -2 2 23 -11 11 23 21 2 0.21926464D-01 0.88274725D-01 0.50251559D+05 0.50251559D+05 0.50251559D+05 0.11471037D+01  1  2  3  1  7  1       -2 -.316257019805D-04 0.100000000000D+01
0.259750986721D-06 0.000000000000D+00 0.000000000000D+00 0.213512264083D-06 0.000000000000D+00  7 -2 2 23 -11 11 23 21 2 0.21926464D-01 0.88274725D-01 0.50251559D+05 0.50251559D+05 0.50251559D+05 0.11471037D+01  1  2 15  1  7  1       -2 0.373637537846D-04 0.100000000000D+01
  </mgrwgt>
  </event>
  <event>
  8     66 0.27870365E-05 0.11197267E+03 0.75467711E-02 0.10246575E+00
       -2 -1    0    0    0  501 0.00000000E+00 0.00000000E+00 0.64063250E+02 0.64064049E+02 0.32000000E+00 0.0000E+00 0.9000E+01
        2 -1    0    0  501    0 0.00000000E+00 0.00000000E+00 -.84025908E+03 0.84025914E+03 0.32000000E+00 0.0000E+00 0.9000E+01
       25  2    1    2    0    0 -.10095929E+03 0.37251551E+02 -.58262449E+03 0.66481208E+03 0.30156814E+03 0.0000E+00 0.0000E+00
       23  2    3    3    0    0 -.15544321E+03 -.41344517E+02 -.38237939E+03 0.42489711E+03 0.91932570E+02 0.0000E+00 0.0000E+00
       23  1    1    2    0    0 0.10095929E+03 -.37251551E+02 -.19357133E+03 0.23951111E+03 0.91188000E+02 0.0000E+00 0.9000E+01
      -11  1    4    4    0    0 -.15537859E+03 -.58562334E+02 -.32458100E+03 0.36458864E+03 0.51099893E-03 0.0000E+00 0.9000E+01
       11  1    4    4    0    0 -.64617345E-01 0.17217817E+02 -.57798389E+02 0.60308467E+02 0.51099893E-03 0.0000E+00 0.9000E+01
       23  1    3    3    0    0 0.54483918E+02 0.78596068E+02 -.20024511E+03 0.23991497E+03 0.91188000E+02 0.0000E+00 0.9000E+01
#aMCatNLO 1  0  0  1  2 0.67477140D+02 0.00000000D+00  -5  7  0 0.00000000D+00 0.00000000D+00 0.00000000D+00 0.00000000D+00 0.00000000D+00
  <mgrwgt>
 0.6313789694D-03    9    2    0
 0.232013180359585D+03 0.000000000000000D+00 0.000000000000000D+00 0.232013180359585D+03
 0.232013180359585D+03 0.000000000000000D+00 0.000000000000000D+00 -.232013180359585D+03
 0.142979344173097D+03 0.100959294225951D+03 -.372515508303207D+02 0.233962472696575D+02
 0.167592951602054D+03 -.155378594263198D+03 -.585623343032373D+02 -.227011645612454D+02
 0.208511355858943D+02 -.646173718341956D-01 0.172178171373284D+02 -.117606314814351D+02
 0.132602929358124D+03 0.544839174090817D+02 0.785960679962296D+02 0.110655487730230D+02
 0.000000000000000D+00 -.000000000000000D+00 0.000000000000000D+00 0.000000000000000D+00
 0.276595553157198D+03 0.000000000000000D+00 0.000000000000000D+00 0.276595553157198D+03
 0.261464184530768D+03 0.000000000000000D+00 0.000000000000000D+00 -.261464184530768D+03
 0.159492858465689D+03 0.118503954715570D+03 -.503204619218024D+02 0.233962472696575D+02
 0.156322841417964D+03 -.136590115301551D+03 -.725577582237645D+02 -.227011645612454D+02
 0.195672214095165D+02 0.227981740546514D+01 0.154714619039267D+02 -.117606314814351D+02
 0.133523922224679D+03 0.699203946042023D+02 0.670975298428079D+02 0.110655487730230D+02
 0.691528941701177D+02 -.541140514236862D+02 0.403092283988323D+02 0.151313686264300D+02
0.185660224264D-05 0.000000000000D+00 0.000000000000D+00 0.180027220194D-07 0.000000000000D+00  7 -2 2 23 -11 11 23 21 0 0.98559507D-02 0.12927069D+00 0.52088672D+05 0.52088672D+05 0.52088672D+05 0.11457353D+01  1  2  2  1  7  1       -2 0.458858765848D-03 0.100000000000D+01
-.103110662831D-06 0.000000000000D+00 -.712984146634D-08 0.180027220194D-07 0.000000000000D+00  7 -2 2 23 -11 11 23 21 2 0.98559507D-02 0.12927069D+00 0.52088672D+05 0.52088672D+05 0.52088672D+05 0.11457353D+01  1  2  3  1  7  1       -2 -.334527907254D-04 0.100000000000D+01
0.121087664007D-06 0.000000000000D+00 0.000000000000D+00 0.180027220194D-07 0.000000000000D+00  7 -2 2 23 -11 11 23 21 2 0.98559507D-02 0.12927069D+00 0.52088672D+05 0.52088672D+05 0.52088672D+05 0.11457353D+01  1  2 15  1  7  1       -2 0.392851735430D-04 0.100000000000D+01
0.130020804388D-05 0.000000000000D+00 0.000000000000D+00 0.180027220194D-07 0.000000000000D+00  7 -2 2 23 -11 11 23 21 2 0.12275376D-01 0.12927069D+00 0.69858065D+05 0.69858065D+05 0.69858065D+05 0.11347346D+01  1  2 12  1  7  1       -2 0.295256458257D-03 0.100000000000D+01
-.126167579816D-05 0.000000000000D+00 0.000000000000D+00 0.180027220194D-07 0.000000000000D+00  7 -2 2 23 -11 11 23 21 2 0.98559507D-02 0.12927069D+00 0.52088672D+05 0.52088672D+05 0.52088672D+05 0.11457353D+01  1  2  4  1  7  1       -2 -.409332801093D-03 0.100000000000D+01
-.286486606509D-05 0.000000000000D+00 -.988585783733D-06 0.180027220194D-07 0.000000000000D+00  7 -2 2 23 -11 11 23 21 2 0.13248559D-01 0.12927069D+00 0.52088672D+05 0.52088672D+05 0.52088672D+05 0.11457353D+01  1  2  5  1  7  1       -2 -.587949764086D-03 0.100000000000D+01
0.306399479288D-05 0.000000000000D+00 0.946855250192D-06 0.180027220194D-07 0.000000000000D+00  7 -2 2 23 -11 11 23 21 2 0.98559507D-02 0.12927069D+00 0.52088672D+05 0.52088672D+05 0.52088672D+05 0.11457353D+01  1  2  6  1  7  1       -2 0.994069611964D-03 0.100000000000D+01
0.399380072250D-07 0.000000000000D+00 0.000000000000D+00 0.180027220194D-07 0.000000000000D+00  7 21 2 23 -11 11 23 2 2 0.12275376D-01 0.12927069D+00 0.69858065D+05 0.69858065D+05 0.69858065D+05 0.11347346D+01  1  2 12  3  7  1       -2 0.128474126120D-03 0.100000000000D+01
-.879362264041D-07 0.000000000000D+00 -.378277711789D-07 0.180027220194D-07 0.000000000000D+00  7 21 2 23 -11 11 23 2 2 0.13248559D-01 0.12927069D+00 0.52088672D+05 0.52088672D+05 0.52088672D+05 0.11457353D+01  1  2  5  3  7  1       -2 -.253829810450D-03 0.100000000000D+01
  </mgrwgt>
  </event>
  <event>
  8     66 0.27870365E-05 0.15881264E+03 0.75467711E-02 0.10029757E+00
       -2 -1    0    0    0  501 0.00000000E+00 0.00000000E+00 0.52755633E+02 0.52756603E+02 0.32000000E+00 0.0000E+00 0.9000E+01
        2 -1    0    0  501    0 0.00000000E+00 0.00000000E+00 -.16915750E+04 0.16915750E+04 0.32000000E+00 0.0000E+00 0.9000E+01
       25  2    1    2    0    0 0.21117793E+03 -.19269221E+01 -.98442843E+03 0.10506872E+04 0.30040715E+03 0.0000E+00 0.0000E+00
       23  2    3    3    0    0 0.69857749E+02 0.48658015E+02 -.73740765E+03 0.74759524E+03 0.88774364E+02 0.0000E+00 0.0000E+00
       23  1    1    2    0    0 -.21117793E+03 0.19269221E+01 -.65439095E+03 0.69364443E+03 0.91188000E+02 0.0000E+00 0.9000E+01
      -11  1    4    4    0    0 -.20858045E+01 0.42092379E+02 -.41802674E+03 0.42014578E+03 0.51099893E-03 0.0000E+00 0.9000E+01
       11  1    4    4    0    0 0.71943553E+02 0.65656356E+01 -.31938091E+03 0.32744945E+03 0.51099893E-03 0.0000E+00 0.9000E+01
       23  1    3    3    0    0 0.14132018E+03 -.50584937E+02 -.24702078E+03 0.30309198E+03 0.91188000E+02 0.0000E+00 0.9000E+01
#aMCatNLO 1  0  0  2  1 0.10180890D+03 0.00000000D+00  -5  7  0 0.00000000D+00 0.00000000D+00 0.00000000D+00 0.00000000D+00 0.00000000D+00
  <mgrwgt>
 0.5349138609D-03    9    2    0
 0.298732292860927D+03 0.000000000000000D+00 0.000000000000000D+00 0.298732292860927D+03
 0.298732292860927D+03 0.000000000000000D+00 0.000000000000000D+00 -.298732292860927D+03
 0.230168225799393D+03 -.211177931756713D+03 0.192692214420223D+01 -.789486755098469D+01
 0.800101866809858D+02 -.208580445875684D+01 0.420923792153985D+02 -.680111094195140D+02
 0.799592637434050D+02 0.719435534304151D+02 0.656563563736266D+01 -.342709995020543D+02
 0.207326909498071D+03 0.141320182785054D+03 -.505849369969634D+02 0.110176976472553D+03
 0.000000000000000D+00 0.000000000000000D+00 0.000000000000000D+00 -.000000000000000D+00
 0.322429163338144D+03 0.000000000000000D+00 0.000000000000000D+00 0.322429163338144D+03
 0.436671947425727D+03 0.000000000000000D+00 0.000000000000000D+00 -.436671947425727D+03
 0.251082091428585D+03 -.231406583031452D+03 -.334010432204237D+02 -.789486755098469D+01
 0.751156669190582D+02 -.860629220460700D+01 0.307047902893132D+02 -.680111094195140D+02
 0.740492626901796D+02 0.654700308933160D+02 -.473993174187989D+01 -.342709995020543D+02
 0.205829693112100D+03 0.123953750936869D+03 -.809142305572298D+02 0.110176976472553D+03
 0.153024396613948D+03 0.505890934058736D+02 0.883504152302201D+02 -.114242784087584D+03
0.408561640277D-05 0.000000000000D+00 0.000000000000D+00 0.435037634428D-07 0.000000000000D+00  7 -2 2 23 -11 11 23 21 0 0.81163282D-02 0.26024239D+00 0.67612521D+05 0.67612521D+05 0.67612521D+05 0.11359430D+01  1  2  2  2  7  2        2 0.447523923935D-03 0.100000000000D+01
-.221663970456D-06 0.000000000000D+00 -.156898427541D-07 0.435037634428D-07 0.000000000000D+00  7 -2 2 23 -11 11 23 21 2 0.81163282D-02 0.26024239D+00 0.67612521D+05 0.67612521D+05 0.67612521D+05 0.11359430D+01  1  2  3  2  7  2        2 -.313304676979D-04 0.100000000000D+01
0.261339587246D-06 0.000000000000D+00 0.000000000000D+00 0.435037634428D-07 0.000000000000D+00  7 -2 2 23 -11 11 23 21 2 0.81163282D-02 0.26024239D+00 0.67612521D+05 0.67612521D+05 0.67612521D+05 0.11359430D+01  1  2 15  2  7  2        2 0.369383056686D-04 0.100000000000D+01
0.354072920496D-05 0.000000000000D+00 0.000000000000D+00 0.435037634428D-07 0.000000000000D+00  7 -2 2 23 -11 11 23 21 2 0.81163282D-02 0.38696836D+00 0.97392426D+05 0.97392426D+05 0.97392426D+05 0.11226649D+01  1  2 12  2  7  2        2 0.173049762386D-03 0.100000000000D+01
-.422227863407D-05 0.000000000000D+00 0.000000000000D+00 0.435037634428D-07 0.000000000000D+00  7 -2 2 23 -11 11 23 21 2 0.81163282D-02 0.26024239D+00 0.67612521D+05 0.67612521D+05 0.67612521D+05 0.11359430D+01  1  2  4  2  7  2        2 -.596786045491D-03 0.100000000000D+01
-.518185185625D-05 0.000000000000D+00 -.136415384073D-05 0.435037634428D-07 0.000000000000D+00  7 -2 2 23 -11 11 23 21 2 0.81163282D-02 0.38962671D+00 0.67612521D+05 0.67612521D+05 0.67612521D+05 0.11359430D+01  1  2  5  2  7  2        2 -.256287076669D-03 0.100000000000D+01
0.539136608134D-05 0.000000000000D+00 0.126013243239D-05 0.435037634428D-07 0.000000000000D+00  7 -2 2 23 -11 11 23 21 2 0.81163282D-02 0.26024239D+00 0.67612521D+05 0.67612521D+05 0.67612521D+05 0.11359430D+01  1  2  6  2  7  2        2 0.762027408025D-03 0.100000000000D+01
0.167526235465D-06 0.000000000000D+00 0.000000000000D+00 0.435037634428D-07 0.000000000000D+00  7 -2 21 23 -11 11 23 -2 2 0.81163282D-02 0.38696836D+00 0.97392426D+05 0.97392426D+05 0.97392426D+05 0.11226649D+01  1  2 12  4  7  2        2 0.100474448715D-05 0.100000000000D+01
-.201147680821D-06 0.000000000000D+00 -.653593361073D-07 0.435037634428D-07 0.000000000000D+00  7 -2 21 23 -11 11 23 -2 2 0.81163282D-02 0.38962671D+00 0.67612521D+05 0.67612521D+05 0.67612521D+05 0.11359430D+01  1  2  5  4  7  2        2 -.122669374570D-05 0.100000000000D+01
  </mgrwgt>
  </event>
  <event>
  8     66 0.27870365E-05 0.39012418E+03 0.75467711E-02 0.92090339E-01
       -2 -1    0    0    0  501 0.00000000E+00 0.00000000E+00 0.11371023E+03 0.11371068E+03 0.32000000E+00 0.0000E+00 0.9000E+01
        2 -1    0    0  501    0 0.00000000E+00 0.00000000E+00 -.27335731E+04 0.27335731E+04 0.32000000E+00 0.0000E+00 0.9000E+01
       25  2    1    2    0    0 0.14302103E+02 -.32977213E+03 -.39461984E+03 0.59584515E+03 0.30058678E+03 0.0000E+00 0.0000E+00
       23  2    3    3    0    0 0.10021103E+03 -.28120919E+03 -.27459273E+03 0.41567728E+03 0.90915177E+02 0.0000E+00 0.0000E+00
       23  1    1    2    0    0 -.14302103E+02 0.32977213E+03 -.22252430E+04 0.22514386E+04 0.91188000E+02 0.0000E+00 0.9000E+01
      -13  1    4    4    0    0 -.16705700E+01 0.19136649E+01 -.23894665E+02 0.24029546E+02 0.10565837E+00 0.0000E+00 0.9000E+01
       13  1    4    4    0    0 0.10188160E+03 -.28312286E+03 -.25069807E+03 0.39164773E+03 0.10565837E+00 0.0000E+00 0.9000E+01
       23  1    3    3    0    0 -.85908927E+02 -.48562940E+02 -.12002710E+03 0.18016787E+03 0.91188000E+02 0.0000E+00 0.9000E+01
#aMCatNLO 1  0  0  1  1 0.42688849D+03 0.00000000D+00  -5  7  0 0.00000000D+00 0.00000000D+00 0.00000000D+00 0.00000000D+00 0.00000000D+00
  <mgrwgt>
 0.6660003297D-03    3    2    0
 0.557526580607625D+03 0.000000000000000D+00 0.000000000000000D+00 0.557526580607625D+03
 0.557526580607625D+03 0.000000000000000D+00 0.000000000000000D+00 -.557526580607625D+03
 0.520740371041667D+03 -.143021034819885D+02 0.329772133260204D+03 -.392302272042386D+03
 0.521731277992151D+01 -.167070986601741D+01 0.191404985143160D+01 -.455691719843136D+01
 0.411046128244298D+03 0.101881740530431D+03 -.283123243002620D+03 0.280036175810907D+03
 0.178049349149363D+03 -.859089271824250D+02 -.485629401090152D+02 0.116823013429910D+03
 0.000000000000000D+00 -.000000000000000D+00 0.000000000000000D+00 -.000000000000000D+00
 0.798150513965486D+03 0.000000000000000D+00 0.000000000000000D+00 0.798150513965486D+03
 0.823463214084957D+03 0.000000000000000D+00 0.000000000000000D+00 -.823463214084957D+03
 0.436769643039006D+03 0.448273094327282D+02 0.162916878854909D+03 -.392302272042386D+03
 0.468225187770779D+01 -.105937897891550D+01 0.188956269996501D+00 -.455691719843136D+01
 0.555333778250805D+03 0.161558898662816D+03 -.451524160778108D+03 0.280036175810907D+03
 0.197189758702403D+03 -.627366701578133D+02 -.113951934357327D+03 0.116823013429910D+03
 0.427638296180522D+03 -.142590158958815D+03 0.402370260010530D+03 -.253127001194710D+02
0.770763845910D-04 0.000000000000D+00 0.000000000000D+00 0.146609967556D-05 0.000000000000D+00  7 -2 2 23 -13 13 23 21 0 0.17493918D-01 0.42054974D+00 0.15219688D+06 0.15219688D+06 0.15219688D+06 0.11070539D+01  1  2  2  1  7  1       -2 0.655281743125D-03 0.100000000000D+01
-.361831431032D-05 0.000000000000D+00 -.295993611507D-06 0.146609967556D-05 0.000000000000D+00  7 -2 2 23 -13 13 23 21 2 0.17493918D-01 0.42054974D+00 0.15219688D+06 0.15219688D+06 0.15219688D+06 0.11070539D+01  1  2  3  1  7  1       -2 -.377008018428D-04 0.100000000000D+01
0.464702492582D-05 0.000000000000D+00 0.000000000000D+00 0.146609967556D-05 0.000000000000D+00  7 -2 2 23 -13 13 23 21 2 0.17493918D-01 0.42054974D+00 0.15219688D+06 0.15219688D+06 0.15219688D+06 0.11070539D+01  1  2 15  1  7  1       -2 0.484193883841D-04 0.100000000000D+01
  </mgrwgt>
  </event>
  <event>
  9     66 -.27870365E-05 0.78973848E+03 0.75467711E-02 0.89669723E-01
       -2 -1    0    0    0  501 0.00000000E+00 0.00000000E+00 0.72599159E+03 0.72599166E+03 0.32000000E+00 0.0000E+00 0.9000E+01
        2 -1    0    0  502    0 0.00000000E+00 0.00000000E+00 -.88604679E+03 0.88604685E+03 0.32000000E+00 0.0000E+00 0.9000E+01
       25  2    1    2    0    0 0.75111719E+03 -.14632685E+03 -.44923418E+02 0.82098635E+03 0.29395900E+03 0.0000E+00 0.0000E+00
       23  2    3    3    0    0 0.43409717E+03 -.18564831E+03 -.68280305E+02 0.48795683E+03 0.10263534E+03 0.0000E+00 0.0000E+00
       23  1    1    2    0    0 -.74574700E+03 0.14164218E+03 -.95898857E+02 0.77052770E+03 0.91188000E+02 0.0000E+00 0.9000E+01
      -11  1    4    4    0    0 0.16396455E+03 -.12428967E+03 -.38854813E+02 0.20938479E+03 0.51099893E-03 0.0000E+00 0.9000E+01
       11  1    4    4    0    0 0.27013262E+03 -.61358639E+02 -.29425492E+02 0.27857203E+03 0.51099893E-03 0.0000E+00 0.9000E+01
       23  1    3    3    0    0 0.31702002E+03 0.39321462E+02 0.23356887E+02 0.33302953E+03 0.91188000E+02 0.0000E+00 0.9000E+01
       21  1    1    2  502  501 -.53701893E+01 0.46846700E+01 -.19232929E+02 0.20524452E+02 0.75000000E+00 0.0000E+00 0.9000E+01
#aMCatNLO 2  0  0  2  1 0.71263642D+01 0.00000000D+00  -5  7  0 0.00000000D+00 0.00000000D+00 0.00000000D+00 0.00000000D+00 0.00000000D+00
  <mgrwgt>
 -.6270006315D-02    5    2    0
 0.792627797492323D+03 0.000000000000000D+00 0.000000000000000D+00 0.792627797492323D+03
 0.792627797492323D+03 0.000000000000000D+00 0.000000000000000D+00 -.792627797492323D+03
 0.767995604465437D+03 -.748343641244067D+03 0.143907347911325D+03 -.278292465031080D+02
 0.205837117762583D+03 0.163265700671717D+03 -.123680034449259D+03 -.204078198642314D+02
 0.275961449805908D+03 0.269195933786292D+03 -.605415196431274D+02 -.479535308457445D+01
 0.335461422950717D+03 0.315882006786058D+03 0.403142061810611D+02 0.530324194519139D+02
 0.000000000000000D+00 -.000000000000000D+00 0.000000000000000D+00 -.000000000000000D+00
 0.793334036147036D+03 0.000000000000000D+00 0.000000000000000D+00 0.793334036147036D+03
 0.810819315632054D+03 0.000000000000000D+00 0.000000000000000D+00 -.810819315632054D+03
 0.765043018252989D+03 -.745747004444776D+03 0.141642178867585D+03 -.278292465031080D+02
 0.206757767369747D+03 0.163964547423558D+03 -.124289671510946D+03 -.204078198642314D+02
 0.277055071860083D+03 0.270132624505948D+03 -.613586392427195D+02 -.479535308457445D+01
 0.336415755363565D+03 0.317020021823619D+03 0.393214618607551D+02 0.530324194519139D+02
 0.188817389327062D+02 -.537018930834939D+01 0.468467002532627D+01 -.174852794850175D+02
-.724789047328D-02 0.000000000000D+00 0.000000000000D+00 0.273995936908D-09 0.000000000000D+00  7 -2 2 23 -11 11 23 21 2 0.11159055D+00 0.13637226D+00 0.62935203D+06 0.62935203D+06 0.62935203D+06 0.10615192D+01  1  2 13  2  7  2        2 -.189113317926D-01 0.100000000000D+01
-.794224788477D-01 0.000000000000D+00 0.000000000000D+00 0.273995936908D-09 0.000000000000D+00  7 -2 2 23 -11 11 23 21 2 0.11159055D+00 0.13325529D+00 0.62368687D+06 0.62368687D+06 0.62368687D+06 0.10617913D+01  1  2  8  2  7  2        2 -.214018093998D+00 0.100000000000D+01
-.732026532571D-02 0.000000000000D+00 0.000000000000D+00 0.273995936908D-09 0.000000000000D+00  7 -2 2 23 -11 11 23 21 2 0.11159055D+00 0.13636928D+00 0.62368687D+06 0.62368687D+06 0.62368687D+06 0.10617913D+01  1  2  9  2  7  2        2 -.191181730743D-01 0.100000000000D+01
0.731831272542D-02 0.000000000000D+00 0.000000000000D+00 0.273995936908D-09 0.000000000000D+00  7 -2 2 23 -11 11 23 21 2 0.11159055D+00 0.13325529D+00 0.62368687D+06 0.62368687D+06 0.62368687D+06 0.10617913D+01  1  2 10  2  7  2        2 0.197205043648D-01 0.100000000000D+01
0.867811879789D-01 0.000000000000D+00 0.000000000000D+00 0.273995936908D-09 0.324327688579D-10  7 -2 2 23 -11 11 23 21 2 0.11168998D+00 0.13631362D+00 0.62935203D+06 0.62935203D+06 0.62935203D+06 0.10615192D+01  1  2  1  2  7  2        2 0.226057088185D+00 0.100000000000D+01
  </mgrwgt>
  </event>
  <event>
  8     66 0.27870365E-05 0.10332350E+03 0.75467711E-02 0.10796422E+00
       -2 -1    0    0    0  501 0.00000000E+00 0.00000000E+00 0.53668064E+02 0.53669018E+02 0.32000000E+00 0.0000E+00 0.9000E+01
        2 -1    0    0  501    0 0.00000000E+00 0.00000000E+00 -.94256188E+03 0.94256193E+03 0.32000000E+00 0.0000E+00 0.9000E+01
       25  2    1    2    0    0 -.55741881E+02 0.91549860E+01 -.80096705E+03 0.85753222E+03 0.30103541E+03 0.0000E+00 0.0000E+00
       23  2    3    3    0    0 -.11992312E+03 0.25229704E+01 -.66015030E+03 0.67778844E+03 0.95973123E+02 0.0000E+00 0.0000E+00
       23  1    1    2    0    0 0.55741881E+02 -.91549860E+01 -.87926764E+02 0.13869873E+03 0.91188000E+02 0.0000E+00 0.9000E+01
      -13  1    4    4    0    0 -.49083046E+02 0.17049526E+02 -.49215397E+03 0.49488925E+03 0.10565837E+00 0.0000E+00 0.9000E+01
       13  1    4    4    0    0 -.70840075E+02 -.14526556E+02 -.16799633E+03 0.18289919E+03 0.10565837E+00 0.0000E+00 0.9000E+01
       23  1    3    3    0    0 0.64181240E+02 0.66320156E+01 -.14081676E+03 0.17974378E+03 0.91188000E+02 0.0000E+00 0.9000E+01
#aMCatNLO 1  0  0  2  1 0.16042012D+02 0.00000000D+00  -5  7  0 0.00000000D+00 0.00000000D+00 0.00000000D+00 0.00000000D+00 0.00000000D+00
  <mgrwgt>
 0.6200646863D-03    9    2    0
 0.224913257726932D+03 0.000000000000000D+00 0.000000000000000D+00 0.224913257726932D+03
 0.224913257726932D+03 0.000000000000000D+00 0.000000000000000D+00 -.224913257726932D+03
 0.133425736587545D+03 0.557419181443765D+02 -.915499205167359D+01 0.793486012608181D+02
 0.123495156754826D+03 -.490830648701053D+02 0.170495473459465D+02 -.112032224918344D+03
 0.730924050427412D+02 -.708400753839159D+02 -.145265741043524D+02 -.106377647710414D+02
 0.119813217068751D+03 0.641812221096446D+02 0.663201881007956D+01 0.433213884285677D+02
 0.000000000000000D+00 -.000000000000000D+00 0.000000000000000D+00 -.000000000000000D+00
 0.232556045769722D+03 0.000000000000000D+00 0.000000000000000D+00 0.232556045769722D+03
 0.233634661396501D+03 0.000000000000000D+00 0.000000000000000D+00 -.233634661396501D+03
 0.135464607944650D+03 0.601407620926605D+02 -.110587917271000D+02 0.793486012608181D+02
 0.121725723957894D+03 -.450714355607945D+02 0.153133324070246D+02 -.112032224918344D+03
 0.710261208918101D+02 -.684824046139009D+02 -.155469633019433D+02 -.106377647710414D+02
 0.121896022197774D+03 0.681354036041184D+02 0.492066702441487D+01 0.433213884285677D+02
 0.160782321740954D+02 -.147223255220834D+02 0.637175559760378D+01 -.107861562677854D+01
0.860296517173D-06 0.000000000000D+00 0.000000000000D+00 0.232830124954D-08 0.000000000000D+00  7 -2 2 23 -13 13 23 21 0 0.82567028D-02 0.14500960D+00 0.29454835D+05 0.29454835D+05 0.29454835D+05 0.11680756D+01  1  2  2  2  7  2        2 0.238096626631D-03 0.100000000000D+01
-.435451536866D-07 0.000000000000D+00 -.330376514722D-08 0.232830124954D-08 0.000000000000D+00  7 -2 2 23 -13 13 23 21 2 0.82567028D-02 0.14500960D+00 0.29454835D+05 0.29454835D+05 0.29454835D+05 0.11680756D+01  1  2  3  2  7  2        2 -.164432181841D-04 0.100000000000D+01
0.532979709403D-07 0.000000000000D+00 0.000000000000D+00 0.232830124954D-08 0.000000000000D+00  7 -2 2 23 -13 13 23 21 2 0.82567028D-02 0.14500960D+00 0.29454835D+05 0.29454835D+05 0.29454835D+05 0.11680756D+01  1  2 15  2  7  2        2 0.201260092282D-04 0.100000000000D+01
0.191787466443D-05 0.000000000000D+00 0.000000000000D+00 0.232830124954D-08 0.000000000000D+00  7 -2 2 23 -13 13 23 21 2 0.82567028D-02 0.15300779D+00 0.31969393D+05 0.31969393D+05 0.31969393D+05 0.11647826D+01  1  2 12  2  7  2        2 0.670592802877D-03 0.100000000000D+01
-.154457285290D-05 0.000000000000D+00 0.000000000000D+00 0.232830124954D-08 0.000000000000D+00  7 -2 2 23 -13 13 23 21 2 0.82567028D-02 0.14500960D+00 0.29454835D+05 0.29454835D+05 0.29454835D+05 0.11680756D+01  1  2  4  2  7  2        2 -.583250861948D-03 0.100000000000D+01
-.909573325742D-05 0.000000000000D+00 -.168924780531D-05 0.232830124954D-08 0.000000000000D+00  7 -2 2 23 -13 13 23 21 2 0.82567028D-02 0.15433174D+00 0.29454835D+05 0.29454835D+05 0.29454835D+05 0.11680756D+01  1  2  5  2  7  2        2 -.315839155272D-02 0.100000000000D+01
0.918641850458D-05 0.000000000000D+00 0.168597439449D-05 0.232830124954D-08 0.000000000000D+00  7 -2 2 23 -13 13 23 21 2 0.82567028D-02 0.14500960D+00 0.29454835D+05 0.29454835D+05 0.29454835D+05 0.11680756D+01  1  2  6  2  7  2        2 0.346891148641D-02 0.100000000000D+01
0.214562312920D-07 0.000000000000D+00 0.000000000000D+00 0.232830124954D-08 0.000000000000D+00  7 -2 21 23 -13 13 23 -2 2 0.82567028D-02 0.15300779D+00 0.31969393D+05 0.31969393D+05 0.31969393D+05 0.11647826D+01  1  2 12  4  7  2        2 0.585563860677D-05 0.100000000000D+01
-.947321657397D-07 0.000000000000D+00 -.180154610290D-07 0.232830124954D-08 0.000000000000D+00  7 -2 21 23 -13 13 23 -2 2 0.82567028D-02 0.15433174D+00 0.29454835D+05 0.29454835D+05 0.29454835D+05 0.11680756D+01  1  2  5  4  7  2        2 -.254322445970D-04 0.100000000000D+01
  </mgrwgt>
  </event>
  <event>
  8     66 0.27870365E-05 0.57422078E+03 0.75467711E-02 0.89964883E-01
       -2 -1    0    0    0  501 0.00000000E+00 0.00000000E+00 0.27751234E+03 0.27751253E+03 0.32000000E+00 0.0000E+00 0.9000E+01
        2 -1    0    0  501    0 0.00000000E+00 0.00000000E+00 -.15452003E+04 0.15452004E+04 0.32000000E+00 0.0000E+00 0.9000E+01
       25  2    1    2    0    0 0.54924704E+03 0.94036073E+02 -.30151546E+03 0.70364198E+03 0.30608066E+03 0.0000E+00 0.0000E+00
       23  2    3    3    0    0 0.17564741E+03 0.32529095E+02 0.12787800E+02 0.20318061E+03 0.95961854E+02 0.0000E+00 0.0000E+00
       23  1    1    2    0    0 -.54924704E+03 -.94036073E+02 -.96617253E+03 0.11190709E+04 0.91188000E+02 0.0000E+00 0.9000E+01
      -13  1    4    4    0    0 0.91927019E+02 0.55678547E+02 -.21839966E+02 0.10967075E+03 0.10565837E+00 0.0000E+00 0.9000E+01
       13  1    4    4    0    0 0.83720393E+02 -.23149452E+02 0.34627766E+02 0.93509864E+02 0.10565837E+00 0.0000E+00 0.9000E+01
       23  1    3    3    0    0 0.37359963E+03 0.61506978E+02 -.31430326E+03 0.50046137E+03 0.91188000E+02 0.0000E+00 0.9000E+01
#aMCatNLO 1  0  0  1  1 0.34218251D+03 0.00000000D+00  -5  7  0 0.00000000D+00 0.00000000D+00 0.00000000D+00 0.00000000D+00 0.00000000D+00
  <mgrwgt>
 0.4319155065D-03    3    2    0
 0.654837662311130D+03 0.000000000000000D+00 0.000000000000000D+00 0.654837662311130D+03
 0.654837662311130D+03 0.000000000000000D+00 0.000000000000000D+00 -.654837662311130D+03
 0.622245572089162D+03 -.549247044911927D+03 -.940360735787756D+02 -.261455925849792D+03
 0.131492108743845D+03 0.919270295095880D+02 0.556786420866038D+02 0.757593870278683D+02
 0.163658032982199D+03 0.837203837265929D+02 -.231495466005925D+02 0.138704533453170D+03
 0.392279610807054D+03 0.373599631675746D+03 0.615069780927643D+02 0.469920053687539D+02
 0.000000000000000D+00 -.000000000000000D+00 0.000000000000000D+00 -.000000000000000D+00
 0.727151003707080D+03 0.000000000000000D+00 0.000000000000000D+00 0.727151003707080D+03
 0.125840737626233D+04 0.000000000000000D+00 0.000000000000000D+00 -.125840737626233D+04
 0.501769586823967D+03 -.405207879037794D+03 -.104426244408266D+03 -.261455925849792D+03
 0.158815221907583D+03 0.129129041797938D+03 0.529950993117552D+02 0.757593870278683D+02
 0.191404089947215D+03 0.129220528110503D+03 -.264316696956985D+02 0.138704533453170D+03
 0.501650021495777D+03 0.488154028532436D+03 0.532436717525270D+02 0.469920053687539D+02
 0.631919459794871D+03 -.341295719403083D+03 0.246191430396821D+02 -.531256372555253D+03
0.540453471602D-04 0.000000000000D+00 0.000000000000D+00 0.136803569319D-08 0.000000000000D+00  7 -2 2 23 -13 13 23 21 0 0.42694223D-01 0.23772315D+00 0.32972951D+06 0.32972951D+06 0.32972951D+06 0.10815288D+01  1  2  2  1  7  1       -2 0.427641484430D-03 0.100000000000D+01
-.293951324926D-05 0.000000000000D+00 -.207548363562D-06 0.136803569319D-08 0.000000000000D+00  7 -2 2 23 -13 13 23 21 2 0.42694223D-01 0.23772315D+00 0.32972951D+06 0.32972951D+06 0.32972951D+06 0.10815288D+01  1  2  3  1  7  1       -2 -.272065274861D-04 0.100000000000D+01
0.340129744291D-05 0.000000000000D+00 0.000000000000D+00 0.136803569319D-08 0.000000000000D+00  7 -2 2 23 -13 13 23 21 2 0.42694223D-01 0.23772315D+00 0.32972951D+06 0.32972951D+06 0.32972951D+06 0.10815288D+01  1  2 15  1  7  1       -2 0.314805495066D-04 0.100000000000D+01
  </mgrwgt>
  </event>
  <event>
  8     66 0.27870365E-05 0.23604669E+03 0.75467711E-02 0.80918418E-01
       -2 -1    0    0    0  501 0.00000000E+00 0.00000000E+00 0.53259983E+03 0.53259993E+03 0.32000000E+00 0.0000E+00 0.9000E+01
        2 -1    0    0  501    0 0.00000000E+00 0.00000000E+00 -.90015524E+03 0.90015530E+03 0.32000000E+00 0.0000E+00 0.9000E+01
       25  2    1    2    0    0 0.72584505E+02 -.11133535E+03 -.85636826E+03 0.91805403E+03 0.30297283E+03 0.0000E+00 0.0000E+00
       23  2    3    3    0    0 -.57513514E+02 -.10899546E+03 -.26342854E+03 0.30419433E+03 0.89172750E+02 0.0000E+00 0.0000E+00
       23  1    1    2    0    0 -.72584505E+02 0.11133535E+03 0.48881285E+03 0.51470120E+03 0.91188000E+02 0.0000E+00 0.9000E+01
      -11  1    4    4    0    0 -.44534166E+02 -.23571856E+01 -.72444584E+02 0.85070947E+02 0.51099893E-03 0.0000E+00 0.9000E+01
       11  1    4    4    0    0 -.12979348E+02 -.10663827E+03 -.19098396E+03 0.21912338E+03 0.51099893E-03 0.0000E+00 0.9000E+01
       23  1    3    3    0    0 0.13009802E+03 -.23398853E+01 -.59293972E+03 0.61385970E+03 0.91188000E+02 0.0000E+00 0.9000E+01
#aMCatNLO 1  0  0  1  1 0.20419161D+04 0.00000000D+00  -5  7  0 0.00000000D+00 0.00000000D+00 0.00000000D+00 0.00000000D+00 0.00000000D+00
  <mgrwgt>
 0.7179113637D-03    3    2    0
 0.692403523137175D+03 0.000000000000000D+00 0.000000000000000D+00 0.692403523137175D+03
 0.692403523137175D+03 0.000000000000000D+00 0.000000000000000D+00 -.692403523137175D+03
 0.662263120770085D+03 -.725845048191524D+02 0.111335345100631D+03 0.642349686992695D+03
 0.687882436864184D+02 -.445341656504457D+02 -.235718558813448D+01 -.523734115308889D+02
 0.176019457944502D+03 -.129793479707878D+02 -.106638274225499D+03 -.139436955544564D+03
 0.477736223873345D+03 0.130098018440386D+03 -.233988528699743D+01 -.450539319917243D+03
 0.000000000000000D+00 0.000000000000000D+00 -.000000000000000D+00 -.000000000000000D+00
 0.173481068711574D+04 0.000000000000000D+00 0.000000000000000D+00 0.173481068711574D+04
 0.331329364627911D+04 0.000000000000000D+00 0.000000000000000D+00 -.331329364627911D+04
 0.134598961038696D+04 -.103866859794381D+04 0.558504434352559D+03 0.642349686992695D+03
 0.180686975002288D+03 -.164545973260484D+03 0.531923996812858D+02 -.523734115308889D+02
 0.264919818056597D+03 -.225096286227425D+03 -.845620211587277D+01 -.139436955544564D+03
 0.675610870688502D+03 -.424727708730805D+03 0.254471004032414D+03 -.450539319917243D+03
 0.258089705926050D+04 0.185303856616252D+04 -.857711635950386D+03 -.157848295916337D+04
0.124227172413D-03 0.000000000000D+00 0.000000000000D+00 0.364527069357D-07 0.000000000000D+00  7 -2 2 23 -11 11 23 21 0 0.81938447D-01 0.13848543D+00 0.55718038D+05 0.55718038D+05 0.55718038D+05 0.11431819D+01  1  2  2  1  7  1       -2 0.648354859211D-03 0.100000000000D+01
0.281617024216D-05 0.000000000000D+00 -.477065051831D-06 0.364527069357D-07 0.000000000000D+00  7 -2 2 23 -11 11 23 21 2 0.81938447D-01 0.13848543D+00 0.55718038D+05 0.55718038D+05 0.55718038D+05 0.11431819D+01  1  2  3  1  7  1       -2 0.192081578968D-04 0.100000000000D+01
0.738173415904D-05 0.000000000000D+00 0.000000000000D+00 0.364527069357D-07 0.000000000000D+00  7 -2 2 23 -11 11 23 21 2 0.81938447D-01 0.13848543D+00 0.55718038D+05 0.55718038D+05 0.55718038D+05 0.11431819D+01  1  2 15  1  7  1       -2 0.503483465439D-04 0.100000000000D+01
  </mgrwgt>
  </event>
  <event>
  9     66 -.27870365E-05 0.27899501E+03 0.75467711E-02 0.10166883E+00
       -2 -1    0    0    0  501 0.00000000E+00 0.00000000E+00 0.64858322E+02 0.64859112E+02 0.32000000E+00 0.0000E+00 0.9000E+01
        2 -1    0    0  502    0 0.00000000E+00 0.00000000E+00 -.14311413E+04 0.14311413E+04 0.32000000E+00 0.0000E+00 0.9000E+01
       25  2    1    2    0    0 0.22204165E+02 -.21398847E+03 -.83538459E+03 0.91303054E+03 0.29912080E+03 0.0000E+00 0.0000E+00
       23  2    3    3    0    0 -.67003049E+02 -.20667896E+02 -.44811308E+03 0.46178200E+03 0.86722014E+02 0.0000E+00 0.0000E+00
       23  1    1    2    0    0 -.23391567E+02 0.21746204E+03 -.52469147E+03 0.57571981E+03 0.91188000E+02 0.0000E+00 0.9000E+01
      -13  1    4    4    0    0 0.90237735E+01 -.80837445E+01 -.23243199E+03 0.23274753E+03 0.10565837E+00 0.0000E+00 0.9000E+01
       13  1    4    4    0    0 -.76026823E+02 -.12584152E+02 -.21568110E+03 0.22903446E+03 0.10565837E+00 0.0000E+00 0.9000E+01
       23  1    3    3    0    0 0.89207214E+02 -.19332058E+03 -.38727151E+03 0.45124854E+03 0.91188000E+02 0.0000E+00 0.9000E+01
       21  1    1    2  502  501 0.11874017E+01 -.34735721E+01 -.62068823E+01 0.72500699E+01 0.75000000E+00 0.0000E+00 0.9000E+01
#aMCatNLO 2  0  0  2  1 0.36709163D+01 0.00000000D+00  -5  7  0 0.00000000D+00 0.00000000D+00 0.00000000D+00 0.00000000D+00 0.00000000D+00
  <mgrwgt>
 -.5587475933D-05    3    2    0
 0.302719844630940D+03 0.000000000000000D+00 0.000000000000000D+00 0.302719844630940D+03
 0.302719844630940D+03 0.000000000000000D+00 0.000000000000000D+00 -.302719844630940D+03
 0.235695824710684D+03 -.229280551452653D+02 0.216106106940368D+03 0.311853689789752D+01
 0.502387943009913D+02 0.912236371835841D+01 -.837178212382004D+01 -.486891383891581D+02
 0.785972619359932D+02 -.758727291157670D+02 -.130353042170556D+02 -.158410670199136D+02
 0.240907808314211D+03 0.896784205426738D+02 -.194699020599492D+03 0.614116685111742D+02
 0.000000000000000D+00 0.000000000000000D+00 -.000000000000000D+00 0.000000000000000D+00
 0.305143037294576D+03 0.000000000000000D+00 0.000000000000000D+00 0.305143037294576D+03
 0.304118884769599D+03 0.000000000000000D+00 0.000000000000000D+00 -.304118884769599D+03
 0.236984983583505D+03 -.233915669163712D+02 0.217462043641845D+03 0.311853689789752D+01
 0.501737955768189D+02 0.902389892656041D+01 -.808373760515836D+01 -.486891383891581D+02
 0.786727228364369D+02 -.760269483857363D+02 -.125841580299208D+02 -.158410670199136D+02
 0.239619315956006D+03 0.892072146580120D+02 -.193320575880730D+03 0.614116685111742D+02
 0.381110411140851D+01 0.118740171753509D+01 -.347357212603593D+01 0.102415252497654D+01
-.383793466993D-07 0.000000000000D+00 0.000000000000D+00 0.581257150231D-08 0.000000000000D+00  7 -2 2 23 -13 13 23 21 2 0.98978398D-02 0.22102078D+00 0.78800367D+05 0.78800367D+05 0.78800367D+05 0.11303133D+01  1  2 13  2  7  2        2 -.542125331655D-05 0.100000000000D+01
-.107632769113D-05 0.000000000000D+00 0.000000000000D+00 0.581257150231D-08 0.000000000000D+00  7 -2 2 23 -13 13 23 21 2 0.98978398D-02 0.21913646D+00 0.77838218D+05 0.77838218D+05 0.77838218D+05 0.11307618D+01  1  2  8  2  7  2        2 -.154511627097D-03 0.100000000000D+01
0.109839018579D-05 0.000000000000D+00 0.000000000000D+00 0.581257150231D-08 0.293931487145D-08  7 -2 2 23 -13 13 23 21 2 0.99770694D-02 0.22014922D+00 0.78800367D+05 0.78800367D+05 0.78800367D+05 0.11303133D+01  1  2  1  2  7  2        2 0.154345404481D-03 0.100000000000D+01
  </mgrwgt>
  </event>
  <event>
  9     66 0.27870365E-05 0.15834507E+03 0.75467711E-02 0.10903905E+00
       -4 -1    0    0    0  502 0.00000000E+00 0.00000000E+00 0.58881273E+03 0.58881477E+03 0.15500000E+01 0.0000E+00 0.9000E+01
        4 -1    0    0  501    0 0.00000000E+00 0.00000000E+00 -.15948263E+03 0.15949016E+03 0.15500000E+01 0.0000E+00 0.9000E+01
       25  2    1    2    0    0 -.52180264E+01 0.30573225E+01 0.52167636E+03 0.60360366E+03 0.30356973E+03 0.0000E+00 0.0000E+00
       23  2    3    3    0    0 0.29498801E+02 -.65321391E+02 0.45034419E+03 0.46473524E+03 0.89620859E+02 0.0000E+00 0.0000E+00
       23  1    1    2    0    0 0.15650046E+02 -.11523164E+02 -.92370955E+02 0.13124539E+03 0.91188000E+02 0.0000E+00 0.9000E+01
      -11  1    4    4    0    0 0.37492514E+02 0.35903071E+01 0.24765372E+03 0.25050138E+03 0.51099893E-03 0.0000E+00 0.9000E+01
       11  1    4    4    0    0 -.79937132E+01 -.68911698E+02 0.20269047E+03 0.21423386E+03 0.51099893E-03 0.0000E+00 0.9000E+01
       23  1    3    3    0    0 -.34716827E+02 0.68378714E+02 0.71332174E+02 0.13886842E+03 0.91188000E+02 0.0000E+00 0.9000E+01
       21  1    1    2  501  502 -.10432020E+02 0.84658414E+01 0.24691963E-01 0.13455877E+02 0.75000000E+00 0.0000E+00 0.9000E+01
#aMCatNLO 2  0  0  1  1 0.13434936D+02 0.00000000D+00  -5  7  0 0.00000000D+00 0.00000000D+00 0.00000000D+00 0.00000000D+00 0.00000000D+00
  <mgrwgt>
 0.1415448172D-04    2    2    0
 0.298127278636610D+03 0.000000000000000D+00 0.000000000000000D+00 0.298127278636610D+03
 0.298127278636610D+03 0.000000000000000D+00 0.000000000000000D+00 -.298127278636610D+03
 0.227822299830408D+03 0.116612727389632D+02 -.828617578267757D+01 -.208286108430261D+03
 0.129811830879965D+03 0.352166229227467D+02 0.543724884094304D+01 0.124825226742703D+03
 0.117254334296403D+03 -.100519976797625D+02 -.672413497732068D+02 0.955308177219051D+02
 0.121366092266444D+03 -.368258979819474D+02 0.700902767149414D+02 -.120699360343469D+02
 0.000000000000000D+00 -.000000000000000D+00 0.000000000000000D+00 -.000000000000000D+00
 0.301647612674618D+03 0.000000000000000D+00 0.000000000000000D+00 0.301647612674618D+03
 0.311302739569983D+03 0.000000000000000D+00 0.000000000000000D+00 -.311302739569983D+03
 0.228201800086438D+03 0.156500462645244D+02 -.115231638705007D+02 -.208286108430261D+03
 0.130383726507835D+03 0.374925139358891D+02 0.359030715535585D+01 0.124825226742703D+03
 0.118062944063576D+03 -.799371319391944D+01 -.689116983952404D+02 0.955308177219051D+02
 0.119757426845196D+03 -.347168271902984D+02 0.683787137532455D+02 -.120699360343469D+02
 0.165444547415548D+02 -.104320198161956D+02 0.846584135713976D+01 -.965512689536489D+01
-.247507068503D-05 0.000000000000D+00 0.000000000000D+00 0.423727756932D-08 0.000000000000D+00  7 -4 4 23 -11 11 23 21 2 0.89527619D-01 0.23497393D-01 0.25073162D+05 0.25073162D+05 0.25073162D+05 0.11746345D+01  1  2  8  1  7  1       -4 -.131929811581D-04 0.100000000000D+01
0.575572800918D-05 0.000000000000D+00 0.000000000000D+00 0.423727756932D-08 0.171684508845D-09  7 -4 4 23 -11 11 23 21 2 0.90584775D-01 0.24535839D-01 0.27698348D+05 0.27698348D+05 0.27698348D+05 0.11705661D+01  1  2  1  1  7  1       -4 0.273474628813D-04 0.100000000000D+01
  </mgrwgt>
  </event>
  <event>
  9     66 -.27870365E-05 0.52923714E+03 0.75467711E-02 0.93300285E-01
       -2 -1    0    0    0  502 0.00000000E+00 0.00000000E+00 0.18611117E+03 0.18611145E+03 0.32000000E+00 0.0000E+00 0.9000E+01
        2 -1    0    0  501    0 0.00000000E+00 0.00000000E+00 -.22926472E+04 0.22926473E+04 0.32000000E+00 0.0000E+00 0.9000E+01
       25  2    1    2    0    0 0.21241537E+03 -.42389933E+03 -.16342777E+04 0.17276515E+04 0.29850458E+03 0.0000E+00 0.0000E+00
       23  2    3    3    0    0 0.25013826E+03 -.29475623E+03 -.11692566E+04 0.12350453E+04 0.93410252E+02 0.0000E+00 0.0000E+00
       23  1    1    2    0    0 -.27679722E+03 0.41497442E+03 -.36173723E+03 0.62288807E+03 0.91188000E+02 0.0000E+00 0.9000E+01
      -13  1    4    4    0    0 0.19443390E+03 -.18601714E+03 -.69413895E+03 0.74447015E+03 0.10565837E+00 0.0000E+00 0.9000E+01
       13  1    4    4    0    0 0.55704357E+02 -.10873909E+03 -.47511768E+03 0.49057516E+03 0.10565837E+00 0.0000E+00 0.9000E+01
       23  1    3    3    0    0 -.37722881E+02 -.12914310E+03 -.46502110E+03 0.49260616E+03 0.91188000E+02 0.0000E+00 0.9000E+01
       21  1    1    2  501  502 0.64381846E+02 0.89249148E+01 -.11052111E+03 0.12821917E+03 0.75000000E+00 0.0000E+00 0.9000E+01
#aMCatNLO 2  0  0  1  2 0.64997510D+02 0.00000000D+00  -5  7  0 0.00000000D+00 0.00000000D+00 0.00000000D+00 0.00000000D+00 0.00000000D+00
  <mgrwgt>
 -.2184689439D-03    3    2    0
 0.619825730516131D+03 0.000000000000000D+00 0.000000000000000D+00 0.619825730516131D+03
 0.619825730516131D+03 0.000000000000000D+00 0.000000000000000D+00 -.619825730516131D+03
 0.587240065974330D+03 -.246045373564316D+03 0.419237384574176D+03 0.316602800468563D+03
 0.302708350755268D+03 0.209906823969183D+03 -.183872336526147D+03 -.117313403874239D+03
 0.167296990234946D+03 0.643262215736641D+02 -.107543762356927D+03 -.110836633555176D+03
 0.182406054067718D+03 -.281876719785315D+02 -.127821285691102D+03 -.884527630391480D+02
 0.000000000000000D+00 0.000000000000000D+00 0.000000000000000D+00 -.000000000000000D+00
 0.651659510795392D+03 0.000000000000000D+00 0.000000000000000D+00 0.651659510795392D+03
 0.654766484223353D+03 0.000000000000000D+00 0.000000000000000D+00 -.654766484223353D+03
 0.597806870403494D+03 -.276797221045410D+03 0.414974418626766D+03 0.316602800468563D+03
 0.293546348263686D+03 0.194434075168058D+03 -.186017241845822D+03 -.117313403874239D+03
 0.164960246845872D+03 0.557041800615957D+02 -.108738990363494D+03 -.110836633555176D+03
 0.185040803455593D+03 -.377228805623386D+02 -.129143101218420D+03 -.884527630391480D+02
 0.650717260500995D+02 0.643818463780945D+02 0.892491480097054D+01 -.310697342796041D+01
-.782927318877D-04 0.000000000000D+00 0.000000000000D+00 0.682414688600D-07 0.000000000000D+00  7 -2 2 23 -13 13 23 21 2 0.29359943D-01 0.33389171D+00 0.31689908D+06 0.31689908D+06 0.31689908D+06 0.10827954D+01  1  2 13  1  7  1       -2 -.657773863110D-03 0.100000000000D+01
-.908719695373D-09 0.000000000000D+00 0.000000000000D+00 0.682414688600D-07 0.000000000000D+00  7 -2 2 23 -13 13 23 21 2 0.27233713D-01 0.33389171D+00 0.28009195D+06 0.28009195D+06 0.28009195D+06 0.10867650D+01  1  2  8  1  7  1       -2 -.882970614721D-08 0.100000000000D+01
0.585697876363D-04 0.000000000000D+00 0.000000000000D+00 0.682414688600D-07 0.101248393843D-09  7 -2 2 23 -13 13 23 21 2 0.28632416D-01 0.35271382D+00 0.31689908D+06 0.31689908D+06 0.31689908D+06 0.10827954D+01  1  2  1  1  7  1       -2 0.439313748883D-03 0.100000000000D+01
  </mgrwgt>
  </event>
  <event>
  7     66 0.27870365E-05 0.31795488E+03 0.75467711E-02 0.91074764E-01
       -2 -1    0    0    0  501 0.00000000E+00 0.00000000E+00 0.24490221E+03 0.24490242E+03 0.32000000E+00 0.0000E+00 0.9000E+01
        2 -1    0    0  501    0 0.00000000E+00 0.00000000E+00 -.12860781E+04 0.12860781E+04 0.32000000E+00 0.0000E+00 0.9000E+01
       23  2    1    2    0    0 0.94213446E+02 -.22811850E+03 -.11113159E+04 0.11426297E+04 0.98313083E+02 0.0000E+00 0.0000E+00
       23  1    1    2    0    0 -.12653625E+03 0.22855831E+03 0.87179665E+02 0.29011354E+03 0.91188000E+02 0.0000E+00 0.9000E+01
      -13  1    3    3    0    0 0.74904245E+02 -.67968731E+02 -.51763034E+03 0.52741974E+03 0.10565837E+00 0.0000E+00 0.9000E+01
       13  1    3    3    0    0 0.19309201E+02 -.16014977E+03 -.59368553E+03 0.61520998E+03 0.10565837E+00 0.0000E+00 0.9000E+01
       23  1    1    2    0    0 0.32322803E+02 -.43980956E+00 -.17039635E+02 0.98237251E+02 0.91188000E+02 0.0000E+00 0.9000E+01
#aMCatNLO 1  0  0  2  1 0.55758175D+03 0.00000000D+00  -5  7  0 0.00000000D+00 0.00000000D+00 0.00000000D+00 0.00000000D+00 0.00000000D+00
  <mgrwgt>
 0.1658622025D-02    3    2    0
 0.561216128504966D+03 0.000000000000000D+00 0.000000000000000D+00 0.561216128504966D+03
 0.561216128504966D+03 0.000000000000000D+00 0.000000000000000D+00 -.561216128504966D+03
 0.476581309663106D+03 -.126536911012463D+03 0.228559502831060D+03 0.388025072892518D+03
 0.239234716907374D+03 0.749045857518813D+02 -.679686911902666D+02 -.216801314168002D+03
 0.288429898784497D+03 0.193094453145529D+02 -.160149902214826D+03 -.239104497354318D+03
 0.118186331654954D+03 0.323228799460287D+02 -.440909425967220D+00 0.678807386298025D+02
 0.000000000000000D+00 -.000000000000000D+00 -.000000000000000D+00 0.000000000000000D+00
 0.212365783436667D+04 0.000000000000000D+00 0.000000000000000D+00 0.212365783436667D+04
 0.678567883451531D+03 0.000000000000000D+00 0.000000000000000D+00 -.678567883451531D+03
 0.577217959065614D+03 0.347686897306103D+02 0.416044471114622D+03 0.388025072892518D+03
 0.265800225212304D+03 0.152210546338792D+03 0.218837720968129D+02 -.216801314168002D+03
 0.268006288408225D+03 0.104483421150185D+03 -.611524707272270D+02 -.239104497354318D+03
 0.142271815025309D+03 0.721913435760817D+02 0.458980744949975D+02 0.678807386298025D+02
 0.154892943010675D+04 -.363654000795670D+03 -.422673846979205D+03 0.144508995091514D+04
0.110833885105D-03 0.000000000000D+00 0.000000000000D+00 0.223276716952D-09 0.000000000000D+00  7 -2 2 23 -13 13 23 21 0 0.37677282D-01 0.19785818D+00 0.10109531D+06 0.10109531D+06 0.10109531D+06 0.11213340D+01  1  2  2  2  7  2        2 0.160818823660D-02 0.100000000000D+01
-.374042600359D-05 0.000000000000D+00 -.425631302035D-06 0.223276716952D-09 0.000000000000D+00  7 -2 2 23 -13 13 23 21 2 0.37677282D-01 0.19785818D+00 0.10109531D+06 0.10109531D+06 0.10109531D+06 0.11213340D+01  1  2  3  2  7  2        2 -.682425720990D-04 0.100000000000D+01
0.650473938028D-05 0.000000000000D+00 0.000000000000D+00 0.223276716952D-09 0.000000000000D+00  7 -2 2 23 -13 13 23 21 2 0.37677282D-01 0.19785818D+00 0.10109531D+06 0.10109531D+06 0.10109531D+06 0.11213340D+01  1  2 15  2  7  2        2 0.118676360852D-03 0.100000000000D+01
  </mgrwgt>
  </event>
  <event>
  9     66 0.27870365E-05 0.60436500E+03 0.75467711E-02 0.88520154E-01
       -2 -1    0    0    0  502 0.00000000E+00 0.00000000E+00 0.34562628E+03 0.34562643E+03 0.32000000E+00 0.0000E+00 0.9000E+01
        2 -1    0    0  501    0 0.00000000E+00 0.00000000E+00 -.24052261E+04 0.24052262E+04 0.32000000E+00 0.0000E+00 0.9000E+01
       25  2    1    2    0    0 0.64254767E+03 0.56263775E+03 -.12992023E+04 0.15835018E+04 0.30020440E+03 0.0000E+00 0.0000E+00
       23  2    3    3    0    0 0.14131217E+03 0.26697058E+03 -.47355446E+03 0.56927024E+03 0.92587065E+02 0.0000E+00 0.0000E+00
       23  1    1    2    0    0 -.32936740E+03 -.19521412E+03 -.25813972E+03 0.47068333E+03 0.91188000E+02 0.0000E+00 0.9000E+01
      -11  1    4    4    0    0 0.11134696E+03 0.26038009E+03 -.44430702E+03 0.52688202E+03 0.51099893E-03 0.0000E+00 0.9000E+01
       11  1    4    4    0    0 0.29965214E+02 0.65904862E+01 -.29247436E+02 0.42388219E+02 0.51099893E-03 0.0000E+00 0.9000E+01
       23  1    3    3    0    0 0.50123550E+03 0.29566718E+03 -.82564781E+03 0.10142316E+04 0.91188000E+02 0.0000E+00 0.9000E+01
       21  1    1    2  501  502 -.31318027E+03 -.36742363E+03 -.50225787E+03 0.69666745E+03 0.75000000E+00 0.0000E+00 0.9000E+01
#aMCatNLO 2  0  0  1  1 0.48278567D+03 0.00000000D+00  -5  7  0 0.00000000D+00 0.00000000D+00 0.00000000D+00 0.00000000D+00 0.00000000D+00
  <mgrwgt>
 0.3136745397D-04    1    2    0
 0.624756056464370D+03 0.000000000000000D+00 0.000000000000000D+00 0.624756056464370D+03
 0.624756056464370D+03 0.000000000000000D+00 0.000000000000000D+00 -.624756056464370D+03
 0.592020308077532D+03 -.451988233884313D+03 -.339073094192752D+03 0.151356754249384D+03
 0.207948183947175D+03 0.509410617266779D+02 0.189511789614644D+03 -.687948910468049D+02
 0.237844627557857D+02 0.233383630458169D+02 -.118414683094110D+01 0.442936510188276D+01
 0.425759158148248D+03 0.377708809111818D+03 0.150745451409049D+03 -.869912283044621D+02
 0.000000000000000D+00 -.000000000000000D+00 -.000000000000000D+00 0.000000000000000D+00
 0.931842500368312D+03 0.000000000000000D+00 0.000000000000000D+00 0.931842500368312D+03
 0.892113283338806D+03 0.000000000000000D+00 0.000000000000000D+00 -.892113283338806D+03
 0.421681818205879D+03 -.329367401088938D+03 -.195214119633868D+03 0.151356754249384D+03
 0.291425247771384D+03 0.111346958573040D+03 0.260380092981404D+03 -.687948910468049D+02
 0.309994810921426D+02 0.299652139167697D+02 0.659048615039588D+01 0.442936510188276D+01
 0.595431629853080D+03 0.501235495720225D+03 0.295667175238774D+03 -.869912283044621D+02
 0.484417606784633D+03 -.313180267121097D+03 -.367423634736706D+03 0.397292170295055D+02
0.173021200466D-04 0.000000000000D+00 0.000000000000D+00 0.112129605916D-05 0.362273670361D-10  7 -2 2 23 -11 11 23 21 2 0.53173270D-01 0.37003468D+00 0.79145983D+06 0.79145983D+06 0.79145983D+06 0.10546929D+01  1  2  1  1  7  1       -2 0.313674539704D-04 0.100000000000D+01
  </mgrwgt>
  </event>
  <event>
  8     66 0.27870365E-05 0.30156514E+03 0.75467711E-02 0.95674092E-01
       -2 -1    0    0    0  501 0.00000000E+00 0.00000000E+00 0.57354742E+03 0.57354750E+03 0.32000000E+00 0.0000E+00 0.9000E+01
        2 -1    0    0  501    0 0.00000000E+00 0.00000000E+00 -.29967850E+03 0.29967867E+03 0.32000000E+00 0.0000E+00 0.9000E+01
       25  2    1    2    0    0 0.20567061E+03 0.77789076E+02 -.13873499E+03 0.39687675E+03 0.29985365E+03 0.0000E+00 0.0000E+00
       23  2    3    3    0    0 0.35230226E+00 0.11261030E+03 -.51589113E+02 0.15340646E+03 0.90503603E+02 0.0000E+00 0.0000E+00
       23  1    1    2    0    0 -.20567061E+03 -.77789076E+02 0.41260391E+03 0.47634943E+03 0.91188000E+02 0.0000E+00 0.9000E+01
      -11  1    4    4    0    0 0.39819325E+02 0.54495808E+02 -.48457978E+02 0.83087589E+02 0.51099893E-03 0.0000E+00 0.9000E+01
       11  1    4    4    0    0 -.39467023E+02 0.58114488E+02 -.31311354E+01 0.70318871E+02 0.51099893E-03 0.0000E+00 0.9000E+01
       23  1    3    3    0    0 0.20531831E+03 -.34821220E+02 -.87145881E+02 0.24347029E+03 0.91188000E+02 0.0000E+00 0.9000E+01
#aMCatNLO 1  0  0  2  1 0.25975004D+03 0.00000000D+00  -5  7  0 0.00000000D+00 0.00000000D+00 0.00000000D+00 0.00000000D+00 0.00000000D+00
  <mgrwgt>
 0.3760538160D-03    7    2    0
 0.414584061071184D+03 0.000000000000000D+00 0.000000000000000D+00 0.414584061071184D+03
 0.414584061071184D+03 0.000000000000000D+00 0.000000000000000D+00 -.414584061071184D+03
 0.365379948761150D+03 -.205670613377390D+03 -.777890756438624D+02 0.277192557829647D+03
 0.103507827684003D+03 0.398193249034324D+02 0.544958083207364D+02 -.784761022959578D+02
 0.750894753936931D+02 -.394670226407822D+02 0.581144878158253D+02 -.265233810943536D+02
 0.285190870303523D+03 0.205318311114740D+03 -.348212204926993D+02 -.172193074439336D+03
 0.000000000000000D+00 0.000000000000000D+00 0.000000000000000D+00 -.000000000000000D+00
 0.549215183409339D+03 0.000000000000000D+00 0.000000000000000D+00 0.549215183409339D+03
 0.581425932812165D+03 0.000000000000000D+00 0.000000000000000D+00 -.581425932812165D+03
 0.451200192177083D+03 -.315846868856204D+03 -.136643343761143D+03 0.277192557829647D+03
 0.894215773311361D+02 0.137885186779706D+02 0.405905975995670D+02 -.784761022959578D+02
 0.810151927805316D+02 -.605292882286246D+02 0.468633863813369D+02 -.265233810943536D+02
 0.247264560882856D+03 0.133477296771593D+03 -.731974595615792D+02 -.172193074439336D+03
 0.261739593049898D+03 0.229110341635265D+03 0.122386819341818D+03 -.322107494028265D+02
0.255791897714D-04 0.000000000000D+00 0.000000000000D+00 0.870230657194D-06 0.000000000000D+00  7 -2 2 23 -11 11 23 21 0 0.88238084D-01 0.46104405D-01 0.90941535D+05 0.90941535D+05 0.90941535D+05 0.11251219D+01  1  2  2  2  7  2        2 0.391685081891D-03 0.100000000000D+01
-.124602462488D-05 0.000000000000D+00 -.982308238775D-07 0.870230657194D-06 0.000000000000D+00  7 -2 2 23 -11 11 23 21 2 0.88238084D-01 0.46104405D-01 0.90941535D+05 0.90941535D+05 0.90941535D+05 0.11251219D+01  1  2  3  2  7  2        2 -.241532736200D-04 0.100000000000D+01
0.159030656751D-05 0.000000000000D+00 0.000000000000D+00 0.870230657194D-06 0.000000000000D+00  7 -2 2 23 -11 11 23 21 2 0.88238084D-01 0.46104405D-01 0.90941535D+05 0.90941535D+05 0.90941535D+05 0.11251219D+01  1  2 15  2  7  2        2 0.308269266094D-04 0.100000000000D+01
-.878024169559D-05 0.000000000000D+00 0.000000000000D+00 0.870230657194D-06 0.000000000000D+00  7 -2 2 23 -11 11 23 21 2 0.88238084D-01 0.46104405D-01 0.90941535D+05 0.90941535D+05 0.90941535D+05 0.11251219D+01  1  2  4  2  7  2        2 -.170198546553D-03 0.100000000000D+01
-.597355676960D-05 0.000000000000D+00 -.896549809806D-05 0.870230657194D-06 0.000000000000D+00  7 -2 2 23 -11 11 23 21 2 0.88238084D-01 0.82819789D-01 0.90941535D+05 0.90941535D+05 0.90941535D+05 0.11251219D+01  1  2  5  2  7  2        2 -.608791058895D-04 0.100000000000D+01
0.106843283068D-04 0.000000000000D+00 0.762036464390D-05 0.870230657194D-06 0.000000000000D+00  7 -2 2 23 -11 11 23 21 2 0.88238084D-01 0.46104405D-01 0.90941535D+05 0.90941535D+05 0.90941535D+05 0.11251219D+01  1  2  6  2  7  2        2 0.207107869209D-03 0.100000000000D+01
0.912206113187D-07 0.000000000000D+00 -.576233759724D-06 0.870230657194D-06 0.000000000000D+00  7 -2 21 23 -11 11 23 -2 2 0.88238084D-01 0.82819789D-01 0.90941535D+05 0.90941535D+05 0.90941535D+05 0.11251219D+01  1  2  5  4  7  2        2 0.166486437855D-05 0.100000000000D+01
  </mgrwgt>
  </event>
  <event>
  8     66 0.27870365E-05 0.36892946E+03 0.75467711E-02 0.86493035E-01
       -2 -1    0    0    0  501 0.00000000E+00 0.00000000E+00 0.15302101E+04 0.15302102E+04 0.32000000E+00 0.0000E+00 0.9000E+01
        2 -1    0    0  501    0 0.00000000E+00 0.00000000E+00 -.11776914E+04 0.11776915E+04 0.32000000E+00 0.0000E+00 0.9000E+01
       25  2    1    2    0    0 0.29036774E+03 0.77999377E+03 0.12165356E+04 0.15047624E+04 0.30273307E+03 0.0000E+00 0.0000E+00
       23  2    3    3    0    0 0.16898662E+03 0.47189139E+03 0.51896770E+03 0.72721711E+03 0.90990638E+02 0.0000E+00 0.0000E+00
       23  1    1    2    0    0 -.29036774E+03 -.77999377E+03 -.86401684E+03 0.12031392E+04 0.91188000E+02 0.0000E+00 0.9000E+01
      -13  1    4    4    0    0 0.37349165E+02 0.60434612E+02 0.11841842E+03 0.13809503E+03 0.10565837E+00 0.0000E+00 0.9000E+01
       13  1    4    4    0    0 0.13163745E+03 0.41145678E+03 0.40054928E+03 0.58912209E+03 0.10565837E+00 0.0000E+00 0.9000E+01
       23  1    3    3    0    0 0.12138112E+03 0.30810238E+03 0.69756785E+03 0.77754525E+03 0.91188000E+02 0.0000E+00 0.9000E+01
#aMCatNLO 1  0  0  2  1 0.48289234D+03 0.00000000D+00  -5  7  0 0.00000000D+00 0.00000000D+00 0.00000000D+00 0.00000000D+00 0.00000000D+00
  <mgrwgt>
 0.6865132412D-03    9    2    0
 0.134242892628371D+04 0.000000000000000D+00 0.000000000000000D+00 0.134242892628371D+04
 0.134242892628371D+04 0.000000000000000D+00 0.000000000000000D+00 -.134242892628371D+04
 0.132691002980845D+04 -.290367735594869D+03 -.779993768306195D+03 -.102940335893724D+04
 0.123731511283832D+03 0.373490377423809D+02 0.604341390170794D+02 0.101302769486148D+03
 0.541587349648802D+03 0.131637581013053D+03 0.411457251366198D+03 0.326636395496306D+03
 0.692628961826337D+03 0.121381116839435D+03 0.308102377922918D+03 0.601464193954789D+03
 0.000000000000000D+00 0.000000000000000D+00 0.000000000000000D+00 -.000000000000000D+00
 0.146609680166263D+04 0.000000000000000D+00 0.000000000000000D+00 0.146609680166263D+04
 0.193478626498975D+04 0.000000000000000D+00 0.000000000000000D+00 -.193478626498975D+04
 0.149764120681089D+04 -.364396414064002D+03 -.102086135739384D+04 -.102940335893724D+04
 0.113353490525546D+03 0.311352756617868D+02 0.402163812174321D+02 0.101302769486148D+03
 0.472583740502024D+03 0.105057165486470D+03 0.324972381755764D+03 0.326636395496306D+03
 0.644359739519432D+03 0.863399728142868D+02 0.194088781371554D+03 0.601464193954789D+03
 0.672944889294497D+03 0.141864000101459D+03 0.461583813049086D+03 -.468689463327118D+03
0.478363502375D-02 0.000000000000D+00 0.000000000000D+00 0.806826608039D-06 0.000000000000D+00  7 -2 2 23 -13 13 23 21 0 0.23541695D+00 0.18118330D+00 0.70878746D+06 0.70878746D+06 0.70878746D+06 0.10579620D+01  1  2  2  2  7  2        2 0.818848128807D-03 0.100000000000D+01
-.195414645382D-03 0.000000000000D+00 -.183704180512D-04 0.806826608039D-06 0.000000000000D+00  7 -2 2 23 -13 13 23 21 2 0.23541695D+00 0.18118330D+00 0.70878746D+06 0.70878746D+06 0.70878746D+06 0.10579620D+01  1  2  3  2  7  2        2 -.374405772272D-04 0.100000000000D+01
0.294680157511D-03 0.000000000000D+00 0.000000000000D+00 0.806826608039D-06 0.000000000000D+00  7 -2 2 23 -13 13 23 21 2 0.23541695D+00 0.18118330D+00 0.70878746D+06 0.70878746D+06 0.70878746D+06 0.10579620D+01  1  2 15  2  7  2        2 0.564594080094D-04 0.100000000000D+01
0.218285197126D-02 0.000000000000D+00 0.000000000000D+00 0.806826608039D-06 0.000000000000D+00  7 -2 2 23 -13 13 23 21 2 0.23541695D+00 0.26658422D+00 0.12036642D+07 0.12036642D+07 0.12036642D+07 0.10425467D+01  1  2 12  2  7  2        2 0.188719238388D-03 0.100000000000D+01
-.474448971977D-02 0.000000000000D+00 0.000000000000D+00 0.806826608039D-06 0.000000000000D+00  7 -2 2 23 -13 13 23 21 2 0.23541695D+00 0.18118330D+00 0.70878746D+06 0.70878746D+06 0.70878746D+06 0.10579620D+01  1  2  4  2  7  2        2 -.909023135958D-03 0.100000000000D+01
-.480968253827D-02 0.000000000000D+00 -.176915638206D-02 0.806826608039D-06 0.000000000000D+00  7 -2 2 23 -13 13 23 21 2 0.23541695D+00 0.27114501D+00 0.70878746D+06 0.70878746D+06 0.70878746D+06 0.10579620D+01  1  2  5  2  7  2        2 -.430957347748D-03 0.100000000000D+01
0.522699833542D-02 0.000000000000D+00 0.163452189135D-02 0.806826608039D-06 0.000000000000D+00  7 -2 2 23 -13 13 23 21 2 0.23541695D+00 0.18118330D+00 0.70878746D+06 0.70878746D+06 0.70878746D+06 0.10579620D+01  1  2  6  2  7  2        2 0.100146964145D-02 0.100000000000D+01
0.101265036110D-03 0.000000000000D+00 0.000000000000D+00 0.806826608039D-06 0.000000000000D+00  7 -2 21 23 -13 13 23 -2 2 0.23541695D+00 0.26658422D+00 0.12036642D+07 0.12036642D+07 0.12036642D+07 0.10425467D+01  1  2 12  4  7  2        2 0.218218538256D-05 0.100000000000D+01
-.169232372436D-03 0.000000000000D+00 -.846972298475D-04 0.806826608039D-06 0.000000000000D+00  7 -2 21 23 -13 13 23 -2 2 0.23541695D+00 0.27114501D+00 0.70878746D+06 0.70878746D+06 0.70878746D+06 0.10579620D+01  1  2  5  4  7  2        2 -.374429985939D-05 0.100000000000D+01
  </mgrwgt>
  </event>
  <event>
  8     66 0.27870365E-05 0.14176496E+04 0.75467711E-02 0.78703347E-01
       -2 -1    0    0    0  501 0.00000000E+00 0.00000000E+00 0.90547820E+03 0.90547826E+03 0.32000000E+00 0.0000E+00 0.9000E+01
        2 -1    0    0  501    0 0.00000000E+00 0.00000000E+00 -.22292080E+04 0.22292081E+04 0.32000000E+00 0.0000E+00 0.9000E+01
       25  2    1    2    0    0 0.12854845E+04 0.56193498E+03 -.63292431E+03 0.15682353E+04 0.30087778E+03 0.0000E+00 0.0000E+00
       23  2    3    3    0    0 0.40220081E+03 0.27922000E+03 -.28288402E+03 0.57276491E+03 0.91142592E+02 0.0000E+00 0.0000E+00
       23  1    1    2    0    0 -.12854845E+04 -.56193498E+03 -.69080554E+03 0.15664510E+04 0.91188000E+02 0.0000E+00 0.9000E+01
      -11  1    4    4    0    0 0.41329488E+02 0.67382195E+02 -.35473095E+02 0.86641949E+02 0.51099893E-03 0.0000E+00 0.9000E+01
       11  1    4    4    0    0 0.36087132E+03 0.21183781E+03 -.24741093E+03 0.48612296E+03 0.51099893E-03 0.0000E+00 0.9000E+01
       23  1    3    3    0    0 0.88328368E+03 0.28271498E+03 -.35004029E+03 0.99547038E+03 0.91188000E+02 0.0000E+00 0.9000E+01
#aMCatNLO 1  0  0  1  1 0.19838347D+04 0.00000000D+00  -5  7  0 0.00000000D+00 0.00000000D+00 0.00000000D+00 0.00000000D+00 0.00000000D+00
  <mgrwgt>
 0.3278483646D-03    5    2    0
 0.142073903807893D+04 0.000000000000000D+00 0.000000000000000D+00 0.142073903807893D+04
 0.142073903807893D+04 0.000000000000000D+00 0.000000000000000D+00 -.142073903807893D+04
 0.140627259006498D+04 -.128548449144534D+04 -.561934984749053D+03 -.323425631741461D+02
 0.790569317668785D+02 0.413294882407930D+02 0.673821954895792D+02 0.122946864586707D+01
 0.421026573089679D+03 0.360871322744105D+03 0.211837808180479D+03 -.464758721687923D+02
 0.935121981236328D+03 0.883283680460440D+03 0.282714981078995D+03 0.775889666970713D+02
 0.000000000000000D+00 0.000000000000000D+00 0.000000000000000D+00 0.000000000000000D+00
 0.295490687053235D+04 0.000000000000000D+00 0.000000000000000D+00 0.295490687053235D+04
 0.253779111016981D+04 0.000000000000000D+00 0.000000000000000D+00 -.253779111016981D+04
 0.262514810793732D+04 -.217717815060142D+04 -.146353564917770D+04 -.323425631741461D+02
 0.426792927038031D+02 0.144031445069576D+02 0.401566913584452D+02 0.122946864586707D+01
 0.231162280365139D+03 0.216616304783286D+03 0.659800702621315D+02 -.464758721687923D+02
 0.566496983352984D+03 0.551146647514132D+03 -.531122018451921D+02 0.775889666970713D+02
 0.202721131634291D+04 0.139501205379705D+04 0.141051108940231D+04 0.417115760362533D+03
0.161413359588D-02 0.000000000000D+00 0.000000000000D+00 0.263811384822D-05 0.000000000000D+00  7 -2 2 23 -11 11 23 21 0 0.13930434D+00 0.34295509D+00 0.20097302D+07 0.20097302D+07 0.20097302D+07 0.10282620D+01  1  2  2  1  7  1       -2 0.324910641441D-03 0.100000000000D+01
-.896735719607D-04 0.000000000000D+00 -.619869801932D-05 0.263811384822D-05 0.000000000000D+00  7 -2 2 23 -11 11 23 21 2 0.13930434D+00 0.34295509D+00 0.20097302D+07 0.20097302D+07 0.20097302D+07 0.10282620D+01  1  2  3  1  7  1       -2 -.190851909213D-04 0.100000000000D+01
0.100411259114D-03 0.000000000000D+00 0.000000000000D+00 0.263811384822D-05 0.000000000000D+00  7 -2 2 23 -11 11 23 21 2 0.13930434D+00 0.34295509D+00 0.20097302D+07 0.20097302D+07 0.20097302D+07 0.10282620D+01  1  2 15  1  7  1       -2 0.213704886393D-04 0.100000000000D+01
0.209931205140D-03 0.000000000000D+00 -.472216215690D-03 0.263811384822D-05 0.000000000000D+00  7 -2 2 23 -11 11 23 21 2 0.45621031D+00 0.34295509D+00 0.20097302D+07 0.20097302D+07 0.20097302D+07 0.10282620D+01  1  2  5  1  7  1       -2 0.229449817073D-06 0.100000000000D+01
0.479390387063D-04 0.000000000000D+00 -.647852370377D-04 0.263811384822D-05 0.000000000000D+00  7 21 2 23 -11 11 23 2 2 0.45621031D+00 0.34295509D+00 0.20097302D+07 0.20097302D+07 0.20097302D+07 0.10282620D+01  1  2  5  3  7  1       -2 0.422975625548D-06 0.100000000000D+01
  </mgrwgt>
  </event>
  <event>
  8     66 0.27870365E-05 0.16444747E+03 0.75467711E-02 0.95711937E-01
       -2 -1    0    0    0  501 0.00000000E+00 0.00000000E+00 0.11178753E+03 0.11178798E+03 0.32000000E+00 0.0000E+00 0.9000E+01
        2 -1    0    0  501    0 0.00000000E+00 0.00000000E+00 -.17020601E+04 0.17020601E+04 0.32000000E+00 0.0000E+00 0.9000E+01
       25  2    1    2    0    0 -.27204491E+03 -.25697363E+03 -.99631079E+03 0.11059288E+04 0.30066503E+03 0.0000E+00 0.0000E+00
       23  2    3    3    0    0 -.19820913E+03 -.57718623E+02 -.33491574E+03 0.40527701E+03 0.97275914E+02 0.0000E+00 0.0000E+00
       23  1    1    2    0    0 0.27204491E+03 0.25697363E+03 -.59396174E+03 0.70791927E+03 0.91188000E+02 0.0000E+00 0.9000E+01
      -13  1    4    4    0    0 -.69523026E+02 0.24048088E+02 -.83887097E+02 0.11157427E+03 0.10565837E+00 0.0000E+00 0.9000E+01
       13  1    4    4    0    0 -.12868610E+03 -.81766711E+02 -.25102865E+03 0.29370274E+03 0.10565837E+00 0.0000E+00 0.9000E+01
       23  1    3    3    0    0 -.73835780E+02 -.19925501E+03 -.66139504E+03 0.70065179E+03 0.91188000E+02 0.0000E+00 0.9000E+01
#aMCatNLO 1  0  0  2  1 0.65948171D+02 0.00000000D+00  -5  7  0 0.00000000D+00 0.00000000D+00 0.00000000D+00 0.00000000D+00 0.00000000D+00
  <mgrwgt>
 0.5763027637D-03    9    2    0
 0.436198953394138D+03 0.000000000000000D+00 0.000000000000000D+00 0.436198953394138D+03
 0.436198953394138D+03 0.000000000000000D+00 0.000000000000000D+00 -.436198953394138D+03
 0.389153787044813D+03 0.272044909459612D+03 0.256973634802547D+03 0.555115923100589D+02
 0.790640983844205D+02 -.695229574491013D+02 0.240482099866631D+02 0.289719456942251D+02
 0.153058899479677D+03 -.128686171227386D+03 -.817668289207422D+02 0.134566612877036D+02
 0.251121121879366D+03 -.738357807831248D+02 -.199255015868468D+03 -.979401992919875D+02
 0.000000000000000D+00 -.000000000000000D+00 -.000000000000000D+00 -.000000000000000D+00
 0.449643523763566D+03 0.000000000000000D+00 0.000000000000000D+00 0.449643523763566D+03
 0.526565496970468D+03 0.000000000000000D+00 0.000000000000000D+00 -.526565496970468D+03
 0.416581495674775D+03 0.284951672431572D+03 0.284509927229762D+03 0.555115923100589D+02
 0.787052383653653D+02 -.669957112463537D+02 0.294400336860378D+02 0.289719456942251D+02
 0.143770177881750D+03 -.123931380631946D+03 -.716225886840027D+02 0.134566612877036D+02
 0.235830091624046D+03 -.660354969599029D+02 -.182613283403236D+03 -.979401992919875D+02
 0.101322017188098D+03 -.279890835933695D+02 -.597140888285609D+02 -.769219732069013D+02
0.110380407282D-04 0.000000000000D+00 0.000000000000D+00 0.131018770943D-07 0.000000000000D+00  7 -2 2 23 -13 13 23 21 0 0.17198119D-01 0.26185543D+00 0.17742622D+06 0.17742622D+06 0.17742622D+06 0.11018425D+01  1  2  2  2  7  2        2 0.360961742724D-03 0.100000000000D+01
-.612314086961D-06 0.000000000000D+00 -.423889827793D-07 0.131018770943D-07 0.000000000000D+00  7 -2 2 23 -13 13 23 21 2 0.17198119D-01 0.26185543D+00 0.17742622D+06 0.17742622D+06 0.17742622D+06 0.11018425D+01  1  2  3  2  7  2        2 -.243098625441D-04 0.100000000000D+01
0.695154215988D-06 0.000000000000D+00 0.000000000000D+00 0.131018770943D-07 0.000000000000D+00  7 -2 2 23 -13 13 23 21 2 0.17198119D-01 0.26185543D+00 0.17742622D+06 0.17742622D+06 0.17742622D+06 0.11018425D+01  1  2 15  2  7  2        2 0.275987500492D-04 0.100000000000D+01
0.242785682686D-04 0.000000000000D+00 0.000000000000D+00 0.131018770943D-07 0.000000000000D+00  7 -2 2 23 -13 13 23 21 2 0.17198119D-01 0.31956444D+00 0.20687186D+06 0.20687186D+06 0.20687186D+06 0.10967004D+01  1  2 12  2  7  2        2 0.594985118908D-03 0.100000000000D+01
-.246377979344D-04 0.000000000000D+00 0.000000000000D+00 0.131018770943D-07 0.000000000000D+00  7 -2 2 23 -13 13 23 21 2 0.17198119D-01 0.26185543D+00 0.17742622D+06 0.17742622D+06 0.17742622D+06 0.11018425D+01  1  2  4  2  7  2        2 -.978160545264D-03 0.100000000000D+01
-.385881016284D-04 0.000000000000D+00 -.636834808289D-05 0.131018770943D-07 0.000000000000D+00  7 -2 2 23 -13 13 23 21 2 0.17198119D-01 0.31959510D+00 0.17742622D+06 0.17742622D+06 0.17742622D+06 0.11018425D+01  1  2  5  2  7  2        2 -.959459629142D-03 0.100000000000D+01
0.392006260508D-04 0.000000000000D+00 0.624397734116D-05 0.131018770943D-07 0.000000000000D+00  7 -2 2 23 -13 13 23 21 2 0.17198119D-01 0.26185543D+00 0.17742622D+06 0.17742622D+06 0.17742622D+06 0.11018425D+01  1  2  6  2  7  2        2 0.155632844521D-02 0.100000000000D+01
0.692552352917D-06 0.000000000000D+00 0.000000000000D+00 0.131018770943D-07 0.000000000000D+00  7 -2 21 23 -13 13 23 -2 2 0.17198119D-01 0.31956444D+00 0.20687186D+06 0.20687186D+06 0.20687186D+06 0.10967004D+01  1  2 12  4  7  2        2 0.316199742194D-05 0.100000000000D+01
-.102826546395D-05 0.000000000000D+00 -.181725917898D-06 0.131018770943D-07 0.000000000000D+00  7 -2 21 23 -13 13 23 -2 2 0.17198119D-01 0.31959510D+00 0.17742622D+06 0.17742622D+06 0.17742622D+06 0.11018425D+01  1  2  5  4  7  2        2 -.480325361078D-05 0.100000000000D+01
  </mgrwgt>
  </event>
  <event>
  8     66 0.27870365E-05 0.11109595E+03 0.75467711E-02 0.10195537E+00
       -2 -1    0    0    0  501 0.00000000E+00 0.00000000E+00 0.85349263E+02 0.85349862E+02 0.32000000E+00 0.0000E+00 0.9000E+01
        2 -1    0    0  501    0 0.00000000E+00 0.00000000E+00 -.11172552E+04 0.11172552E+04 0.32000000E+00 0.0000E+00 0.9000E+01
       25  2    1    2    0    0 0.17141090E+03 0.49196635E+02 -.36227944E+03 0.50366526E+03 0.30104867E+03 0.0000E+00 0.0000E+00
       23  2    3    3    0    0 0.20252040E+03 0.94076486E+02 -.27556371E+03 0.36649066E+03 0.92277561E+02 0.0000E+00 0.0000E+00
       23  1    1    2    0    0 -.17141090E+03 -.49196635E+02 -.66962648E+03 0.69893982E+03 0.91188000E+02 0.0000E+00 0.9000E+01
      -13  1    4    4    0    0 0.12400254E+03 0.91964345E+02 -.22571412E+03 0.27346104E+03 0.10565837E+00 0.0000E+00 0.9000E+01
       13  1    4    4    0    0 0.78517867E+02 0.21121404E+01 -.49849597E+02 0.93029619E+02 0.10565837E+00 0.0000E+00 0.9000E+01
       23  1    3    3    0    0 -.31109503E+02 -.44879850E+02 -.86715724E+02 0.13717460E+03 0.91188000E+02 0.0000E+00 0.9000E+01
#aMCatNLO 1  0  0  1  2 0.94108415D+01 0.00000000D+00  -5  7  0 0.00000000D+00 0.00000000D+00 0.00000000D+00 0.00000000D+00 0.00000000D+00
  <mgrwgt>
 0.4662096113D-03    8    2    0
 0.308799763109348D+03 0.000000000000000D+00 0.000000000000000D+00 0.308799763109348D+03
 0.308799763109348D+03 0.000000000000000D+00 0.000000000000000D+00 -.308799763109348D+03
 0.242158645136326D+03 -.171410902359609D+03 -.491966358602536D+02 -.136101255110155D+03
 0.155359506654815D+03 0.124002594898935D+03 0.919644617354319D+02 0.173916803118673D+02
 0.978591308257242D+02 0.785178075182586D+02 0.211202314412879D+01 0.583686795013435D+02
 0.122222243601831D+03 -.311095000575851D+02 -.448798490193072D+02 0.603408952969438D+02
 0.000000000000000D+00 0.000000000000000D+00 0.000000000000000D+00 -.000000000000000D+00
 0.313301112796355D+03 0.000000000000000D+00 0.000000000000000D+00 0.313301112796355D+03
 0.313793841116737D+03 0.000000000000000D+00 0.000000000000000D+00 -.313793841116737D+03
 0.243861781878992D+03 -.172800405877654D+03 -.526287507276736D+02 -.136101255110155D+03
 0.153369548422398D+03 0.123119956877346D+03 0.897843196651859D+02 0.173916803118673D+02
 0.973916790150180D+02 0.779595970561162D+02 0.733226760105418D+00 0.583686795013435D+02
 0.123048212875395D+03 -.318107137169380D+02 -.466118675383310D+02 0.603408952969438D+02
 0.942373172128847D+01 0.353156566112917D+01 0.872307184071329D+01 -.492728320382030D+00
0.263542307934D-05 0.000000000000D+00 0.000000000000D+00 0.536115780973D-07 0.000000000000D+00  7 -2 2 23 -13 13 23 21 0 0.13130705D-01 0.17188546D+00 0.72767938D+05 0.72767938D+05 0.72767938D+05 0.11332307D+01  1  2  2  1  7  1       -2 0.282793057170D-03 0.100000000000D+01
-.143159503273D-06 0.000000000000D+00 -.101207185475D-07 0.536115780973D-07 0.000000000000D+00  7 -2 2 23 -13 13 23 21 2 0.13130705D-01 0.17188546D+00 0.72767938D+05 0.72767938D+05 0.72767938D+05 0.11332307D+01  1  2  3  1  7  1       -2 -.197276434373D-04 0.100000000000D+01
0.169817526678D-06 0.000000000000D+00 0.000000000000D+00 0.536115780973D-07 0.000000000000D+00  7 -2 2 23 -13 13 23 21 2 0.13130705D-01 0.17188546D+00 0.72767938D+05 0.72767938D+05 0.72767938D+05 0.11332307D+01  1  2 15  1  7  1       -2 0.234011682014D-04 0.100000000000D+01
0.222620049113D-05 0.000000000000D+00 0.000000000000D+00 0.536115780973D-07 0.000000000000D+00  7 -2 2 23 -13 13 23 21 2 0.13426672D-01 0.17188546D+00 0.75443668D+05 0.75443668D+05 0.75443668D+05 0.11319050D+01  1  2 12  1  7  1       -2 0.295436516229D-03 0.100000000000D+01
-.161373662809D-05 0.000000000000D+00 0.000000000000D+00 0.536115780973D-07 0.000000000000D+00  7 -2 2 23 -13 13 23 21 2 0.13130705D-01 0.17188546D+00 0.72767938D+05 0.72767938D+05 0.72767938D+05 0.11332307D+01  1  2  4  1  7  1       -2 -.222375881957D-03 0.100000000000D+01
0.197889698798D-09 0.000000000000D+00 0.000000000000D+00 0.536115780973D-07 0.413722992698D-08  7 -2 2 23 -13 13 23 21 2 0.13322111D-01 0.17466529D+00 0.75443668D+05 0.75443668D+05 0.75443668D+05 0.11319050D+01  1  2 11  1  7  1       -2 0.259566379911D-07 0.100000000000D+01
0.577528158858D-07 0.000000000000D+00 0.000000000000D+00 0.536115780973D-07 0.000000000000D+00  7 21 2 23 -13 13 23 2 2 0.13426672D-01 0.17188546D+00 0.75443668D+05 0.75443668D+05 0.75443668D+05 0.11319050D+01  1  2 12  3  7  1       -2 0.106654350788D-03 0.100000000000D+01
0.114212087363D-11 0.000000000000D+00 0.000000000000D+00 0.536115780973D-07 0.110177048370D-10  7 21 2 23 -13 13 23 2 2 0.13322111D-01 0.17466529D+00 0.75443668D+05 0.75443668D+05 0.75443668D+05 0.11319050D+01  1  2 11  3  7  1       -2 0.208765819035D-08 0.100000000000D+01
  </mgrwgt>
  </event>
  <event>
  8     66 0.27870365E-05 0.47561819E+03 0.75467711E-02 0.82541543E-01
       -2 -1    0    0    0  501 0.00000000E+00 0.00000000E+00 0.40726657E+03 0.40726669E+03 0.32000000E+00 0.0000E+00 0.9000E+01
        2 -1    0    0  501    0 0.00000000E+00 0.00000000E+00 -.13275520E+04 0.13275521E+04 0.32000000E+00 0.0000E+00 0.9000E+01
       25  2    1    2    0    0 -.44379595E+03 -.25448835E+02 0.16272509E+03 0.56058301E+03 0.30028547E+03 0.0000E+00 0.0000E+00
       23  2    3    3    0    0 -.93330329E+02 0.51023133E+02 0.12418292E+03 0.18846090E+03 0.93713402E+02 0.0000E+00 0.0000E+00
       23  1    1    2    0    0 0.44379595E+03 0.25448835E+02 -.10830106E+04 0.11742358E+04 0.91188000E+02 0.0000E+00 0.9000E+01
      -13  1    4    4    0    0 -.32832080E+02 -.16439597E+02 0.79192483E+02 0.87290700E+02 0.10565837E+00 0.0000E+00 0.9000E+01
       13  1    4    4    0    0 -.60498249E+02 0.67462730E+02 0.44990437E+02 0.10117020E+03 0.10565837E+00 0.0000E+00 0.9000E+01
       23  1    3    3    0    0 -.35046563E+03 -.76471968E+02 0.38542174E+02 0.37212211E+03 0.91188000E+02 0.0000E+00 0.9000E+01
#aMCatNLO 1  0  0  2  2 0.15706117D+04 0.00000000D+00  -5  7  0 0.00000000D+00 0.00000000D+00 0.00000000D+00 0.00000000D+00 0.00000000D+00
  <mgrwgt>
 0.4741158159D-03    5    2    0
 0.735301099592266D+03 0.000000000000000D+00 0.000000000000000D+00 0.735301099592266D+03
 0.735301099592266D+03 0.000000000000000D+00 0.000000000000000D+00 -.735301099592266D+03
 0.707470286088141D+03 0.443795954253184D+03 0.254488349875350D+02 -.542767410720208D+03
 0.152531559244908D+03 -.328320446263159D+02 -.164397039800132D+02 0.148046173690468D+03
 0.147501474201644D+03 -.604982840189798D+02 0.674628366683071D+02 0.116384742088825D+03
 0.463098879649838D+03 -.350465625607888D+03 -.764719676758289D+02 0.278336494940915D+03
 0.000000000000000D+00 0.000000000000000D+00 -.000000000000000D+00 -.000000000000000D+00
 0.134847318601047D+04 0.000000000000000D+00 0.000000000000000D+00 0.134847318601047D+04
 0.333761914052033D+04 0.000000000000000D+00 0.000000000000000D+00 -.333761914052033D+04
 0.891419785851608D+03 0.196504086819467D+03 0.673129753455495D+03 -.542767410720208D+03
 0.219272321696960D+03 -.903369836154440D+02 0.134171199999292D+03 0.148046173690468D+03
 0.306166400474156D+03 -.130664693762933D+03 0.251235336670735D+03 0.116384742088825D+03
 0.734766885538728D+03 -.535733185402681D+03 0.408761390523353D+03 0.278336494940915D+03
 0.253446693296934D+04 0.560230775961591D+03 -.146729768064887D+04 -.198914595450986D+04
0.942078321097D-04 0.000000000000D+00 0.000000000000D+00 0.597192492190D-06 0.000000000000D+00  7 -2 2 23 -13 13 23 21 0 0.62656408D-01 0.20423879D+00 0.22621267D+06 0.22621267D+06 0.22621267D+06 0.10937409D+01  1  2  2  2  7  2        2 0.464316047698D-03 0.100000000000D+01
-.402595275650D-05 0.000000000000D+00 -.361782880793D-06 0.597192492190D-06 0.000000000000D+00  7 -2 2 23 -13 13 23 21 2 0.62656408D-01 0.20423879D+00 0.22621267D+06 0.22621267D+06 0.22621267D+06 0.10937409D+01  1  2  3  2  7  2        2 -.237369154816D-04 0.100000000000D+01
0.568787983096D-05 0.000000000000D+00 0.000000000000D+00 0.597192492190D-06 0.000000000000D+00  7 -2 2 23 -13 13 23 21 2 0.62656408D-01 0.20423879D+00 0.22621267D+06 0.22621267D+06 0.22621267D+06 0.10937409D+01  1  2 15  2  7  2        2 0.335355954188D-04 0.100000000000D+01
0.325760343770D-04 0.000000000000D+00 -.320269068002D-04 0.597192492190D-06 0.000000000000D+00  7 -2 2 23 -13 13 23 21 2 0.62656408D-01 0.94328520D+00 0.22621267D+06 0.22621267D+06 0.22621267D+06 0.10937409D+01  1  2  5  2  7  2        2 0.108788191114D-08 0.100000000000D+01
0.560789874434D-05 0.000000000000D+00 -.593878526479D-05 0.597192492190D-06 0.000000000000D+00  7 -2 21 23 -13 13 23 -2 2 0.62656408D-01 0.94328520D+00 0.22621267D+06 0.22621267D+06 0.22621267D+06 0.10937409D+01  1  2  5  4  7  2        2 0.422524114778D-12 0.100000000000D+01
  </mgrwgt>
  </event>
  <event>
  8     66 0.27870365E-05 0.46323061E+03 0.75467711E-02 0.89577525E-01
       -2 -1    0    0    0  501 0.00000000E+00 0.00000000E+00 0.18010926E+03 0.18010954E+03 0.32000000E+00 0.0000E+00 0.9000E+01
        2 -1    0    0  501    0 0.00000000E+00 0.00000000E+00 -.28161697E+04 0.28161697E+04 0.32000000E+00 0.0000E+00 0.9000E+01
       25  2    1    2    0    0 -.39531322E+03 -.16492947E+03 -.24749068E+04 0.25296316E+04 0.30066262E+03 0.0000E+00 0.0000E+00
       23  2    3    3    0    0 -.19584198E+03 -.22558108E+01 -.15610747E+04 0.15758728E+04 0.89786597E+02 0.0000E+00 0.0000E+00
       23  1    1    2    0    0 0.39531322E+03 0.16492947E+03 -.16115360E+03 0.46664763E+03 0.91188000E+02 0.0000E+00 0.9000E+01
      -13  1    4    4    0    0 -.90533855E+02 -.45846829E+02 -.73712427E+03 0.74407696E+03 0.10565837E+00 0.0000E+00 0.9000E+01
       13  1    4    4    0    0 -.10530812E+03 0.43591018E+02 -.82395046E+03 0.83179586E+03 0.10565837E+00 0.0000E+00 0.9000E+01
       23  1    3    3    0    0 -.19947125E+03 -.16267366E+03 -.91383210E+03 0.95375880E+03 0.91188000E+02 0.0000E+00 0.9000E+01
#aMCatNLO 1  0  0  1  2 0.52509565D+03 0.00000000D+00  -5  7  0 0.00000000D+00 0.00000000D+00 0.00000000D+00 0.00000000D+00 0.00000000D+00
  <mgrwgt>
 0.4977897828D-03    3    2    0
 0.712192867961711D+03 0.000000000000000D+00 0.000000000000000D+00 0.712192867961711D+03
 0.712192867961711D+03 0.000000000000000D+00 0.000000000000000D+00 -.712192867961711D+03
 0.683379478243808D+03 0.395313223384478D+03 0.164929473667072D+03 0.524612222574023D+03
 0.201039758331927D+03 -.905338350196140D+02 -.458469525789179D+02 -.173547302157157D+03
 0.224875537185067D+03 -.105308141383636D+03 0.435911417697913D+02 -.193853075657320D+03
 0.315090962162620D+03 -.199471246981227D+03 -.162673662857945D+03 -.157211844759546D+03
 0.000000000000000D+00 0.000000000000000D+00 -.000000000000000D+00 -.000000000000000D+00
 0.916500815612628D+03 0.000000000000000D+00 0.000000000000000D+00 0.916500815612628D+03
 0.119682905123961D+04 0.000000000000000D+00 0.000000000000000D+00 -.119682905123961D+04
 0.705662256770162D+03 0.268008149352406D+03 0.377620996625719D+03 0.524612222574023D+03
 0.216903975154118D+03 -.128838197366327D+03 0.181490289279129D+02 -.173547302157157D+03
 0.273395664932930D+03 -.150974481476033D+03 0.119886949270382D+03 -.193853075657320D+03
 0.322129062766439D+03 -.257872186566745D+03 -.651018663125041D+02 -.157211844759546D+03
 0.595238907228585D+03 0.269676716056699D+03 -.450555108511511D+03 -.280328235626979D+03
0.142363054317D-03 0.000000000000D+00 0.000000000000D+00 0.698049513195D-06 0.000000000000D+00  7 -2 2 23 -13 13 23 21 0 0.27709140D-01 0.43325690D+00 0.21458260D+06 0.21458260D+06 0.21458260D+06 0.10954856D+01  1  2  2  1  7  1       -2 0.487547998289D-03 0.100000000000D+01
-.612998816645D-05 0.000000000000D+00 -.546711613630D-06 0.698049513195D-06 0.000000000000D+00  7 -2 2 23 -13 13 23 21 2 0.27709140D-01 0.43325690D+00 0.21458260D+06 0.21458260D+06 0.21458260D+06 0.10954856D+01  1  2  3  1  7  1       -2 -.251937660914D-04 0.100000000000D+01
0.862195453809D-05 0.000000000000D+00 0.000000000000D+00 0.698049513195D-06 0.000000000000D+00  7 -2 2 23 -13 13 23 21 2 0.27709140D-01 0.43325690D+00 0.21458260D+06 0.21458260D+06 0.21458260D+06 0.10954856D+01  1  2 15  1  7  1       -2 0.354355506055D-04 0.100000000000D+01
  </mgrwgt>
  </event>
  <event>
  8     66 0.27870365E-05 0.36067110E+03 0.75467711E-02 0.91479506E-01
       21 -1    0    0  502  501 0.00000000E+00 0.00000000E+00 0.57799023E+03 0.57799071E+03 0.75000000E+00 0.0000E+00 0.9000E+01
        2 -1    0    0  501    0 0.00000000E+00 0.00000000E+00 -.15633472E+04 0.15633472E+04 0.32000000E+00 0.0000E+00 0.9000E+01
       23  2    1    2    0    0 0.49780700E+02 0.12922276E+03 -.37671101E+03 0.41811198E+03 0.11717425E+03 0.0000E+00 0.0000E+00
       23  1    1    2    0    0 0.52561880E+02 -.21743311E+03 -.18445302E+03 0.30393762E+03 0.91188000E+02 0.0000E+00 0.9000E+01
      -11  1    3    3    0    0 0.94107261E+01 -.12072769E+02 -.17783229E+01 0.15410254E+02 0.51099893E-03 0.0000E+00 0.9000E+01
       11  1    3    3    0    0 0.40369974E+02 0.14129553E+03 -.37493269E+03 0.40270173E+03 0.51099893E-03 0.0000E+00 0.9000E+01
       23  1    1    2    0    0 0.32181356E+03 0.30480552E+03 -.72597440E+03 0.85546739E+03 0.91188000E+02 0.0000E+00 0.9000E+01
        2  1    1    2  502    0 -.42415614E+03 -.21659518E+03 0.30178147E+03 0.56382095E+03 0.32000000E+00 0.0000E+00 0.9000E+01
#aMCatNLO 2  0  0  1  2 0.47625823D+03 0.00000000D+00  -5  7  0 0.00000000D+00 0.00000000D+00 0.00000000D+00 0.00000000D+00 0.00000000D+00
  <mgrwgt>
 0.9363537368D-03    1    2    0
 0.388912783828422D+03 0.000000000000000D+00 0.000000000000000D+00 0.388912783828422D+03
 0.388912783828422D+03 0.000000000000000D+00 0.000000000000000D+00 -.388912783828422D+03
 0.343072682414257D+03 -.100161707870202D+03 -.295421353272997D+03 0.109897544930670D+03
 0.265410103910307D+02 -.331126368355861D+01 -.185692478230525D+02 0.186720058022914D+02
 0.134929280127727D+03 -.355146192590861D+02 0.102545090587946D+03 -.801818361661716D+02
 0.273282594723830D+03 0.138987590812847D+03 0.211445510508104D+03 -.483877145667899D+02
 0.000000000000000D+00 -.000000000000000D+00 -.000000000000000D+00 0.000000000000000D+00
 0.181540947735826D+04 0.000000000000000D+00 0.000000000000000D+00 0.181540947735826D+04
 0.497738886910821D+03 0.000000000000000D+00 0.000000000000000D+00 -.497738886910821D+03
 0.265391464802218D+03 0.525618801669625D+02 -.217433108374488D+03 0.109897544930670D+03
 0.241445086607558D+02 0.941072555200584D+01 -.120727686291643D+02 0.186720058022914D+02
 0.167401577937835D+03 0.403699725107891D+02 0.141295529881792D+03 -.801818361661716D+02
 0.455112070894946D+03 0.321813559030253D+03 0.304805524939381D+03 -.483877145667899D+02
 0.140109874197332D+04 -.424156137260010D+03 -.216595177817520D+03 0.131767059044743D+04
0.538772215916D-04 0.000000000000D+00 0.000000000000D+00 0.112286676719D-11 0.251476286124D-16  7 21 2 23 -11 11 23 2 2 0.88921610D-01 0.24051498D+00 0.44396611D+06 0.44396611D+06 0.44396611D+06 0.10721779D+01  1  2  1  3  7  1       -2 0.936353736828D-03 0.100000000000D+01
  </mgrwgt>
  </event>
  <event>
  8     66 0.27870365E-05 0.25793389E+03 0.75467711E-02 0.98897590E-01
       -4 -1    0    0    0  501 0.00000000E+00 0.00000000E+00 0.57842811E+02 0.57863575E+02 0.15500000E+01 0.0000E+00 0.9000E+01
        4 -1    0    0  501    0 0.00000000E+00 0.00000000E+00 -.12343798E+04 0.12343808E+04 0.15500000E+01 0.0000E+00 0.9000E+01
       25  2    1    2    0    0 -.78518653E+02 0.14853808E+03 -.76300858E+03 0.83666808E+03 0.29933701E+03 0.0000E+00 0.0000E+00
       23  2    3    3    0    0 -.12579542E+03 0.16776565E+03 -.60587245E+03 0.64795717E+03 0.93793758E+02 0.0000E+00 0.0000E+00
       23  1    1    2    0    0 0.78518653E+02 -.14853808E+03 -.41352841E+03 0.45557627E+03 0.91188000E+02 0.0000E+00 0.9000E+01
      -13  1    4    4    0    0 -.29589719E+02 0.95219812E+02 -.36852657E+03 0.38177770E+03 0.10565837E+00 0.0000E+00 0.9000E+01
       13  1    4    4    0    0 -.96205704E+02 0.72545836E+02 -.23734588E+03 0.26617947E+03 0.10565837E+00 0.0000E+00 0.9000E+01
       23  1    3    3    0    0 0.47276771E+02 -.19227570E+02 -.15713613E+03 0.18871091E+03 0.91188000E+02 0.0000E+00 0.9000E+01
#aMCatNLO 1  0  0  1  2 0.15751177D+03 0.00000000D+00  -5  7  0 0.00000000D+00 0.00000000D+00 0.00000000D+00 0.00000000D+00 0.00000000D+00
  <mgrwgt>
 0.6030048415D-05    3    2    0
 0.267234059142924D+03 0.000000000000000D+00 0.000000000000000D+00 0.267234059142924D+03
 0.267234059142924D+03 0.000000000000000D+00 0.000000000000000D+00 -.267234059142924D+03
 0.191188931780776D+03 0.785186531327893D+02 -.148538078744887D+03 0.303587952076979D+01
 0.111821300736409D+03 -.295896407734303D+02 0.952198394263678D+02 -.506126331749142D+02
 0.121097444175233D+03 -.962057856566145D+02 0.725458106642753D+02 0.120889679886416D+02
 0.110360441593430D+03 0.472767732972556D+02 -.192275713457563D+02 0.354877856655028D+02
 0.000000000000000D+00 -.000000000000000D+00 -.000000000000000D+00 -.000000000000000D+00
 0.305514393365662D+03 0.000000000000000D+00 0.000000000000000D+00 0.305514393365662D+03
 0.509027983352562D+03 0.000000000000000D+00 0.000000000000000D+00 -.509027983352562D+03
 0.204628659021725D+03 0.131580408843060D+03 -.127416702960241D+03 0.303587952076979D+01
 0.118852356380443D+03 0.133356609545373D+01 0.107528905796323D+03 -.506126331749142D+02
 0.107811323390876D+03 -.655191729674061D+02 0.847607000792746D+02 0.120889679886416D+02
 0.125902533793948D+03 0.789492622787823D+02 -.662025119851879D+01 0.354877856655028D+02
 0.257347504131233D+03 -.146344064249890D+03 -.582526517168377D+02 -.203513589986900D+03
0.272065291026D-05 0.000000000000D+00 0.000000000000D+00 0.155030219551D-07 0.000000000000D+00  7 -4 4 23 -13 13 23 21 0 0.89005661D-02 0.18990626D+00 0.66529889D+05 0.66529889D+05 0.66529889D+05 0.11365415D+01  1  2  2  1  7  1       -4 0.596387425889D-05 0.100000000000D+01
-.150916805492D-06 0.000000000000D+00 -.104480235398D-07 0.155030219551D-07 0.000000000000D+00  7 -4 4 23 -13 13 23 21 2 0.89005661D-02 0.18990626D+00 0.66529889D+05 0.66529889D+05 0.66529889D+05 0.11365415D+01  1  2  3  1  7  1       -4 -.427330183408D-06 0.100000000000D+01
0.174287006289D-06 0.000000000000D+00 0.000000000000D+00 0.155030219551D-07 0.000000000000D+00  7 -4 4 23 -13 13 23 21 2 0.89005661D-02 0.18990626D+00 0.66529889D+05 0.66529889D+05 0.66529889D+05 0.11365415D+01  1  2 15  1  7  1       -4 0.493504339166D-06 0.100000000000D+01
  </mgrwgt>
  </event>
  <event>
  8     66 0.27870365E-05 0.25315454E+03 0.75467711E-02 0.97891823E-01
       -2 -1    0    0    0  501 0.00000000E+00 0.00000000E+00 0.19874682E+03 0.19874708E+03 0.32000000E+00 0.0000E+00 0.9000E+01
        2 -1    0    0  501    0 0.00000000E+00 0.00000000E+00 -.12293953E+04 0.12293953E+04 0.32000000E+00 0.0000E+00 0.9000E+01
       25  2    1    2    0    0 -.33482687E+03 -.27660176E+02 -.97318091E+03 0.10753083E+04 0.31037533E+03 0.0000E+00 0.0000E+00
       23  2    3    3    0    0 -.28772663E+03 -.55141676E+01 -.45336928E+03 0.54499876E+03 0.93074824E+02 0.0000E+00 0.0000E+00
       23  1    1    2    0    0 0.33482687E+03 0.27660176E+02 -.57467577E+02 0.35283409E+03 0.91188000E+02 0.0000E+00 0.9000E+01
      -11  1    4    4    0    0 -.12669164E+03 0.33964642E+02 -.14986296E+03 0.19915641E+03 0.51099893E-03 0.0000E+00 0.9000E+01
       11  1    4    4    0    0 -.16103500E+03 -.39478809E+02 -.30350632E+03 0.34584236E+03 0.51099893E-03 0.0000E+00 0.9000E+01
       23  1    3    3    0    0 -.47100235E+02 -.22146008E+02 -.51981162E+03 0.53030958E+03 0.91188000E+02 0.0000E+00 0.9000E+01
#aMCatNLO 1  0  0  2  1 0.71348727D+01 0.00000000D+00  -5  7  0 0.00000000D+00 0.00000000D+00 0.00000000D+00 0.00000000D+00 0.00000000D+00
  <mgrwgt>
 0.5499693362D-03   11    2    0
 0.494306207236103D+03 0.000000000000000D+00 0.000000000000000D+00 0.494306207236103D+03
 0.494306207236103D+03 0.000000000000000D+00 0.000000000000000D+00 -.494306207236103D+03
 0.449790484613443D+03 0.334826869626960D+03 0.276601759693415D+02 0.284819435337465D+03
 0.131464750441351D+03 -.126691638418875D+03 0.339646416975221D+02 -.886636778543733D+01
 0.183189900833645D+03 -.161034996254640D+03 -.394788093560476D+02 -.778954001243810D+02
 0.224167278583768D+03 -.471002349534442D+02 -.221460083108160D+02 -.198057667427646D+03
 0.000000000000000D+00 0.000000000000000D+00 0.000000000000000D+00 -.000000000000000D+00
 0.497385236808309D+03 0.000000000000000D+00 0.000000000000000D+00 0.497385236808309D+03
 0.498469749628939D+03 0.000000000000000D+00 0.000000000000000D+00 -.498469749628939D+03
 0.447487909905944D+03 0.331826504628302D+03 0.264431134362347D+02 0.284819435337465D+03
 0.132223320976836D+03 -.127573371964316D+03 0.336069769257963D+02 -.886636778543733D+01
 0.184378738566999D+03 -.162264090911325D+03 -.399773770492987D+02 -.778954001243810D+02
 0.224548191080493D+03 -.486006724963075D+02 -.227546430327590D+02 -.198057667427646D+03
 0.721682590697573D+01 0.661163074364598D+01 0.268192972002671D+01 -.108451282062905D+01
0.802988205634D-05 0.000000000000D+00 0.000000000000D+00 0.135791322250D-08 0.000000000000D+00  7 -2 2 23 -11 11 23 21 0 0.30576457D-01 0.18913776D+00 0.14065783D+06 0.14065783D+06 0.14065783D+06 0.11097625D+01  1  2  2  2  7  2        2 0.180880011059D-03 0.100000000000D+01
-.404753173109D-06 0.000000000000D+00 -.308368614129D-07 0.135791322250D-08 0.000000000000D+00  7 -2 2 23 -11 11 23 21 2 0.30576457D-01 0.18913776D+00 0.14065783D+06 0.14065783D+06 0.14065783D+06 0.11097625D+01  1  2  3  2  7  2        2 -.112287595525D-04 0.100000000000D+01
0.492632612526D-06 0.000000000000D+00 0.000000000000D+00 0.135791322250D-08 0.000000000000D+00  7 -2 2 23 -11 11 23 21 2 0.30576457D-01 0.18913776D+00 0.14065783D+06 0.14065783D+06 0.14065783D+06 0.11097625D+01  1  2 15  2  7  2        2 0.136667320266D-04 0.100000000000D+01
0.293360577241D-05 0.000000000000D+00 0.000000000000D+00 0.135791322250D-08 0.000000000000D+00  7 -2 2 23 -11 11 23 21 2 0.30576457D-01 0.19131563D+00 0.14330991D+06 0.14330991D+06 0.14330991D+06 0.11091190D+01  1  2 12  2  7  2        2 0.797628972834D-04 0.100000000000D+01
-.553501170866D-05 0.000000000000D+00 0.000000000000D+00 0.135791322250D-08 0.000000000000D+00  7 -2 2 23 -11 11 23 21 2 0.30576457D-01 0.18913776D+00 0.14065783D+06 0.14065783D+06 0.14065783D+06 0.11097625D+01  1  2  4  2  7  2        2 -.153553621630D-03 0.100000000000D+01
-.636773417257D-03 0.000000000000D+00 -.731173359799D-04 0.135791322250D-08 0.000000000000D+00  7 -2 2 23 -11 11 23 21 2 0.30576457D-01 0.19149899D+00 0.14065783D+06 0.14065783D+06 0.14065783D+06 0.11097625D+01  1  2  5  2  7  2        2 -.173152991695D-01 0.100000000000D+01
0.637637126097D-03 0.000000000000D+00 0.731117088367D-04 0.135791322250D-08 0.000000000000D+00  7 -2 2 23 -11 11 23 21 2 0.30576457D-01 0.18913776D+00 0.14065783D+06 0.14065783D+06 0.14065783D+06 0.11097625D+01  1  2  6  2  7  2        2 0.176894820014D-01 0.100000000000D+01
0.307022453835D-05 0.000000000000D+00 0.000000000000D+00 0.135791322250D-08 0.175015098607D-09  7 -2 2 23 -11 11 23 21 2 0.30766918D-01 0.19073087D+00 0.14330991D+06 0.14330991D+06 0.14330991D+06 0.11091190D+01  1  2 11  2  7  2        2 0.829745821897D-04 0.100000000000D+01
0.221737259135D-06 0.000000000000D+00 0.000000000000D+00 0.135791322250D-08 0.000000000000D+00  7 -2 21 23 -11 11 23 -2 2 0.30576457D-01 0.19131563D+00 0.14330991D+06 0.14330991D+06 0.14330991D+06 0.11091190D+01  1  2 12  4  7  2        2 0.303922076412D-05 0.100000000000D+01
-.144997576651D-05 0.000000000000D+00 -.166970227152D-06 0.135791322250D-08 0.000000000000D+00  7 -2 21 23 -11 11 23 -2 2 0.30576457D-01 0.19149899D+00 0.14065783D+06 0.14065783D+06 0.14065783D+06 0.11097625D+01  1  2  5  4  7  2        2 -.198622782836D-04 0.100000000000D+01
0.786606423499D-08 0.000000000000D+00 0.000000000000D+00 0.135791322250D-08 0.273915514599D-12  7 -2 21 23 -11 11 23 -2 2 0.30766918D-01 0.19073087D+00 0.14330991D+06 0.14330991D+06 0.14330991D+06 0.11091190D+01  1  2 11  4  7  2        2 0.107720410417D-06 0.100000000000D+01
  </mgrwgt>
  </event>
  <event>
  8     66 0.27870365E-05 0.20917952E+03 0.75467711E-02 0.97339507E-01
       -2 -1    0    0    0  501 0.00000000E+00 0.00000000E+00 0.14061399E+02 0.14065039E+02 0.32000000E+00 0.0000E+00 0.9000E+01
        2 -1    0    0  501    0 0.00000000E+00 0.00000000E+00 -.34561253E+04 0.34561253E+04 0.32000000E+00 0.0000E+00 0.9000E+01
       25  2    1    2    0    0 -.34938410E+02 -.61405429E+02 -.28673872E+04 0.28840505E+04 0.30140809E+03 0.0000E+00 0.0000E+00
       23  2    3    3    0    0 0.67453179E+01 -.14710759E+03 -.14845226E+04 0.14949098E+04 0.96237478E+02 0.0000E+00 0.0000E+00
       23  1    1    2    0    0 0.34938410E+02 0.61405429E+02 -.57467665E+03 0.58613977E+03 0.91188000E+02 0.0000E+00 0.9000E+01
      -13  1    4    4    0    0 0.16301350E+02 0.62434474E+01 -.29328576E+03 0.29380480E+03 0.10565837E+00 0.0000E+00 0.9000E+01
       13  1    4    4    0    0 -.95560321E+01 -.15335104E+03 -.11912369E+04 0.12011050E+04 0.10565837E+00 0.0000E+00 0.9000E+01
       23  1    3    3    0    0 -.41683728E+02 0.85702161E+02 -.13828646E+04 0.13891408E+04 0.91188000E+02 0.0000E+00 0.9000E+01
#aMCatNLO 1  0  0  2  1 0.29010229D+03 0.00000000D+00  -5  7  0 0.00000000D+00 0.00000000D+00 0.00000000D+00 0.00000000D+00 0.00000000D+00
  <mgrwgt>
 0.1079210283D-02    3    2    0
 0.220463823561161D+03 0.000000000000000D+00 0.000000000000000D+00 0.220463823561161D+03
 0.220463823561161D+03 0.000000000000000D+00 0.000000000000000D+00 -.220463823561161D+03
 0.126875357736077D+03 0.349384760652590D+02 0.614055457192372D+02 0.528277096022307D+02
 0.227932694294091D+02 0.163013465594898D+02 0.624360042925179D+01 -.146566259865255D+02
 0.153652217225076D+03 -.955607214697753D+01 -.153351200144143D+03 0.104630667343212D+01
 0.137606802731760D+03 -.416837504777713D+02 0.857020539956537D+02 -.392173902891373D+02
 0.000000000000000D+00 -.000000000000000D+00 0.000000000000000D+00 0.000000000000000D+00
 0.604158136108732D+03 0.000000000000000D+00 0.000000000000000D+00 0.604158136108732D+03
 0.325736982351539D+03 0.000000000000000D+00 0.000000000000000D+00 -.325736982351539D+03
 0.114410590287255D+03 0.433168692297511D+02 -.103640611824313D+02 0.528277096022307D+02
 0.244476595313676D+02 0.179417366424256D+02 -.780803800622282D+01 -.146566259865255D+02
 0.283411990563648D+03 0.562050900488926D+01 -.283354321505991D+03 0.104630667343212D+01
 0.105533252176616D+03 -.332409754602158D+02 0.133809499041016D+02 -.392173902891373D+02
 0.402091625901384D+03 -.336381394168502D+02 0.288145470790543D+03 0.278421153757194D+03
0.145290620878D-04 0.000000000000D+00 0.000000000000D+00 0.141207508710D-08 0.000000000000D+00  7 -2 2 23 -13 13 23 21 0 0.21635733D-02 0.53171186D+00 0.43756073D+05 0.43756073D+05 0.43756073D+05 0.11524262D+01  1  2  2  2  7  2        2 0.106662561103D-02 0.100000000000D+01
-.804460925877D-06 0.000000000000D+00 -.557954240070D-07 0.141207508710D-08 0.000000000000D+00  7 -2 2 23 -13 13 23 21 2 0.21635733D-02 0.53171186D+00 0.43756073D+05 0.43756073D+05 0.43756073D+05 0.11524262D+01  1  2  3  2  7  2        2 -.784342228959D-04 0.100000000000D+01
0.933535662227D-06 0.000000000000D+00 0.000000000000D+00 0.141207508710D-08 0.000000000000D+00  7 -2 2 23 -13 13 23 21 2 0.21635733D-02 0.53171186D+00 0.43756073D+05 0.43756073D+05 0.43756073D+05 0.11524262D+01  1  2 15  2  7  2        2 0.910188945878D-04 0.100000000000D+01
  </mgrwgt>
  </event>
  <event>
  9     66 0.27870365E-05 0.41195757E+03 0.75467711E-02 0.93753386E-01
       21 -1    0    0  502  501 0.00000000E+00 0.00000000E+00 0.13590807E+03 0.13591014E+03 0.75000000E+00 0.0000E+00 0.9000E+01
        2 -1    0    0  501    0 0.00000000E+00 0.00000000E+00 -.24622572E+04 0.24622572E+04 0.32000000E+00 0.0000E+00 0.9000E+01
       25  2    1    2    0    0 0.36718334E+03 -.76453478E+02 -.71352599E+03 0.85995711E+03 0.29956327E+03 0.0000E+00 0.0000E+00
       23  2    3    3    0    0 0.36311207E+03 -.88526154E+02 -.53485906E+03 0.65896097E+03 0.92022205E+02 0.0000E+00 0.0000E+00
       23  1    1    2    0    0 -.24977426E+03 0.27022846E+03 -.68280890E+03 0.78099542E+03 0.91188000E+02 0.0000E+00 0.9000E+01
      -11  1    4    4    0    0 0.23586457E+03 -.15737643E+02 -.36151183E+03 0.43193816E+03 0.51099893E-03 0.0000E+00 0.9000E+01
       11  1    4    4    0    0 0.12724750E+03 -.72788511E+02 -.17334723E+03 0.22702281E+03 0.51099893E-03 0.0000E+00 0.9000E+01
       23  1    3    3    0    0 0.40712621E+01 0.12072676E+02 -.17866694E+03 0.20099614E+03 0.91188000E+02 0.0000E+00 0.9000E+01
        2  1    1    2  502    0 -.11740907E+03 -.19377498E+03 -.93001421E+03 0.95721480E+03 0.32000000E+00 0.0000E+00 0.9000E+01
#aMCatNLO 2  0  0  1  2 0.22656927D+03 0.00000000D+00  -5  7  0 0.00000000D+00 0.00000000D+00 0.00000000D+00 0.00000000D+00 0.00000000D+00
  <mgrwgt>
 0.3608925252D-04    1    2    0
 0.415824616982509D+03 0.000000000000000D+00 0.000000000000000D+00 0.415824616982509D+03
 0.415824616982509D+03 0.000000000000000D+00 0.000000000000000D+00 -.415824616982509D+03
 0.366871946485040D+03 -.301599418962149D+03 0.184694878992049D+03 -.347183802837766D+02
 0.215662261440068D+03 0.204506852933595D+03 -.674912378019319D+02 0.114930819454287D+02
 0.155891986287363D+03 0.105945978597259D+03 -.107945098131518D+03 0.377573409692153D+02
 0.932230397525472D+02 -.885341256870470D+01 -.925854305859932D+01 -.145320426308674D+02
 0.000000000000000D+00 -.000000000000000D+00 -.000000000000000D+00 -.000000000000000D+00
 0.478903015891417D+03 0.000000000000000D+00 0.000000000000000D+00 0.478903015891417D+03
 0.698770347678683D+03 0.000000000000000D+00 0.000000000000000D+00 -.698770347678683D+03
 0.380698334235710D+03 -.249774262824803D+03 0.270228462687855D+03 -.347183802837766D+02
 0.236668250975795D+03 0.235864572784412D+03 -.157376425351596D+02 0.114930819454287D+02
 0.151379360684290D+03 0.127247501603210D+03 -.727885113177889D+02 0.377573409692153D+02
 0.932134983915844D+02 0.407126213841503D+01 0.120726757586240D+02 -.145320426308674D+02
 0.315713919282721D+03 -.117409073701234D+03 -.193774984593531D+03 -.219867331787266D+03
0.279465730709D-06 0.000000000000D+00 0.000000000000D+00 0.297222126130D-06 0.137269504491D-11  7 21 2 23 -11 11 23 2 2 0.20909091D-01 0.37880890D+00 0.29199919D+06 0.29199919D+06 0.29199919D+06 0.10854215D+01  1  2  1  3  7  1       -2 0.360892525184D-04 0.100000000000D+01
  </mgrwgt>
  </event>
  <event>
  8     66 0.27870365E-05 0.72836062E+02 0.75467711E-02 0.10213558E+00
       -2 -1    0    0    0  501 0.00000000E+00 0.00000000E+00 0.18322270E+03 0.18322298E+03 0.32000000E+00 0.0000E+00 0.9000E+01
        2 -1    0    0  501    0 0.00000000E+00 0.00000000E+00 -.72174695E+03 0.72174702E+03 0.32000000E+00 0.0000E+00 0.9000E+01
       25  2    1    2    0    0 -.16238938E+03 0.80121353E+02 -.21517426E+02 0.34963133E+03 0.29831079E+03 0.0000E+00 0.0000E+00
       23  2    3    3    0    0 0.37241378E+02 0.91503360E+00 -.58315018E+02 0.11342084E+03 0.89865946E+02 0.0000E+00 0.0000E+00
       23  1    1    2    0    0 0.16238938E+03 -.80121353E+02 -.51700681E+03 0.55533867E+03 0.91188000E+02 0.0000E+00 0.9000E+01
      -11  1    4    4    0    0 -.95790332E+01 0.35529355E+02 -.11037385E+02 0.38417663E+02 0.51099893E-03 0.0000E+00 0.9000E+01
       11  1    4    4    0    0 0.46820411E+02 -.34614322E+02 -.47277633E+02 0.75003178E+02 0.51099893E-03 0.0000E+00 0.9000E+01
       23  1    3    3    0    0 -.19963076E+03 0.79206320E+02 0.36797591E+02 0.23621049E+03 0.91188000E+02 0.0000E+00 0.9000E+01
#aMCatNLO 1  0  0  2  1 0.10792881D+02 0.00000000D+00  -5  7  0 0.00000000D+00 0.00000000D+00 0.00000000D+00 0.00000000D+00 0.00000000D+00
  <mgrwgt>
 0.5000975134D-03    9    2    0
 0.363648987534590D+03 0.000000000000000D+00 0.000000000000000D+00 0.363648987534590D+03
 0.363648987534590D+03 0.000000000000000D+00 0.000000000000000D+00 -.363648987534590D+03
 0.308187487599876D+03 0.162389381383810D+03 -.801213531771296D+02 -.232108883388752D+03
 0.396301572333482D+02 -.957903318104413D+01 0.355293551091238D+02 0.147124576868085D+02
 0.583192529302093D+02 0.468204107292574D+02 -.346143215140824D+02 -.329137472814923D+01
 0.321161077305747D+03 -.199630758932023D+03 0.792063195820882D+02 0.220687800430093D+03
 0.000000000000000D+00 -.000000000000000D+00 -.000000000000000D+00 -.000000000000000D+00
 0.364249320345272D+03 0.000000000000000D+00 0.000000000000000D+00 0.364249320345272D+03
 0.415664521259697D+03 0.000000000000000D+00 0.000000000000000D+00 -.415664521259697D+03
 0.307806594112555D+03 0.163754638931613D+03 -.757597024517330D+02 -.232108883388752D+03
 0.400952282793413D+02 -.940233394390191D+01 0.360938642430221D+02 0.147124576868085D+02
 0.580430139769722D+02 0.470783100628563D+02 -.337903987185036D+02 -.329137472814923D+01
 0.321433215831642D+03 -.198206546046012D+03 0.837563176226649D+02 0.220687800430093D+03
 0.525357894044579D+02 -.322406900455473D+01 -.103000806954504D+02 -.514152009144244D+02
0.784444381912D-05 0.000000000000D+00 0.000000000000D+00 0.438105646531D-07 0.000000000000D+00  7 -2 2 23 -11 11 23 21 0 0.28188135D-01 0.11103802D+00 0.70515377D+05 0.70515377D+05 0.70515377D+05 0.11343889D+01  1  2  2  2  7  2        2 0.428583779831D-03 0.100000000000D+01
-.383427282832D-06 0.000000000000D+00 -.301247297549D-07 0.438105646531D-07 0.000000000000D+00  7 -2 2 23 -11 11 23 21 2 0.28188135D-01 0.11103802D+00 0.70515377D+05 0.70515377D+05 0.70515377D+05 0.11343889D+01  1  2  3  2  7  2        2 -.269575561848D-04 0.100000000000D+01
0.484429238010D-06 0.000000000000D+00 0.000000000000D+00 0.438105646531D-07 0.000000000000D+00  7 -2 2 23 -11 11 23 21 2 0.28188135D-01 0.11103802D+00 0.70515377D+05 0.70515377D+05 0.70515377D+05 0.11343889D+01  1  2 15  2  7  2        2 0.340586833174D-04 0.100000000000D+01
0.320475739780D-03 0.000000000000D+00 0.000000000000D+00 0.438105646531D-07 0.000000000000D+00  7 -2 2 23 -11 11 23 21 2 0.28188135D-01 0.12700438D+00 0.73415586D+05 0.73415586D+05 0.73415586D+05 0.11329049D+01  1  2 12  2  7  2        2 0.190278540914D-01 0.100000000000D+01
-.319370641087D-03 0.000000000000D+00 0.000000000000D+00 0.438105646531D-07 0.000000000000D+00  7 -2 2 23 -11 11 23 21 2 0.28188135D-01 0.11103802D+00 0.70515377D+05 0.70515377D+05 0.70515377D+05 0.11343889D+01  1  2  4  2  7  2        2 -.224539368647D-01 0.100000000000D+01
-.339553912654D-03 0.000000000000D+00 -.774762612075D-05 0.438105646531D-07 0.000000000000D+00  7 -2 2 23 -11 11 23 21 2 0.28188135D-01 0.12700863D+00 0.70515377D+05 0.70515377D+05 0.70515377D+05 0.11343889D+01  1  2  5  2  7  2        2 -.202228490951D-01 0.100000000000D+01
0.337611499091D-03 0.000000000000D+00 0.767819288800D-05 0.438105646531D-07 0.000000000000D+00  7 -2 2 23 -11 11 23 21 2 0.28188135D-01 0.11103802D+00 0.70515377D+05 0.70515377D+05 0.70515377D+05 0.11343889D+01  1  2  6  2  7  2        2 0.237363937385D-01 0.100000000000D+01
0.668062139004D-05 0.000000000000D+00 0.000000000000D+00 0.438105646531D-07 0.000000000000D+00  7 -2 21 23 -11 11 23 -2 2 0.28188135D-01 0.12700438D+00 0.73415586D+05 0.73415586D+05 0.73415586D+05 0.11329049D+01  1  2 12  4  7  2        2 0.395127056198D-03 0.100000000000D+01
-.703570273422D-05 0.000000000000D+00 -.161539892813D-06 0.438105646531D-07 0.000000000000D+00  7 -2 21 23 -11 11 23 -2 2 0.28188135D-01 0.12700863D+00 0.70515377D+05 0.70515377D+05 0.70515377D+05 0.11343889D+01  1  2  5  4  7  2        2 -.418176319848D-03 0.100000000000D+01
  </mgrwgt>
  </event>
  <event>
  8     66 0.27870365E-05 0.20486289E+03 0.75467711E-02 0.10311635E+00
       -2 -1    0    0    0  501 0.00000000E+00 0.00000000E+00 0.36916991E+02 0.36918378E+02 0.32000000E+00 0.0000E+00 0.9000E+01
        2 -1    0    0  501    0 0.00000000E+00 0.00000000E+00 -.23795912E+04 0.23795912E+04 0.32000000E+00 0.0000E+00 0.9000E+01
       25  2    1    2    0    0 0.88804691E+02 -.43976047E+02 -.21910750E+04 0.22137345E+04 0.29998438E+03 0.0000E+00 0.0000E+00
       23  2    3    3    0    0 0.95284667E+01 0.64974970E+02 -.14799165E+04 0.14842026E+04 0.91608727E+02 0.0000E+00 0.0000E+00
       23  1    1    2    0    0 -.88804691E+02 0.43976047E+02 -.15159918E+03 0.20277507E+03 0.91188000E+02 0.0000E+00 0.9000E+01
      -13  1    4    4    0    0 -.27356513E+01 -.23188009E+02 -.26247256E+03 0.26350906E+03 0.10565837E+00 0.0000E+00 0.9000E+01
       13  1    4    4    0    0 0.12264118E+02 0.88162979E+02 -.12174439E+04 0.12206936E+04 0.10565837E+00 0.0000E+00 0.9000E+01
       23  1    3    3    0    0 0.79276224E+02 -.10895102E+03 -.71115854E+03 0.72953188E+03 0.91188000E+02 0.0000E+00 0.9000E+01
#aMCatNLO 1  0  0  1  1 0.84184972D+02 0.00000000D+00  -5  7  0 0.00000000D+00 0.00000000D+00 0.00000000D+00 0.00000000D+00 0.00000000D+00
  <mgrwgt>
 0.6831670962D-03    4    2    0
 0.296393402598987D+03 0.000000000000000D+00 0.000000000000000D+00 0.296393402598987D+03
 0.296393402598987D+03 0.000000000000000D+00 0.000000000000000D+00 -.296393402598987D+03
 0.227502380926458D+03 -.888046910889471D+02 0.439760472424604D+02 0.183362799097126D+03
 0.369177750748087D+02 -.273567123987577D+01 -.231881568248323D+02 -.285962865143092D+02
 0.164887940043821D+03 0.122641379246151D+02 0.881631264865319D+02 -.138798007265884D+03
 0.163478709152886D+03 0.792762244042077D+02 -.108951016904160D+03 -.159685053169325D+02
 0.000000000000000D+00 0.000000000000000D+00 0.000000000000000D+00 -.000000000000000D+00
 0.310269820538319D+03 0.000000000000000D+00 0.000000000000000D+00 0.310269820538319D+03
 0.461879328973575D+03 0.000000000000000D+00 0.000000000000000D+00 -.461879328973575D+03
 0.239011850373333D+03 -.119214788662898D+03 0.312622991190991D+02 0.183362799097126D+03
 0.389168646557953D+02 -.767901195483690D+01 -.252548515661149D+02 -.285962865143092D+02
 0.160106023087271D+03 -.892084951344292D+01 0.793061804136341D+02 -.138798007265884D+03
 0.160700016072784D+03 0.581443788910612D+02 -.117785745585401D+03 -.159685053169325D+02
 0.173414395322710D+03 0.776702712401163D+02 0.324721176187830D+02 -.151609508435256D+03
0.880989475563D-05 0.000000000000D+00 0.000000000000D+00 0.616943298124D-06 0.000000000000D+00  7 -2 2 23 -13 13 23 21 0 0.56796455D-02 0.36609106D+00 0.41968802D+05 0.41968802D+05 0.41968802D+05 0.11540448D+01  1  2  2  1  7  1       -2 0.709577478350D-03 0.100000000000D+01
-.408258752240D-06 0.000000000000D+00 -.338323155602D-07 0.616943298124D-06 0.000000000000D+00  7 -2 2 23 -13 13 23 21 2 0.56796455D-02 0.36609106D+00 0.41968802D+05 0.41968802D+05 0.41968802D+05 0.11540448D+01  1  2  3  1  7  1       -2 -.437935296934D-04 0.100000000000D+01
0.537392207400D-06 0.000000000000D+00 0.000000000000D+00 0.616943298124D-06 0.000000000000D+00  7 -2 2 23 -13 13 23 21 2 0.56796455D-02 0.36609106D+00 0.41968802D+05 0.41968802D+05 0.41968802D+05 0.11540448D+01  1  2 15  1  7  1       -2 0.576455531269D-04 0.100000000000D+01
-.375340366397D-06 0.000000000000D+00 0.000000000000D+00 0.616943298124D-06 0.000000000000D+00  7 -2 2 23 -13 13 23 21 2 0.56796455D-02 0.36609106D+00 0.41968802D+05 0.41968802D+05 0.41968802D+05 0.11540448D+01  1  2  4  1  7  1       -2 -.402624056208D-04 0.100000000000D+01
  </mgrwgt>
  </event>
  <event>
  8     66 0.27870365E-05 0.25060017E+03 0.75467711E-02 0.89212256E-01
       -2 -1    0    0    0  501 0.00000000E+00 0.00000000E+00 0.78087505E+02 0.78088160E+02 0.32000000E+00 0.0000E+00 0.9000E+01
        2 -1    0    0  501    0 0.00000000E+00 0.00000000E+00 -.10065234E+04 0.10065234E+04 0.32000000E+00 0.0000E+00 0.9000E+01
       25  2    1    2    0    0 0.81975464E+02 -.13224590E+03 -.38895818E+03 0.51578790E+03 0.30089822E+03 0.0000E+00 0.0000E+00
       23  2    3    3    0    0 0.12120736E+03 0.60023292E+01 -.26387770E+03 0.30457215E+03 0.91681529E+02 0.0000E+00 0.0000E+00
       23  1    1    2    0    0 -.81975464E+02 0.13224590E+03 -.53947768E+03 0.56882368E+03 0.91188000E+02 0.0000E+00 0.9000E+01
      -13  1    4    4    0    0 0.44924354E+02 0.46192860E+02 -.13387734E+03 0.14857702E+03 0.10565837E+00 0.0000E+00 0.9000E+01
       13  1    4    4    0    0 0.76283010E+02 -.40190531E+02 -.13000036E+03 0.15599513E+03 0.10565837E+00 0.0000E+00 0.9000E+01
       23  1    3    3    0    0 -.39231900E+02 -.13824823E+03 -.12508048E+03 0.21121575E+03 0.91188000E+02 0.0000E+00 0.9000E+01
#aMCatNLO 1  0  0  2  2 0.75874671D+03 0.00000000D+00  -5  7  0 0.00000000D+00 0.00000000D+00 0.00000000D+00 0.00000000D+00 0.00000000D+00
  <mgrwgt>
 0.4035969184D-03    5    2    0
 0.280352066858679D+03 0.000000000000000D+00 0.000000000000000D+00 0.280352066858679D+03
 0.280352066858679D+03 0.000000000000000D+00 0.000000000000000D+00 -.280352066858679D+03
 0.207029543530885D+03 -.819754657043134D+02 0.132245902130945D+03 -.101671160821248D+03
 0.657241753496534D+02 0.449243105157967D+02 0.461929725810925D+02 -.129492406802370D+02
 0.864932901972773D+02 0.762830514167776D+02 -.401906461181667D+02 0.683354083180740D+01
 0.201457124639543D+03 -.392318962282609D+02 -.138248228593870D+03 0.107786860669677D+03
 0.000000000000000D+00 0.000000000000000D+00 0.000000000000000D+00 -.000000000000000D+00
 0.662888375112387D+03 0.000000000000000D+00 0.000000000000000D+00 0.662888375112387D+03
 0.122459457100352D+04 0.000000000000000D+00 0.000000000000000D+00 -.122459457100352D+04
 0.194661354539167D+03 -.121766134102867D+03 -.664362495173078D+02 -.101671160821248D+03
 0.373585429699402D+02 0.347131499393846D+02 -.479323689462210D+01 -.129492406802370D+02
 0.178590262758017D+03 0.500244236902535D+02 -.171304821024207D+03 0.683354083180740D+01
 0.532833369718795D+03 -.111969191769688D+03 -.501438970666725D+03 0.107786860669677D+03
 0.944039416129989D+03 0.148997752242918D+03 0.743973278102862D+03 -.561706195891135D+03
0.278454870588D-05 0.000000000000D+00 0.000000000000D+00 0.761949850045D-07 0.000000000000D+00  7 -2 2 23 -13 13 23 21 0 0.12013517D-01 0.15484980D+00 0.62800447D+05 0.62800447D+05 0.62800447D+05 0.11386885D+01  1  2  2  2  7  2        2 0.399235213088D-03 0.100000000000D+01
-.152329854988D-06 0.000000000000D+00 -.106934002191D-07 0.761949850045D-07 0.000000000000D+00  7 -2 2 23 -13 13 23 21 2 0.12013517D-01 0.15484980D+00 0.62800447D+05 0.62800447D+05 0.62800447D+05 0.11386885D+01  1  2  3  2  7  2        2 -.283184139037D-04 0.100000000000D+01
0.174241423799D-06 0.000000000000D+00 0.000000000000D+00 0.761949850045D-07 0.000000000000D+00  7 -2 2 23 -13 13 23 21 2 0.12013517D-01 0.15484980D+00 0.62800447D+05 0.62800447D+05 0.62800447D+05 0.11386885D+01  1  2 15  2  7  2        2 0.323918168157D-04 0.100000000000D+01
0.121556320189D-05 0.000000000000D+00 -.106379418457D-05 0.761949850045D-07 0.000000000000D+00  7 -2 2 23 -13 13 23 21 2 0.12013517D-01 0.77950826D+00 0.62800447D+05 0.62800447D+05 0.62800447D+05 0.11386885D+01  1  2  5  2  7  2        2 0.287985387366D-06 0.100000000000D+01
0.207943814026D-06 0.000000000000D+00 -.209626557215D-06 0.761949850045D-07 0.000000000000D+00  7 -2 21 23 -13 13 23 -2 2 0.12013517D-01 0.77950826D+00 0.62800447D+05 0.62800447D+05 0.62800447D+05 0.11386885D+01  1  2  5  4  7  2        2 0.317043243923D-09 0.100000000000D+01
  </mgrwgt>
  </event>
  <event>
  8     66 0.27870365E-05 0.21285228E+03 0.75467711E-02 0.96994000E-01
       -2 -1    0    0    0  501 0.00000000E+00 0.00000000E+00 0.38582398E+03 0.38582411E+03 0.32000000E+00 0.0000E+00 0.9000E+01
        2 -1    0    0  501    0 0.00000000E+00 0.00000000E+00 -.34920467E+03 0.34920482E+03 0.32000000E+00 0.0000E+00 0.9000E+01
       25  2    1    2    0    0 0.40976019E+02 0.24706835E+03 -.13997995E+03 0.41530350E+03 0.30026789E+03 0.0000E+00 0.0000E+00
       23  2    3    3    0    0 0.12338646E+03 0.69639075E+02 -.99253286E+02 0.19565255E+03 0.91405062E+02 0.0000E+00 0.0000E+00
       23  1    1    2    0    0 -.40976019E+02 -.24706835E+03 0.17659925E+03 0.31972543E+03 0.91188000E+02 0.0000E+00 0.9000E+01
      -11  1    4    4    0    0 0.11842959E+03 0.65580175E+02 -.47442668E+02 0.14344733E+03 0.51099893E-03 0.0000E+00 0.9000E+01
       11  1    4    4    0    0 0.49568659E+01 0.40588997E+01 -.51810618E+02 0.52205223E+02 0.51099893E-03 0.0000E+00 0.9000E+01
       23  1    3    3    0    0 -.82410442E+02 0.17742927E+03 -.40726661E+02 0.21965095E+03 0.91188000E+02 0.0000E+00 0.9000E+01
#aMCatNLO 1  0  0  1  2 0.16209181D+03 0.00000000D+00  -5  7  0 0.00000000D+00 0.00000000D+00 0.00000000D+00 0.00000000D+00 0.00000000D+00
  <mgrwgt>
 0.2591446249D-03    7    2    0
 0.367058083939000D+03 0.000000000000000D+00 0.000000000000000D+00 0.367058083939000D+03
 0.367058083939000D+03 0.000000000000000D+00 0.000000000000000D+00 -.367058083939000D+03
 0.311313802594980D+03 -.409760192892344D+02 -.247068345935478D+03 0.160870229135354D+03
 0.145992222339335D+03 0.118429594964621D+03 0.655801748350224D+02 -.546571192865255D+02
 0.548545582865306D+02 0.495686591488552D+01 0.405889971108627D+01 -.544791462694449D+02
 0.221955584657154D+03 -.824104415902720D+02 0.177429271389369D+03 -.517339635793833D+02
 0.000000000000000D+00 -.000000000000000D+00 0.000000000000000D+00 0.000000000000000D+00
 0.774402975167245D+03 0.000000000000000D+00 0.000000000000000D+00 0.774402975167245D+03
 0.392381768440206D+03 0.000000000000000D+00 0.000000000000000D+00 -.392381768440206D+03
 0.340278930076411D+03 0.191313823566494D+02 -.285007470949464D+03 0.160870229135354D+03
 0.163892429380705D+03 0.147015489636078D+03 0.475370752852133D+02 -.546571192865255D+02
 0.566229534909621D+02 0.152403194264408D+02 -.243190204821960D+01 -.544791462694449D+02
 0.191003734239980D+03 -.443162296695894D+02 0.153384627488729D+03 -.517339635793833D+02
 0.414986696419394D+03 -.137070961749579D+03 0.865176702237414D+02 0.382021206727039D+03
0.103751552555D-04 0.000000000000D+00 0.000000000000D+00 0.592135856662D-06 0.000000000000D+00  7 -2 2 23 -11 11 23 21 0 0.59357556D-01 0.53723817D-01 0.97391257D+05 0.97391257D+05 0.97391257D+05 0.11226653D+01  1  2  2  1  7  1       -2 0.316785547482D-03 0.100000000000D+01
-.557942993532D-06 0.000000000000D+00 -.398433280224D-07 0.592135856662D-06 0.000000000000D+00  7 -2 2 23 -11 11 23 21 2 0.59357556D-01 0.53723817D-01 0.97391257D+05 0.97391257D+05 0.97391257D+05 0.11226653D+01  1  2  3  1  7  1       -2 -.214714417538D-04 0.100000000000D+01
0.657690622133D-06 0.000000000000D+00 0.000000000000D+00 0.592135856662D-06 0.000000000000D+00  7 -2 2 23 -11 11 23 21 2 0.59357556D-01 0.53723817D-01 0.97391257D+05 0.97391257D+05 0.97391257D+05 0.11226653D+01  1  2 15  1  7  1       -2 0.253100514728D-04 0.100000000000D+01
0.117227342313D-04 0.000000000000D+00 0.000000000000D+00 0.592135856662D-06 0.000000000000D+00  7 -2 2 23 -11 11 23 21 2 0.12503450D+00 0.53723817D-01 0.16636196D+06 0.16636196D+06 0.16636196D+06 0.11040211D+01  1  2 12  1  7  1       -2 0.780675638433D-04 0.100000000000D+01
-.182646680260D-04 0.000000000000D+00 -.313862390215D-05 0.592135856662D-06 0.000000000000D+00  7 -2 2 23 -11 11 23 21 2 0.12917046D+00 0.53723817D-01 0.97391257D+05 0.97391257D+05 0.97391257D+05 0.11226653D+01  1  2  5  1  7  1       -2 -.117480237484D-03 0.100000000000D+01
0.944614684711D-06 0.000000000000D+00 0.000000000000D+00 0.592135856662D-06 0.000000000000D+00  7 21 2 23 -11 11 23 2 2 0.12503450D+00 0.53723817D-01 0.16636196D+06 0.16636196D+06 0.16636196D+06 0.11040211D+01  1  2 12  3  7  1       -2 0.567313848153D-04 0.100000000000D+01
-.134107982979D-05 0.000000000000D+00 -.264329195578D-06 0.592135856662D-06 0.000000000000D+00  7 21 2 23 -11 11 23 2 2 0.12917046D+00 0.53723817D-01 0.97391257D+05 0.97391257D+05 0.97391257D+05 0.11226653D+01  1  2  5  3  7  1       -2 -.787982434435D-04 0.100000000000D+01
  </mgrwgt>
  </event>
  <event>
  8     66 0.27870365E-05 0.18126274E+03 0.75467711E-02 0.94507080E-01
       -2 -1    0    0    0  501 0.00000000E+00 0.00000000E+00 0.86261576E+02 0.86262169E+02 0.32000000E+00 0.0000E+00 0.9000E+01
        2 -1    0    0  501    0 0.00000000E+00 0.00000000E+00 -.36174944E+04 0.36174945E+04 0.32000000E+00 0.0000E+00 0.9000E+01
       25  2    1    2    0    0 0.96956881E+02 -.43547723E+03 -.10346230E+04 0.11659589E+04 0.29995735E+03 0.0000E+00 0.0000E+00
       23  2    3    3    0    0 0.24175468E+02 -.37332898E+03 -.89179396E+03 0.97134411E+03 0.90851171E+02 0.0000E+00 0.0000E+00
       23  1    1    2    0    0 -.96956881E+02 0.43547723E+03 -.24966099E+04 0.25377977E+04 0.91188000E+02 0.0000E+00 0.9000E+01
      -13  1    4    4    0    0 0.46498124E+02 -.11527817E+03 -.24825136E+03 0.27763264E+03 0.10565837E+00 0.0000E+00 0.9000E+01
       13  1    4    4    0    0 -.22322656E+02 -.25805082E+03 -.64354260E+03 0.69371148E+03 0.10565837E+00 0.0000E+00 0.9000E+01
       23  1    3    3    0    0 0.72781413E+02 -.62148252E+02 -.14282901E+03 0.19461479E+03 0.91188000E+02 0.0000E+00 0.9000E+01
#aMCatNLO 1  0  0  2  1 0.38768516D+02 0.00000000D+00  -5  7  0 0.00000000D+00 0.00000000D+00 0.00000000D+00 0.00000000D+00 0.00000000D+00
  <mgrwgt>
 0.7310762373D-03    9    2    0
 0.558616053638572D+03 0.000000000000000D+00 0.000000000000000D+00 0.558616053638572D+03
 0.558616053638572D+03 0.000000000000000D+00 0.000000000000000D+00 -.558616053638572D+03
 0.522070754737485D+03 -.969568813565314D+02 0.435477233368616D+03 -.255345969193560D+03
 0.135737373538059D+03 0.464982168735668D+02 -.115277972197753D+03 0.545301708099590D+02
 0.265692236354767D+03 -.223227489465490D+02 -.258051009483631D+03 0.591923630474907D+02
 0.193731742646833D+03 0.727814134295135D+02 -.621482516872320D+02 0.141623435336110D+03
 0.000000000000000D+00 0.000000000000000D+00 -.000000000000000D+00 -.000000000000000D+00
 0.570230094403367D+03 0.000000000000000D+00 0.000000000000000D+00 0.570230094403367D+03
 0.592269834874623D+03 0.000000000000000D+00 0.000000000000000D+00 -.592269834874623D+03
 0.537581269637371D+03 -.104304244165029D+03 0.452324475113487D+03 -.255345969193560D+03
 0.131507387195623D+03 0.446452083664214D+02 -.111029089559336D+03 0.545301708099590D+02
 0.257953910856595D+03 -.259535807086113D+02 -.249725641317562D+03 0.591923630474907D+02
 0.190861980724661D+03 0.701147364879501D+02 -.560336562519785D+02 0.141623435336110D+03
 0.445953808637393D+02 0.154978800192689D+02 -.355360879846105D+02 -.220397404712563D+02
0.737516305622D-04 0.000000000000D+00 0.000000000000D+00 0.190556006349D-05 0.000000000000D+00  7 -2 2 23 -13 13 23 21 0 0.13271058D-01 0.55653765D+00 0.23564876D+06 0.23564876D+06 0.23564876D+06 0.10923959D+01  1  2  2  2  7  2        2 0.251450682114D-03 0.100000000000D+01
-.399909308727D-05 0.000000000000D+00 -.283225680609D-06 0.190556006349D-05 0.000000000000D+00  7 -2 2 23 -13 13 23 21 2 0.13271058D-01 0.55653765D+00 0.23564876D+06 0.23564876D+06 0.23564876D+06 0.10923959D+01  1  2  3  2  7  2        2 -.162705719380D-04 0.100000000000D+01
0.461816826048D-05 0.000000000000D+00 0.000000000000D+00 0.190556006349D-05 0.000000000000D+00  7 -2 2 23 -13 13 23 21 2 0.13271058D-01 0.55653765D+00 0.23564876D+06 0.23564876D+06 0.23564876D+06 0.10923959D+01  1  2 15  2  7  2        2 0.187893197944D-04 0.100000000000D+01
0.147552626128D-03 0.000000000000D+00 0.000000000000D+00 0.190556006349D-05 0.000000000000D+00  7 -2 2 23 -13 13 23 21 2 0.13271058D-01 0.59560869D+00 0.25528988D+06 0.25528988D+06 0.25528988D+06 0.10897757D+01  1  2 12  2  7  2        2 0.381462257207D-03 0.100000000000D+01
-.144895561699D-03 0.000000000000D+00 0.000000000000D+00 0.190556006349D-05 0.000000000000D+00  7 -2 2 23 -13 13 23 21 2 0.13271058D-01 0.55653765D+00 0.23564876D+06 0.23564876D+06 0.23564876D+06 0.10923959D+01  1  2  4  2  7  2        2 -.589517075168D-03 0.100000000000D+01
-.480606475959D-03 0.000000000000D+00 -.742451101504D-04 0.190556006349D-05 0.000000000000D+00  7 -2 2 23 -13 13 23 21 2 0.13271058D-01 0.59276247D+00 0.23564876D+06 0.23564876D+06 0.23564876D+06 0.10923959D+01  1  2  5  2  7  2        2 -.129797670681D-02 0.100000000000D+01
0.487479546103D-03 0.000000000000D+00 0.753230254425D-04 0.190556006349D-05 0.000000000000D+00  7 -2 2 23 -13 13 23 21 2 0.13271058D-01 0.55653765D+00 0.23564876D+06 0.23564876D+06 0.23564876D+06 0.10923959D+01  1  2  6  2  7  2        2 0.198334243542D-02 0.100000000000D+01
0.186921215255D-05 0.000000000000D+00 0.000000000000D+00 0.190556006349D-05 0.000000000000D+00  7 -2 21 23 -13 13 23 -2 2 0.13271058D-01 0.59560869D+00 0.25528988D+06 0.25528988D+06 0.25528988D+06 0.10897757D+01  1  2 12  4  7  2        2 0.107016095132D-06 0.100000000000D+01
-.507988704156D-05 0.000000000000D+00 -.800537455810D-06 0.190556006349D-05 0.000000000000D+00  7 -2 21 23 -13 13 23 -2 2 0.13271058D-01 0.59276247D+00 0.23564876D+06 0.23564876D+06 0.23564876D+06 0.10923959D+01  1  2  5  4  7  2        2 -.311119456223D-06 0.100000000000D+01
  </mgrwgt>
  </event>
  <event>
  8     66 0.27870365E-05 0.22760432E+03 0.75467711E-02 0.96008764E-01
       -2 -1    0    0    0  501 0.00000000E+00 0.00000000E+00 0.71378506E+02 0.71379223E+02 0.32000000E+00 0.0000E+00 0.9000E+01
        2 -1    0    0  501    0 0.00000000E+00 0.00000000E+00 -.16645765E+04 0.16645765E+04 0.32000000E+00 0.0000E+00 0.9000E+01
       25  2    1    2    0    0 -.66902739E+01 0.27009148E+03 -.93209863E+03 0.10159823E+04 0.30069585E+03 0.0000E+00 0.0000E+00
       23  2    3    3    0    0 -.90586222E+02 0.74143188E+02 -.54055685E+03 0.56094989E+03 0.93594890E+02 0.0000E+00 0.0000E+00
       23  1    1    2    0    0 0.66902739E+01 -.27009148E+03 -.66109936E+03 0.71997346E+03 0.91188000E+02 0.0000E+00 0.9000E+01
      -11  1    4    4    0    0 0.90756114E+00 -.19045956E+02 -.79432920E+02 0.81689417E+02 0.51099893E-03 0.0000E+00 0.9000E+01
       11  1    4    4    0    0 -.91493783E+02 0.93189144E+02 -.46112393E+03 0.47926048E+03 0.51099893E-03 0.0000E+00 0.9000E+01
       23  1    3    3    0    0 0.83895948E+02 0.19594829E+03 -.39154178E+03 0.45503240E+03 0.91188000E+02 0.0000E+00 0.9000E+01
#aMCatNLO 1  0  0  2  1 0.19103356D+03 0.00000000D+00  -5  7  0 0.00000000D+00 0.00000000D+00 0.00000000D+00 0.00000000D+00 0.00000000D+00
  <mgrwgt>
 0.4687061912D-03    9    2    0
 0.344696435033724D+03 0.000000000000000D+00 0.000000000000000D+00 0.344696435033724D+03
 0.344696435033724D+03 0.000000000000000D+00 0.000000000000000D+00 -.344696435033724D+03
 0.285149299401454D+03 0.669027393896808D+01 -.270091478089369D+03 -.839823351216740D+00
 0.221308426575010D+02 0.907561140888035D+00 -.190459563538162D+02 -.112339697380375D+02
 0.141157925042237D+03 -.914937829830827D+02 0.931891439982082D+02 -.535745361021042D+02
 0.240954802966256D+03 0.838959479032265D+02 0.195948290444977D+03 0.656483291913585D+02
 0.000000000000000D+00 0.000000000000000D+00 -.000000000000000D+00 -.000000000000000D+00
 0.411330537628024D+03 0.000000000000000D+00 0.000000000000000D+00 0.411330537628024D+03
 0.527757317218866D+03 0.000000000000000D+00 0.000000000000000D+00 -.527757317218866D+03
 0.234210605864527D+03 -.347633612956082D+02 -.212908806683985D+03 -.839823351216740D+00
 0.185441735996627D+02 -.233898767812679D+01 -.145675473248195D+02 -.112339697380375D+02
 0.182265197084522D+03 -.117308375128397D+03 0.128798743295263D+03 -.535745361021042D+02
 0.280351501465949D+03 0.422869573548506D+02 0.253345264692798D+03 0.656483291913585D+02
 0.223716376832230D+03 0.112123766747282D+03 -.154667653979257D+03 -.116426779590841D+03
0.560193199535D-05 0.000000000000D+00 0.000000000000D+00 0.392717864237D-07 0.000000000000D+00  7 -2 2 23 -11 11 23 21 0 0.10981366D-01 0.25608875D+00 0.11110592D+06 0.11110592D+06 0.11110592D+06 0.11179880D+01  1  2  2  2  7  2        2 0.396134383320D-03 0.100000000000D+01
-.310792660138D-06 0.000000000000D+00 -.215128938847D-07 0.392717864237D-07 0.000000000000D+00  7 -2 2 23 -11 11 23 21 2 0.10981366D-01 0.25608875D+00 0.11110592D+06 0.11110592D+06 0.11110592D+06 0.11179880D+01  1  2  3  2  7  2        2 -.274694357018D-04 0.100000000000D+01
0.362238609120D-06 0.000000000000D+00 0.000000000000D+00 0.392717864237D-07 0.000000000000D+00  7 -2 2 23 -11 11 23 21 2 0.10981366D-01 0.25608875D+00 0.11110592D+06 0.11110592D+06 0.11110592D+06 0.11179880D+01  1  2 15  2  7  2        2 0.320164902784D-04 0.100000000000D+01
0.137132752737D-05 0.000000000000D+00 0.000000000000D+00 0.392717864237D-07 0.000000000000D+00  7 -2 2 23 -11 11 23 21 2 0.10981366D-01 0.40623226D+00 0.19658905D+06 0.19658905D+06 0.19658905D+06 0.10983996D+01  1  2 12  2  7  2        2 0.332353692766D-04 0.100000000000D+01
-.289240781486D-05 0.000000000000D+00 0.000000000000D+00 0.392717864237D-07 0.000000000000D+00  7 -2 2 23 -11 11 23 21 2 0.10981366D-01 0.25608875D+00 0.11110592D+06 0.11110592D+06 0.11110592D+06 0.11179880D+01  1  2  4  2  7  2        2 -.255645710739D-03 0.100000000000D+01
-.381247351984D-05 0.000000000000D+00 -.167386604250D-05 0.392717864237D-07 0.000000000000D+00  7 -2 2 23 -11 11 23 21 2 0.10981366D-01 0.41757979D+00 0.11110592D+06 0.11110592D+06 0.11110592D+06 0.11179880D+01  1  2  5  2  7  2        2 -.885822038822D-04 0.100000000000D+01
0.428975500295D-05 0.000000000000D+00 0.149194246272D-05 0.392717864237D-07 0.000000000000D+00  7 -2 2 23 -11 11 23 21 2 0.10981366D-01 0.25608875D+00 0.11110592D+06 0.11110592D+06 0.11110592D+06 0.11179880D+01  1  2  6  2  7  2        2 0.379150360814D-03 0.100000000000D+01
0.726324345476D-07 0.000000000000D+00 0.000000000000D+00 0.392717864237D-07 0.000000000000D+00  7 -2 21 23 -11 11 23 -2 2 0.10981366D-01 0.40623226D+00 0.19658905D+06 0.19658905D+06 0.19658905D+06 0.10983996D+01  1  2 12  4  7  2        2 0.181106498834D-06 0.100000000000D+01
-.137606162694D-06 0.000000000000D+00 -.927290921663D-07 0.392717864237D-07 0.000000000000D+00  7 -2 21 23 -11 11 23 -2 2 0.10981366D-01 0.41757979D+00 0.11110592D+06 0.11110592D+06 0.11110592D+06 0.11179880D+01  1  2  5  4  7  2        2 -.314168620750D-06 0.100000000000D+01
  </mgrwgt>
  </event>
  <event>
  8     66 0.27870365E-05 0.31651634E+03 0.75467711E-02 0.93595375E-01
       -2 -1    0    0    0  501 0.00000000E+00 0.00000000E+00 0.51989631E+03 0.51989641E+03 0.32000000E+00 0.0000E+00 0.9000E+01
        2 -1    0    0  501    0 0.00000000E+00 0.00000000E+00 -.35776438E+03 0.35776453E+03 0.32000000E+00 0.0000E+00 0.9000E+01
       25  2    1    2    0    0 -.29650624E+03 0.22250555E+03 0.47281452E+02 0.47899999E+03 0.29963442E+03 0.0000E+00 0.0000E+00
       23  2    3    3    0    0 -.29027712E+03 0.19450771E+03 -.20373788E+02 0.36188823E+03 0.91945319E+02 0.0000E+00 0.0000E+00
       23  1    1    2    0    0 0.29650624E+03 -.22250555E+03 0.11485048E+03 0.39866095E+03 0.91188000E+02 0.0000E+00 0.9000E+01
      -13  1    4    4    0    0 -.23770089E+03 0.19345836E+03 -.29522920E+01 0.30649075E+03 0.10565837E+00 0.0000E+00 0.9000E+01
       13  1    4    4    0    0 -.52576233E+02 0.10493495E+01 -.17421496E+02 0.55397483E+02 0.10565837E+00 0.0000E+00 0.9000E+01
       23  1    3    3    0    0 -.62291155E+01 0.27997836E+02 0.67655240E+02 0.11711176E+03 0.91188000E+02 0.0000E+00 0.9000E+01
#aMCatNLO 1  0  0  1  2 0.22735928D+03 0.00000000D+00  -5  7  0 0.00000000D+00 0.00000000D+00 0.00000000D+00 0.00000000D+00 0.00000000D+00
  <mgrwgt>
 0.4347528738D-03    9    2    0
 0.431277740092589D+03 0.000000000000000D+00 0.000000000000000D+00 0.431277740092589D+03
 0.431277740092589D+03 0.000000000000000D+00 0.000000000000000D+00 -.431277740092589D+03
 0.384054382143511D+03 0.296506239926284D+03 -.222505546785526D+03 0.419267031149049D+02
 0.312413417525147D+03 -.237701135786432D+03 0.193458615609859D+03 -.606141694812262D+02
 0.596419600458755D+02 -.525759886159408D+02 0.104909555929343D+01 -.281394423839163D+02
 0.106445720470645D+03 -.622911552391044D+01 0.279978356163736D+02 0.468269087502375D+02
 0.000000000000000D+00 0.000000000000000D+00 -.000000000000000D+00 0.000000000000000D+00
 0.649786044073641D+03 0.000000000000000D+00 0.000000000000000D+00 0.649786044073641D+03
 0.509425944410441D+03 0.000000000000000D+00 0.000000000000000D+00 -.509425944410441D+03
 0.302375506778110D+03 0.240435238847469D+03 -.153455997737442D+03 0.419267031149049D+02
 0.402166200793980D+03 -.296071546510557D+03 0.265339810179348D+03 -.606141694812262D+02
 0.706297815638635D+02 -.632172311990894D+02 0.141534273447179D+02 -.281394423839163D+02
 0.116845438574434D+03 -.244686459140796D+02 0.504592028839158D+02 0.468269087502375D+02
 0.267195060773694D+03 0.143322184776257D+03 -.176496442670540D+03 0.140360099663200D+03
0.239203424730D-04 0.000000000000D+00 0.000000000000D+00 0.471207201117D-06 0.000000000000D+00  7 -2 2 23 -13 13 23 21 0 0.79984066D-01 0.55040693D-01 0.17489744D+06 0.17489744D+06 0.17489744D+06 0.11023271D+01  1  2  2  1  7  1       -2 0.372174319113D-03 0.100000000000D+01
-.132737765171D-05 0.000000000000D+00 -.918604134671D-07 0.471207201117D-06 0.000000000000D+00  7 -2 2 23 -13 13 23 21 2 0.79984066D-01 0.55040693D-01 0.17489744D+06 0.17489744D+06 0.17489744D+06 0.11023271D+01  1  2  3  1  7  1       -2 -.250954199610D-04 0.100000000000D+01
0.155711980806D-05 0.000000000000D+00 0.000000000000D+00 0.471207201117D-06 0.000000000000D+00  7 -2 2 23 -13 13 23 21 2 0.79984066D-01 0.55040693D-01 0.17489744D+06 0.17489744D+06 0.17489744D+06 0.11023271D+01  1  2 15  1  7  1       -2 0.294389282978D-04 0.100000000000D+01
0.754012251971D-05 0.000000000000D+00 0.000000000000D+00 0.471207201117D-06 0.000000000000D+00  7 -2 2 23 -13 13 23 21 2 0.12480091D+00 0.55040693D-01 0.30042464D+06 0.30042464D+06 0.30042464D+06 0.10845064D+01  1  2 12  1  7  1       -2 0.465771426738D-04 0.100000000000D+01
-.139395670190D-04 0.000000000000D+00 0.000000000000D+00 0.471207201117D-06 0.000000000000D+00  7 -2 2 23 -13 13 23 21 2 0.79984066D-01 0.55040693D-01 0.17489744D+06 0.17489744D+06 0.17489744D+06 0.11023271D+01  1  2  4  1  7  1       -2 -.263541643906D-03 0.100000000000D+01
-.173228762189D-04 0.000000000000D+00 -.809548200120D-05 0.471207201117D-06 0.000000000000D+00  7 -2 2 23 -13 13 23 21 2 0.13543838D+00 0.55040693D-01 0.17489744D+06 0.17489744D+06 0.17489744D+06 0.11023271D+01  1  2  5  1  7  1       -2 -.907300762950D-04 0.100000000000D+01
0.197847241629D-04 0.000000000000D+00 0.708925474020D-05 0.471207201117D-06 0.000000000000D+00  7 -2 2 23 -13 13 23 21 2 0.79984066D-01 0.55040693D-01 0.17489744D+06 0.17489744D+06 0.17489744D+06 0.11023271D+01  1  2  6  1  7  1       -2 0.374050264475D-03 0.100000000000D+01
0.388453295671D-06 0.000000000000D+00 0.000000000000D+00 0.471207201117D-06 0.000000000000D+00  7 21 2 23 -13 13 23 2 2 0.12480091D+00 0.55040693D-01 0.30042464D+06 0.30042464D+06 0.30042464D+06 0.10845064D+01  1  2 12  3  7  1       -2 0.212175864651D-04 0.100000000000D+01
-.631829465335D-06 0.000000000000D+00 -.475905683795D-06 0.471207201117D-06 0.000000000000D+00  7 21 2 23 -13 13 23 2 2 0.13543838D+00 0.55040693D-01 0.17489744D+06 0.17489744D+06 0.17489744D+06 0.11023271D+01  1  2  5  3  7  1       -2 -.293382270751D-04 0.100000000000D+01
  </mgrwgt>
  </event>
  <event>
  8     66 0.27870365E-05 0.20962240E+03 0.75467711E-02 0.96618686E-01
       -2 -1    0    0    0  501 0.00000000E+00 0.00000000E+00 0.46152469E+02 0.46153579E+02 0.32000000E+00 0.0000E+00 0.9000E+01
        2 -1    0    0  501    0 0.00000000E+00 0.00000000E+00 -.39052171E+04 0.39052171E+04 0.32000000E+00 0.0000E+00 0.9000E+01
       25  2    1    2    0    0 -.96377431E+01 0.11791045E+03 -.37564171E+04 0.37701318E+04 0.29871167E+03 0.0000E+00 0.0000E+00
       23  2    3    3    0    0 0.27671097E+01 0.15137233E+03 -.13149926E+04 0.13267443E+04 0.90131631E+02 0.0000E+00 0.0000E+00
       23  1    1    2    0    0 0.96377431E+01 -.11791045E+03 -.10264749E+03 0.18123884E+03 0.91188000E+02 0.0000E+00 0.9000E+01
      -13  1    4    4    0    0 0.24434415E+02 0.14802596E+03 -.12233661E+04 0.12325313E+04 0.10565837E+00 0.0000E+00 0.9000E+01
       13  1    4    4    0    0 -.21667305E+02 0.33463744E+01 -.91626439E+02 0.94212982E+02 0.10565837E+00 0.0000E+00 0.9000E+01
       23  1    3    3    0    0 -.12404853E+02 -.33461887E+02 -.24414245E+04 0.24433875E+04 0.91188000E+02 0.0000E+00 0.9000E+01
#aMCatNLO 1  0  0  2  2 0.29496859D+03 0.00000000D+00  -5  7  0 0.00000000D+00 0.00000000D+00 0.00000000D+00 0.00000000D+00 0.00000000D+00
  <mgrwgt>
 0.6342796977D-03    7    2    0
 0.424544023876575D+03 0.000000000000000D+00 0.000000000000000D+00 0.424544023876575D+03
 0.424544023876575D+03 0.000000000000000D+00 0.000000000000000D+00 -.424544023876575D+03
 0.376896779816557D+03 0.963774308091513D+01 -.117910446006563D+03 0.346034928761433D+03
 0.175646450562072D+03 0.244344778332247D+02 0.148026157403593D+03 -.913394143423245D+02
 0.219975807827231D+02 -.216673681667376D+02 0.334617561114681D+01 0.179494451135428D+01
 0.274547236591797D+03 -.124048527474022D+02 -.334618870081764D+02 -.256490458930463D+03
 0.000000000000000D+00 0.000000000000000D+00 0.000000000000000D+00 -.000000000000000D+00
 0.576304712382279D+03 0.000000000000000D+00 0.000000000000000D+00 0.576304712382279D+03
 0.620876724509935D+03 0.000000000000000D+00 0.000000000000000D+00 -.620876724509935D+03
 0.428170006747907D+03 -.778606645821413D+02 -.221837436701743D+03 0.346034928761433D+03
 0.141138458601749D+03 -.999518140263158D+01 0.107132031777649D+03 -.913394143423245D+02
 0.272457755113218D+02 -.270193654613974D+02 -.301070547844565D+01 0.179494451135428D+01
 0.302310031123730D+03 -.751003871009716D+02 -.107929050347696D+03 -.256490458930463D+03
 0.298317164907506D+03 0.189975598547142D+03 0.225645160750235D+03 -.445720121276553D+02
0.966409004542D-04 0.000000000000D+00 0.000000000000D+00 0.138924691283D-06 0.000000000000D+00  7 -2 2 23 -13 13 23 21 0 0.71004662D-02 0.60080271D+00 0.43941549D+05 0.43941549D+05 0.43941549D+05 0.11522624D+01  1  2  2  2  7  2        2 0.581535053009D-03 0.100000000000D+01
-.211791669704D-05 0.000000000000D+00 -.371126503877D-06 0.138924691283D-06 0.000000000000D+00  7 -2 2 23 -13 13 23 21 2 0.71004662D-02 0.60080271D+00 0.43941549D+05 0.43941549D+05 0.43941549D+05 0.11522624D+01  1  2  3  2  7  2        2 -.169210210570D-04 0.100000000000D+01
0.583322623235D-05 0.000000000000D+00 0.000000000000D+00 0.138924691283D-06 0.000000000000D+00  7 -2 2 23 -13 13 23 21 2 0.71004662D-02 0.60080271D+00 0.43941549D+05 0.43941549D+05 0.43941549D+05 0.11522624D+01  1  2 15  2  7  2        2 0.466043560855D-04 0.100000000000D+01
-.192119523022D-04 0.000000000000D+00 0.000000000000D+00 0.138924691283D-06 0.000000000000D+00  7 -2 2 23 -13 13 23 21 2 0.71004662D-02 0.60080271D+00 0.43941549D+05 0.43941549D+05 0.43941549D+05 0.11522624D+01  1  2  4  2  7  2        2 -.153493218079D-03 0.100000000000D+01
-.135498521159D-04 0.000000000000D+00 -.175443377045D-04 0.138924691283D-06 0.000000000000D+00  7 -2 2 23 -13 13 23 21 2 0.71004662D-02 0.89539080D+00 0.43941549D+05 0.43941549D+05 0.43941549D+05 0.11522624D+01  1  2  5  2  7  2        2 -.315797459249D-06 0.100000000000D+01
0.221379442670D-04 0.000000000000D+00 0.192474288879D-04 0.138924691283D-06 0.000000000000D+00  7 -2 2 23 -13 13 23 21 2 0.71004662D-02 0.60080271D+00 0.43941549D+05 0.43941549D+05 0.43941549D+05 0.11522624D+01  1  2  6  2  7  2        2 0.176870328103D-03 0.100000000000D+01
-.469969053784D-07 0.000000000000D+00 -.833564383875D-06 0.138924691283D-06 0.000000000000D+00  7 -2 21 23 -13 13 23 -2 2 0.71004662D-02 0.89539080D+00 0.43941549D+05 0.43941549D+05 0.43941549D+05 0.11522624D+01  1  2  5  4  7  2        2 -.293924949007D-11 0.100000000000D+01
  </mgrwgt>
  </event>
  <event>
  8     66 0.27870365E-05 0.28481197E+03 0.75467711E-02 0.89353386E-01
       -2 -1    0    0    0  501 0.00000000E+00 0.00000000E+00 0.59453657E+03 0.59453665E+03 0.32000000E+00 0.0000E+00 0.9000E+01
        2 -1    0    0  501    0 0.00000000E+00 0.00000000E+00 -.10344311E+04 0.10344311E+04 0.32000000E+00 0.0000E+00 0.9000E+01
       25  2    1    2    0    0 0.25652212E+03 0.50147502E+03 -.74578924E+03 0.98153624E+03 0.29988497E+03 0.0000E+00 0.0000E+00
       23  2    3    3    0    0 0.24032668E+03 0.32388507E+03 -.37151517E+03 0.55704028E+03 0.98040302E+02 0.0000E+00 0.0000E+00
       23  1    1    2    0    0 -.25652212E+03 -.50147502E+03 0.30589472E+03 0.64743156E+03 0.91188000E+02 0.0000E+00 0.9000E+01
      -13  1    4    4    0    0 0.11985930E+03 0.13767609E+03 -.10599774E+03 0.21108408E+03 0.10565837E+00 0.0000E+00 0.9000E+01
       13  1    4    4    0    0 0.12046738E+03 0.18620898E+03 -.26551743E+03 0.34595620E+03 0.10565837E+00 0.0000E+00 0.9000E+01
       23  1    3    3    0    0 0.16195432E+02 0.17758995E+03 -.37427407E+03 0.42449596E+03 0.91188000E+02 0.0000E+00 0.9000E+01
#aMCatNLO 1  0  0  2  1 0.39092877D+03 0.00000000D+00  -5  7  0 0.00000000D+00 0.00000000D+00 0.00000000D+00 0.00000000D+00 0.00000000D+00
  <mgrwgt>
 0.3889314965D-03    9    2    0
 0.784223961050363D+03 0.000000000000000D+00 0.000000000000000D+00 0.784223961050363D+03
 0.784223961050363D+03 0.000000000000000D+00 0.000000000000000D+00 -.784223961050363D+03
 0.758205964331201D+03 -.256522115596102D+03 -.501475022824581D+03 0.499279719893160D+03
 0.189500188160598D+03 0.119859302681722D+03 0.137676035136743D+03 -.508859334451046D+02
 0.284837006804527D+03 0.120467381284504D+03 0.186209034304799D+03 -.178734232969205D+03
 0.335904762804401D+03 0.161954316298761D+02 0.177589953383039D+03 -.269659553478850D+03
 0.000000000000000D+00 0.000000000000000D+00 -.000000000000000D+00 -.000000000000000D+00
 0.886805686065590D+03 0.000000000000000D+00 0.000000000000000D+00 0.886805686065590D+03
 0.129436734970645D+04 0.000000000000000D+00 0.000000000000000D+00 -.129436734970645D+04
 0.768910688142585D+03 -.415144820169464D+03 -.401600466366480D+03 0.499279719893160D+03
 0.188300766769227D+03 0.806168458829632D+02 0.162384496498840D+03 -.508859334451046D+02
 0.292871331403133D+03 0.604604008664476D+02 0.223991586113903D+03 -.178734232969205D+03
 0.366349764199209D+03 -.567482509576675D+02 0.223517917885007D+03 -.269659553478850D+03
 0.564740485257882D+03 0.330815824377721D+03 -.208293534131271D+03 -.407561663640856D+03
0.150385157965D-03 0.000000000000D+00 0.000000000000D+00 0.133282345899D-06 0.000000000000D+00  7 -2 2 23 -13 13 23 21 0 0.91467175D-01 0.15914326D+00 0.34528506D+06 0.34528506D+06 0.34528506D+06 0.10800633D+01  1  2  2  2  7  2        2 0.466588208880D-03 0.100000000000D+01
-.750847365963D-05 0.000000000000D+00 -.577518603909D-06 0.133282345899D-06 0.000000000000D+00  7 -2 2 23 -13 13 23 21 2 0.91467175D-01 0.15914326D+00 0.34528506D+06 0.34528506D+06 0.34528506D+06 0.10800633D+01  1  2  3  2  7  2        2 -.271755843421D-04 0.100000000000D+01
0.940563731119D-05 0.000000000000D+00 0.000000000000D+00 0.133282345899D-06 0.000000000000D+00  7 -2 2 23 -13 13 23 21 2 0.91467175D-01 0.15914326D+00 0.34528506D+06 0.34528506D+06 0.34528506D+06 0.10800633D+01  1  2 15  2  7  2        2 0.340420305947D-04 0.100000000000D+01
0.332680191747D-04 0.000000000000D+00 0.000000000000D+00 0.133282345899D-06 0.000000000000D+00  7 -2 2 23 -13 13 23 21 2 0.91467175D-01 0.26741364D+00 0.66992130D+06 0.66992130D+06 0.66992130D+06 0.10596451D+01  1  2 12  2  7  2        2 0.445026170143D-04 0.100000000000D+01
-.119665379433D-03 0.000000000000D+00 0.000000000000D+00 0.133282345899D-06 0.000000000000D+00  7 -2 2 23 -13 13 23 21 2 0.91467175D-01 0.15914326D+00 0.34528506D+06 0.34528506D+06 0.34528506D+06 0.10800633D+01  1  2  4  2  7  2        2 -.433107547423D-03 0.100000000000D+01
-.113058154903D-03 0.000000000000D+00 -.476718367039D-04 0.133282345899D-06 0.000000000000D+00  7 -2 2 23 -13 13 23 21 2 0.91467175D-01 0.27672298D+00 0.34528506D+06 0.34528506D+06 0.34528506D+06 0.10800633D+01  1  2  5  2  7  2        2 -.151499454678D-03 0.100000000000D+01
0.126104472007D-03 0.000000000000D+00 0.412042346175D-04 0.133282345899D-06 0.000000000000D+00  7 -2 2 23 -13 13 23 21 2 0.91467175D-01 0.15914326D+00 0.34528506D+06 0.34528506D+06 0.34528506D+06 0.10800633D+01  1  2  6  2  7  2        2 0.456412697211D-03 0.100000000000D+01
0.193251007059D-05 0.000000000000D+00 0.000000000000D+00 0.133282345899D-06 0.000000000000D+00  7 -2 21 23 -13 13 23 -2 2 0.91467175D-01 0.26741364D+00 0.66992130D+06 0.66992130D+06 0.66992130D+06 0.10596451D+01  1  2 12  4  7  2        2 0.657891103609D-06 0.100000000000D+01
-.452757616596D-05 0.000000000000D+00 -.291840820895D-05 0.133282345899D-06 0.000000000000D+00  7 -2 21 23 -13 13 23 -2 2 0.91467175D-01 0.27672298D+00 0.34528506D+06 0.34528506D+06 0.34528506D+06 0.10800633D+01  1  2  5  4  7  2        2 -.148936184836D-05 0.100000000000D+01
  </mgrwgt>
  </event>
  <event>
  8     66 0.27870365E-05 0.29402666E+03 0.75467711E-02 0.90681755E-01
       -2 -1    0    0    0  501 0.00000000E+00 0.00000000E+00 0.31752893E+03 0.31752909E+03 0.32000000E+00 0.0000E+00 0.9000E+01
        2 -1    0    0  501    0 0.00000000E+00 0.00000000E+00 -.47294492E+03 0.47294503E+03 0.32000000E+00 0.0000E+00 0.9000E+01
       25  2    1    2    0    0 -.21323787E+03 -.25328653E+02 0.15297156E+03 0.40378294E+03 0.30582419E+03 0.0000E+00 0.0000E+00
       23  2    3    3    0    0 -.13406844E+02 -.10552126E+03 0.26975928E+02 0.13816396E+03 0.83947002E+02 0.0000E+00 0.0000E+00
       23  1    1    2    0    0 0.21323787E+03 0.25328653E+02 -.30838755E+03 0.38669118E+03 0.91188000E+02 0.0000E+00 0.9000E+01
      -13  1    4    4    0    0 -.19334156E+02 -.46609092E+01 -.18686828E+02 0.27289968E+02 0.10565837E+00 0.0000E+00 0.9000E+01
       13  1    4    4    0    0 0.59273128E+01 -.10086035E+03 0.45662756E+02 0.11087399E+03 0.10565837E+00 0.0000E+00 0.9000E+01
       23  1    3    3    0    0 -.19983103E+03 0.80192606E+02 0.12599563E+03 0.26561898E+03 0.91188000E+02 0.0000E+00 0.9000E+01
#aMCatNLO 1  0  0  1  2 0.62155976D+03 0.00000000D+00  -5  7  0 0.00000000D+00 0.00000000D+00 0.00000000D+00 0.00000000D+00 0.00000000D+00
  <mgrwgt>
 0.1454351693D-02    3    2    0
 0.387522643416500D+03 0.000000000000000D+00 0.000000000000000D+00 0.387522643416500D+03
 0.387522643416500D+03 0.000000000000000D+00 0.000000000000000D+00 -.387522643416500D+03
 0.332549624003772D+03 0.213237883964214D+03 0.253286548083977D+02 -.236985369103477D+03
 0.240858981314692D+02 -.193342011911471D+02 -.466075323800121D+01 -.135866306475969D+02
 0.122237831724776D+03 0.592734118496165D+01 -.100860487652201D+03 0.688049137911811D+02
 0.296171932972983D+03 -.199831023958028D+03 0.801925860818047D+02 0.181767085959893D+03
 0.000000000000000D+00 -.000000000000000D+00 0.000000000000000D+00 -.000000000000000D+00
 0.518542436823832D+03 0.000000000000000D+00 0.000000000000000D+00 0.518542436823832D+03
 0.492821124607240D+04 0.000000000000000D+00 0.000000000000000D+00 -.492821124607240D+04
 0.585807683167936D+03 0.524478396362943D+03 -.601309977800918D+02 -.236985369103477D+03
 0.169123034696562D+02 -.543949901573900D+01 -.847592630650486D+01 -.135866306475969D+02
 0.182691874750222D+03 0.109271080432988D+03 -.129236356800037D+03 0.688049137911811D+02
 0.208082842210683D+03 -.289340175509941D+02 0.332681073775419D+02 0.181767085959893D+03
 0.445325897929773D+04 -.599375960229198D+03 0.164575173509092D+03 -.440966880924856D+04
0.442724166120D-04 0.000000000000D+00 0.000000000000D+00 0.268526229516D-09 0.000000000000D+00  7 -2 2 23 -13 13 23 21 0 0.48850625D-01 0.72760778D-01 0.86451677D+05 0.86451677D+05 0.86451677D+05 0.11269477D+01  1  2  2  1  7  1       -2 0.143291647868D-02 0.100000000000D+01
-.223160376317D-05 0.000000000000D+00 -.170017736985D-06 0.268526229516D-09 0.000000000000D+00  7 -2 2 23 -13 13 23 21 2 0.48850625D-01 0.72760778D-01 0.86451677D+05 0.86451677D+05 0.86451677D+05 0.11269477D+01  1  2  3  1  7  1       -2 -.917301884419D-04 0.100000000000D+01
0.275307771636D-05 0.000000000000D+00 0.000000000000D+00 0.268526229516D-09 0.000000000000D+00  7 -2 2 23 -13 13 23 21 2 0.48850625D-01 0.72760778D-01 0.86451677D+05 0.86451677D+05 0.86451677D+05 0.11269477D+01  1  2 15  1  7  1       -2 0.113165402337D-03 0.100000000000D+01
  </mgrwgt>
  </event>
  <event>
  8     66 0.27870365E-05 0.11191051E+03 0.75467711E-02 0.99653845E-01
       -2 -1    0    0    0  501 0.00000000E+00 0.00000000E+00 0.13617927E+03 0.13617964E+03 0.32000000E+00 0.0000E+00 0.9000E+01
        2 -1    0    0  501    0 0.00000000E+00 0.00000000E+00 -.92361215E+03 0.92361220E+03 0.32000000E+00 0.0000E+00 0.9000E+01
       25  2    1    2    0    0 0.38661881E+02 -.25668901E+03 -.28977339E+03 0.49114062E+03 0.29977743E+03 0.0000E+00 0.0000E+00
       23  2    3    3    0    0 0.11398196E+03 -.81742853E+02 -.20319675E+03 0.26290821E+03 0.90321784E+02 0.0000E+00 0.0000E+00
       23  1    1    2    0    0 -.38661881E+02 0.25668901E+03 -.49765949E+03 0.56865122E+03 0.91188000E+02 0.0000E+00 0.9000E+01
      -13  1    4    4    0    0 0.24906400E+02 0.19914080E+01 -.99531437E+02 0.10261975E+03 0.10565837E+00 0.0000E+00 0.9000E+01
       13  1    4    4    0    0 0.89075560E+02 -.83734261E+02 -.10366531E+03 0.16028846E+03 0.10565837E+00 0.0000E+00 0.9000E+01
       23  1    3    3    0    0 -.75320079E+02 -.17494615E+03 -.86576639E+02 0.22823242E+03 0.91188000E+02 0.0000E+00 0.9000E+01
#aMCatNLO 1  0  0  2  1 0.22700028D+02 0.00000000D+00  -5  7  0 0.00000000D+00 0.00000000D+00 0.00000000D+00 0.00000000D+00 0.00000000D+00
  <mgrwgt>
 0.4464733722D-03    9    2    0
 0.354650605607383D+03 0.000000000000000D+00 0.000000000000000D+00 0.354650605607383D+03
 0.354650605607383D+03 0.000000000000000D+00 0.000000000000000D+00 -.354650605607383D+03
 0.297163563093264D+03 -.386618811780465D+02 0.256689005855902D+03 -.112280653287944D+03
 0.428325309912155D+02 0.249063126562679D+02 0.199152519426719D+01 -.347898710601559D+02
 0.124408365715293D+03 0.890756476436960D+02 -.837343780674189D+02 0.230548126530857D+02
 0.244896751414993D+03 -.753200791219174D+02 -.174946152982750D+03 0.124015711695015D+03
 0.000000000000000D+00 -.000000000000000D+00 -.000000000000000D+00 -.000000000000000D+00
 0.360824454354448D+03 0.000000000000000D+00 0.000000000000000D+00 0.360824454354448D+03
 0.376330324165611D+03 0.000000000000000D+00 0.000000000000000D+00 -.376330324165611D+03
 0.299558564160086D+03 -.299566124728830D+02 0.260606481661594D+03 -.112280653287944D+03
 0.436074921403810D+02 0.261673411884336D+02 0.255900322766966D+01 -.347898710601559D+02
 0.125971969348685D+03 0.927283161064082D+02 -.820906332487897D+02 0.230548126530857D+02
 0.240526331290656D+03 -.682384942809259D+02 -.171759354479439D+03 0.124015711695015D+03
 0.274904215802497D+02 -.207005505410329D+02 -.931549716103485D+01 -.155058698111634D+02
0.345168326350D-05 0.000000000000D+00 0.000000000000D+00 0.298691596036D-06 0.000000000000D+00  7 -2 2 23 -13 13 23 21 0 0.20950689D-01 0.14209421D+00 0.10034589D+06 0.10034589D+06 0.10034589D+06 0.11215990D+01  1  2  2  2  7  2        2 0.227298029898D-03 0.100000000000D+01
-.188786014425D-06 0.000000000000D+00 -.132553725809D-07 0.298691596036D-06 0.000000000000D+00  7 -2 2 23 -13 13 23 21 2 0.20950689D-01 0.14209421D+00 0.10034589D+06 0.10034589D+06 0.10034589D+06 0.11215990D+01  1  2  3  2  7  2        2 -.156390289448D-04 0.100000000000D+01
0.221172118911D-06 0.000000000000D+00 0.000000000000D+00 0.298691596036D-06 0.000000000000D+00  7 -2 2 23 -13 13 23 21 2 0.20950689D-01 0.14209421D+00 0.10034589D+06 0.10034589D+06 0.10034589D+06 0.11215990D+01  1  2 15  2  7  2        2 0.183218930701D-04 0.100000000000D+01
0.134452308705D-04 0.000000000000D+00 0.000000000000D+00 0.298691596036D-06 0.000000000000D+00  7 -2 2 23 -13 13 23 21 2 0.20950689D-01 0.15196647D+00 0.10779610D+06 0.10779610D+06 0.10779610D+06 0.11190564D+01  1  2 12  2  7  2        2 0.101057294306D-02 0.100000000000D+01
-.134093778828D-04 0.000000000000D+00 0.000000000000D+00 0.298691596036D-06 0.000000000000D+00  7 -2 2 23 -13 13 23 21 2 0.20950689D-01 0.14209421D+00 0.10034589D+06 0.10034589D+06 0.10034589D+06 0.11215990D+01  1  2  4  2  7  2        2 -.111083254487D-02 0.100000000000D+01
-.405380971669D-04 0.000000000000D+00 -.611535122294D-05 0.298691596036D-06 0.000000000000D+00  7 -2 2 23 -13 13 23 21 2 0.20950689D-01 0.15233165D+00 0.10034589D+06 0.10034589D+06 0.10034589D+06 0.11215990D+01  1  2  5  2  7  2        2 -.305318002691D-02 0.100000000000D+01
0.408793430655D-04 0.000000000000D+00 0.610058199649D-05 0.298691596036D-06 0.000000000000D+00  7 -2 2 23 -13 13 23 21 2 0.20950689D-01 0.14209421D+00 0.10034589D+06 0.10034589D+06 0.10034589D+06 0.11215990D+01  1  2  6  2  7  2        2 0.338644380725D-02 0.100000000000D+01
0.173009143342D-06 0.000000000000D+00 0.000000000000D+00 0.298691596036D-06 0.000000000000D+00  7 -2 21 23 -13 13 23 -2 2 0.20950689D-01 0.15196647D+00 0.10779610D+06 0.10779610D+06 0.10779610D+06 0.11190564D+01  1  2 12  4  7  2        2 0.967045889710D-05 0.100000000000D+01
-.467646436107D-06 0.000000000000D+00 -.720789750753D-07 0.298691596036D-06 0.000000000000D+00  7 -2 21 23 -13 13 23 -2 2 0.20950689D-01 0.15233165D+00 0.10034589D+06 0.10034589D+06 0.10034589D+06 0.11215990D+01  1  2  5  4  7  2        2 -.261821592595D-04 0.100000000000D+01
  </mgrwgt>
  </event>
  <event>
  8     66 0.27870365E-05 0.16333436E+03 0.75467711E-02 0.95179935E-01
       -2 -1    0    0    0  501 0.00000000E+00 0.00000000E+00 0.19908672E+02 0.19911244E+02 0.32000000E+00 0.0000E+00 0.9000E+01
        2 -1    0    0  501    0 0.00000000E+00 0.00000000E+00 -.27598593E+04 0.27598593E+04 0.32000000E+00 0.0000E+00 0.9000E+01
       25  2    1    2    0    0 -.51943750E+02 0.87169996E+02 -.22033983E+04 0.22261458E+04 0.30077257E+03 0.0000E+00 0.0000E+00
       23  2    3    3    0    0 -.24457065E+01 -.26805457E+02 -.16088497E+04 0.16119440E+04 0.96134021E+02 0.0000E+00 0.0000E+00
       23  1    1    2    0    0 0.51943750E+02 -.87169996E+02 -.53655227E+03 0.55362474E+03 0.91188000E+02 0.0000E+00 0.9000E+01
      -11  1    4    4    0    0 0.10277426E+02 -.65278361E+01 -.23982479E+02 0.26896049E+02 0.51099893E-03 0.0000E+00 0.9000E+01
       11  1    4    4    0    0 -.12723132E+02 -.20277621E+02 -.15848672E+04 0.15850480E+04 0.51099893E-03 0.0000E+00 0.9000E+01
       23  1    3    3    0    0 -.49498043E+02 0.11397545E+03 -.59454866E+03 0.61420177E+03 0.91188000E+02 0.0000E+00 0.9000E+01
#aMCatNLO 1  0  0  1  1 0.41261722D+03 0.00000000D+00  -5  7  0 0.00000000D+00 0.00000000D+00 0.00000000D+00 0.00000000D+00 0.00000000D+00
  <mgrwgt>
 0.6907325543D-03    5    2    0
 0.234411461097130D+03 0.000000000000000D+00 0.000000000000000D+00 0.234411461097130D+03
 0.234411461097130D+03 0.000000000000000D+00 0.000000000000000D+00 -.234411461097130D+03
 0.146799608341831D+03 0.519437498834879D+02 -.871699964091545D+02 0.542043562768215D+02
 0.193122707591693D+02 0.102774257855899D+02 -.652783606596821D+01 0.149908531242556D+02
 0.135684143463828D+03 -.127231322277862D+02 -.202776207578407D+02 -.133555706692856D+03
 0.167026899629432D+03 -.494980434412915D+02 0.113975453232963D+03 0.643604972917787D+02
 0.000000000000000D+00 -.000000000000000D+00 0.000000000000000D+00 0.000000000000000D+00
 0.622890067056937D+03 0.000000000000000D+00 0.000000000000000D+00 0.622890067056937D+03
 0.449295371451585D+03 0.000000000000000D+00 0.000000000000000D+00 -.449295371451585D+03
 0.269583716554877D+03 0.194131811093373D+03 -.154061210464420D+03 0.542043562768215D+02
 0.363571610708766D+02 0.292876216970945D+02 -.154710277314903D+02 0.149908531242556D+02
 0.178214934215131D+03 0.944682431276374D+02 -.707049293009542D+02 -.133555706692856D+03
 0.140382341953264D+03 0.554771595630263D+02 0.645907249027016D+02 0.643604972917787D+02
 0.447647284714374D+03 -.373364835481131D+03 0.175646442594163D+03 0.173594695605352D+03
0.424728631972D-05 0.000000000000D+00 0.000000000000D+00 0.420082907684D-08 0.000000000000D+00  7 -2 2 23 -11 11 23 21 0 0.30630719D-02 0.42459393D+00 0.26678112D+05 0.26678112D+05 0.26678112D+05 0.11720944D+01  1  2  2  1  7  1       -2 0.521018760621D-03 0.100000000000D+01
-.198514388918D-06 0.000000000000D+00 -.163106978039D-07 0.420082907684D-08 0.000000000000D+00  7 -2 2 23 -11 11 23 21 2 0.30630719D-02 0.42459393D+00 0.26678112D+05 0.26678112D+05 0.26678112D+05 0.11720944D+01  1  2  3  1  7  1       -2 -.334548417012D-04 0.100000000000D+01
0.261017972380D-06 0.000000000000D+00 0.000000000000D+00 0.420082907684D-08 0.000000000000D+00  7 -2 2 23 -11 11 23 21 2 0.30630719D-02 0.42459393D+00 0.26678112D+05 0.26678112D+05 0.26678112D+05 0.11720944D+01  1  2 15  1  7  1       -2 0.439883224322D-04 0.100000000000D+01
0.114127587741D-04 0.000000000000D+00 -.356971745408D-05 0.420082907684D-08 0.000000000000D+00  7 -2 2 23 -11 11 23 21 2 0.35515793D-01 0.42459393D+00 0.26678112D+05 0.26678112D+05 0.26678112D+05 0.11720944D+01  1  2  5  1  7  1       -2 0.426838039768D-04 0.100000000000D+01
0.261366913423D-05 0.000000000000D+00 -.102279200532D-05 0.420082907684D-08 0.000000000000D+00  7 21 2 23 -11 11 23 2 2 0.35515793D-01 0.42459393D+00 0.26678112D+05 0.26678112D+05 0.26678112D+05 0.11720944D+01  1  2  5  3  7  1       -2 0.116496508940D-03 0.100000000000D+01
  </mgrwgt>
  </event>
  <event>
  8     66 0.27870365E-05 0.46429527E+03 0.75467711E-02 0.91312834E-01
       -2 -1    0    0    0  501 0.00000000E+00 0.00000000E+00 0.43721725E+03 0.43721736E+03 0.32000000E+00 0.0000E+00 0.9000E+01
        2 -1    0    0  501    0 0.00000000E+00 0.00000000E+00 -.69542177E+03 0.69542185E+03 0.32000000E+00 0.0000E+00 0.9000E+01
       25  2    1    2    0    0 0.38865249E+03 0.14250205E+03 -.43714987E+03 0.67253674E+03 0.29974667E+03 0.0000E+00 0.0000E+00
       23  2    3    3    0    0 0.29037820E+03 -.13901659E+02 -.24410887E+03 0.39022479E+03 0.90407372E+02 0.0000E+00 0.0000E+00
       23  1    1    2    0    0 -.38865249E+03 -.14250205E+03 0.17894535E+03 0.46010247E+03 0.91188000E+02 0.0000E+00 0.9000E+01
      -11  1    4    4    0    0 0.19055459E+03 0.23743410E+02 -.19179087E+03 0.27140106E+03 0.51099893E-03 0.0000E+00 0.9000E+01
       11  1    4    4    0    0 0.99823616E+02 -.37645069E+02 -.52317998E+02 0.11882373E+03 0.51099893E-03 0.0000E+00 0.9000E+01
       23  1    3    3    0    0 0.98274288E+02 0.15640371E+03 -.19304101E+03 0.28231195E+03 0.91188000E+02 0.0000E+00 0.9000E+01
#aMCatNLO 1  0  0  1  1 0.37401418D+03 0.00000000D+00  -5  7  0 0.00000000D+00 0.00000000D+00 0.00000000D+00 0.00000000D+00 0.00000000D+00
  <mgrwgt>
 0.6242086298D-03    3    2    0
 0.551407744780744D+03 0.000000000000000D+00 0.000000000000000D+00 0.551407744780744D+03
 0.551407744780744D+03 0.000000000000000D+00 0.000000000000000D+00 -.551407744780744D+03
 0.514441988958117D+03 -.388652488708465D+03 -.142502053810803D+03 0.291509376074944D+03
 0.233836228375981D+03 0.190554585508042D+03 0.237434101326489D+02 -.133433811750376D+03
 0.109787785039104D+03 0.998236156084497D+02 -.376450693665447D+02 -.259123959339352D+02
 0.244749487188286D+03 0.982742875919731D+02 0.156403713044699D+03 -.132163168390632D+03
 0.000000000000000D+00 -.000000000000000D+00 -.000000000000000D+00 -.000000000000000D+00
 0.600249276586667D+03 0.000000000000000D+00 0.000000000000000D+00 0.600249276586667D+03
 0.252586117880924D+04 0.000000000000000D+00 0.000000000000000D+00 -.252586117880924D+04
 0.408177486170815D+03 -.265521273142411D+03 -.530504103844291D+02 0.291509376074944D+03
 0.303935862181805D+03 0.262324728013028D+03 0.758825623898764D+02 -.133433811750376D+03
 0.135815850618577D+03 0.132601456333898D+03 -.138328158499996D+02 -.259123959339352D+02
 0.316582978262321D+03 0.173188757393258D+03 0.210827137757382D+03 -.132163168390632D+03
 0.196159827816239D+04 -.302593668597772D+03 -.219826473912830D+03 -.192561190222258D+04
0.581785205107D-04 0.000000000000D+00 0.000000000000D+00 0.100388345652D-05 0.000000000000D+00  7 -2 2 23 -11 11 23 21 0 0.67264207D-01 0.10698798D+00 0.21557010D+06 0.21557010D+06 0.21557010D+06 0.10953335D+01  1  2  2  1  7  1       -2 0.617739275352D-03 0.100000000000D+01
-.311594291090D-05 0.000000000000D+00 -.223420837517D-06 0.100388345652D-05 0.000000000000D+00  7 -2 2 23 -11 11 23 21 2 0.67264207D-01 0.10698798D+00 0.21557010D+06 0.21557010D+06 0.21557010D+06 0.10953335D+01  1  2  3  1  7  1       -2 -.396939934630D-04 0.100000000000D+01
0.362378143351D-05 0.000000000000D+00 0.000000000000D+00 0.100388345652D-05 0.000000000000D+00  7 -2 2 23 -11 11 23 21 2 0.67264207D-01 0.10698798D+00 0.21557010D+06 0.21557010D+06 0.21557010D+06 0.10953335D+01  1  2 15  1  7  1       -2 0.461633478681D-04 0.100000000000D+01
  </mgrwgt>
  </event>
  <event>
  8     66 0.27870365E-05 0.24461055E+03 0.75467711E-02 0.77863657E-01
       -2 -1    0    0    0  501 0.00000000E+00 0.00000000E+00 0.25159750E+03 0.25159770E+03 0.32000000E+00 0.0000E+00 0.9000E+01
        2 -1    0    0  501    0 0.00000000E+00 0.00000000E+00 -.34646807E+03 0.34646822E+03 0.32000000E+00 0.0000E+00 0.9000E+01
       25  2    1    2    0    0 -.14609143E+03 -.49249230E+02 0.81020775E+02 0.34702566E+03 0.30015704E+03 0.0000E+00 0.0000E+00
       23  2    3    3    0    0 -.77943521E+02 -.14198403E+03 0.73970171E+02 0.20002619E+03 0.91127573E+02 0.0000E+00 0.0000E+00
       23  1    1    2    0    0 0.14609143E+03 0.49249230E+02 -.17589135E+03 0.25104026E+03 0.91188000E+02 0.0000E+00 0.9000E+01
      -13  1    4    4    0    0 -.10144469E+02 -.36459290E+02 -.20464012E+02 0.43022982E+02 0.10565837E+00 0.0000E+00 0.9000E+01
       13  1    4    4    0    0 -.67799052E+02 -.10552474E+03 0.94434182E+02 0.15700321E+03 0.10565837E+00 0.0000E+00 0.9000E+01
       23  1    3    3    0    0 -.68147907E+02 0.92734801E+02 0.70506044E+01 0.14699947E+03 0.91188000E+02 0.0000E+00 0.9000E+01
#aMCatNLO 1  0  0  1  1 0.30131921D+04 0.00000000D+00  -5  7  0 0.00000000D+00 0.00000000D+00 0.00000000D+00 0.00000000D+00 0.00000000D+00
  <mgrwgt>
 0.5716415084D-03    3    2    0
 0.295246682381628D+03 0.000000000000000D+00 0.000000000000000D+00 0.295246682381628D+03
 0.295246682381628D+03 0.000000000000000D+00 0.000000000000000D+00 -.295246682381628D+03
 0.226000350663792D+03 0.146091428420327D+03 0.492492304424705D+02 -.137814059511683D+03
 0.402867189525826D+02 -.101443918295789D+02 -.364591964876288D+02 -.138144138438380D+02
 0.174188919349100D+03 -.677991294525627D+02 -.105524834909802D+03 0.120870041311901D+03
 0.150017375797782D+03 -.681479071381858D+02 0.927348009549607D+02 0.307584320436197D+02
 0.000000000000000D+00 -.000000000000000D+00 0.000000000000000D+00 -.000000000000000D+00
 0.280970165705512D+04 0.000000000000000D+00 0.000000000000000D+00 0.280970165705512D+04
 0.331628364504275D+04 0.000000000000000D+00 0.000000000000000D+00 -.331628364504275D+04
 0.189991931811608D+04 0.189099355392533D+04 -.808011634844518D+02 -.137814059511683D+03
 0.171692802226724D+03 0.163843140484655D+03 -.494267703045790D+02 -.138144138438380D+02
 0.600776364761105D+03 0.568273150838523D+03 -.152932336688110D+03 0.120870041311901D+03
 0.398117822829286D+03 0.381747866062598D+03 0.592033371120325D+02 0.307584320436197D+02
 0.305547899416468D+04 -.300485771131110D+04 0.223956933365108D+03 -.506581987987626D+03
0.800101548668D-05 0.000000000000D+00 0.000000000000D+00 0.421855504862D-06 0.000000000000D+00  7 -2 2 23 -13 13 23 21 0 0.38707334D-01 0.53302807D-01 0.59834320D+05 0.59834320D+05 0.59834320D+05 0.11404988D+01  1  2  2  1  7  1       -2 0.565720095510D-03 0.100000000000D+01
-.425370010035D-06 0.000000000000D+00 -.307260061846D-07 0.421855504862D-06 0.000000000000D+00  7 -2 2 23 -13 13 23 21 2 0.38707334D-01 0.53302807D-01 0.59834320D+05 0.59834320D+05 0.59834320D+05 0.11404988D+01  1  2  3  1  7  1       -2 -.391212770290D-04 0.100000000000D+01
0.489754193054D-06 0.000000000000D+00 0.000000000000D+00 0.421855504862D-06 0.000000000000D+00  7 -2 2 23 -13 13 23 21 2 0.38707334D-01 0.53302807D-01 0.59834320D+05 0.59834320D+05 0.59834320D+05 0.11404988D+01  1  2 15  1  7  1       -2 0.450426899183D-04 0.100000000000D+01
  </mgrwgt>
  </event>
  <event>
  9     66 0.27870365E-05 0.17199460E+03 0.75467711E-02 0.10747676E+00
       -2 -1    0    0    0  502 0.00000000E+00 0.00000000E+00 0.18923598E+03 0.18923625E+03 0.32000000E+00 0.0000E+00 0.9000E+01
        2 -1    0    0  501    0 0.00000000E+00 0.00000000E+00 -.28452716E+03 0.28452734E+03 0.32000000E+00 0.0000E+00 0.9000E+01
       25  2    1    2    0    0 -.17325049E+02 -.35396712E+01 0.27450632E+02 0.29992920E+03 0.29814645E+03 0.0000E+00 0.0000E+00
       23  2    3    3    0    0 0.80377651E+02 0.23443423E+02 -.60463438E+02 0.13770085E+03 0.91079828E+02 0.0000E+00 0.0000E+00
       23  1    1    2    0    0 0.29991620E+02 -.17739827E+02 -.10495536E+03 0.14333554E+03 0.91188000E+02 0.0000E+00 0.9000E+01
      -11  1    4    4    0    0 0.81670291E+02 0.42298425E+02 -.70883684E+02 0.11611929E+03 0.51099893E-03 0.0000E+00 0.9000E+01
       11  1    4    4    0    0 -.12926405E+01 -.18855002E+02 0.10420246E+02 0.21581555E+02 0.51099893E-03 0.0000E+00 0.9000E+01
       23  1    3    3    0    0 -.97702700E+02 -.26983094E+02 0.87914071E+02 0.16222836E+03 0.91188000E+02 0.0000E+00 0.9000E+01
       21  1    1    2  501  502 -.12666571E+02 0.21279498E+02 -.17786445E+02 0.30498839E+02 0.75000000E+00 0.0000E+00 0.9000E+01
#aMCatNLO 2  0  0  1  1 0.24764068D+02 0.00000000D+00  -5  7  0 0.00000000D+00 0.00000000D+00 0.00000000D+00 0.00000000D+00 0.00000000D+00
  <mgrwgt>
 0.5123838822D-03    1    2    0
 0.217866585170261D+03 0.000000000000000D+00 0.000000000000000D+00 0.217866585170261D+03
 0.217866585170261D+03 0.000000000000000D+00 0.000000000000000D+00 -.217866585170261D+03
 0.125406269969533D+03 0.263267851890190D+02 -.115830034735002D+02 -.811431797245808D+02
 0.105209742132411D+03 0.786123455491499D+02 0.474356909841090D+02 -.513716282366995D+02
 0.229248312713022D+02 -.197078805419996D+01 -.177157318909560D+02 0.144158498476802D+02
 0.182192326967275D+03 -.102968342683969D+03 -.181369556196527D+02 0.118098958113600D+03
 0.000000000000000D+00 -.000000000000000D+00 0.000000000000000D+00 -.000000000000000D+00
 0.225797589578602D+03 0.000000000000000D+00 0.000000000000000D+00 0.225797589578602D+03
 0.238445891075043D+03 0.000000000000000D+00 0.000000000000000D+00 -.238445891075043D+03
 0.126939614386382D+03 0.299916199644139D+02 -.177398273006803D+02 -.811431797245808D+02
 0.105348172123498D+03 0.816702910685280D+02 0.422984247798237D+02 -.513716282366995D+02
 0.237697019428109D+02 -.129264048075846D+01 -.188550015700534D+02 0.144158498476802D+02
 0.180378823978794D+03 -.977026995928062D+02 -.269830943505875D+02 0.118098958113600D+03
 0.278071682221598D+02 -.126665709593773D+02 0.212794984414975D+02 -.126483014964405D+02
0.262134889557D-05 0.000000000000D+00 0.000000000000D+00 0.220203304957D-07 0.259578894569D-09  7 -2 2 23 -11 11 23 21 2 0.29112620D-01 0.43772478D-01 0.34150700D+05 0.34150700D+05 0.34150700D+05 0.11621501D+01  1  2  1  1  7  1       -2 0.512383882191D-03 0.100000000000D+01
  </mgrwgt>
  </event>
  <event>
  8     66 0.27870365E-05 0.23518040E+03 0.75467711E-02 0.96750297E-01
       -2 -1    0    0    0  501 0.00000000E+00 0.00000000E+00 0.13733550E+04 0.13733550E+04 0.32000000E+00 0.0000E+00 0.9000E+01
        2 -1    0    0  501    0 0.00000000E+00 0.00000000E+00 -.83192632E+02 0.83193247E+02 0.32000000E+00 0.0000E+00 0.9000E+01
       25  2    1    2    0    0 -.13610133E+03 0.21794354E+03 0.86224897E+03 0.94915486E+03 0.30232217E+03 0.0000E+00 0.0000E+00
       23  2    3    3    0    0 -.14890826E+03 0.17357270E+02 0.36641661E+03 0.40641749E+03 0.91864565E+02 0.0000E+00 0.0000E+00
       23  1    1    2    0    0 0.13610133E+03 -.21794354E+03 0.42791337E+03 0.50739340E+03 0.91188000E+02 0.0000E+00 0.9000E+01
      -13  1    4    4    0    0 -.15309063E+03 0.34561642E+02 0.31300510E+03 0.35014775E+03 0.10565837E+00 0.0000E+00 0.9000E+01
       13  1    4    4    0    0 0.41823605E+01 -.17204372E+02 0.53411510E+02 0.56269736E+02 0.10565837E+00 0.0000E+00 0.9000E+01
       23  1    3    3    0    0 0.12806931E+02 0.20058627E+03 0.49583236E+03 0.54273737E+03 0.91188000E+02 0.0000E+00 0.9000E+01
#aMCatNLO 1  0  0  1  2 0.14795547D+03 0.00000000D+00  -5  7  0 0.00000000D+00 0.00000000D+00 0.00000000D+00 0.00000000D+00 0.00000000D+00
  <mgrwgt>
 0.8809609765D-03    9    2    0
 0.338014037902358D+03 0.000000000000000D+00 0.000000000000000D+00 0.338014037902358D+03
 0.338014037902358D+03 0.000000000000000D+00 0.000000000000000D+00 -.338014037902358D+03
 0.276564342535471D+03 0.136101336489127D+03 -.217943542085103D+03 -.463640257888578D+02
 0.157064234054406D+03 -.153090830358566D+03 0.345617156136180D+02 0.615297432673123D+01
 0.193038462815928D+02 0.418256963072546D+01 -.172044384739530D+02 0.769102654679213D+01
 0.223095652933247D+03 0.128069242387138D+02 0.200586264945438D+03 0.325200249153344D+02
 0.000000000000000D+00 -.000000000000000D+00 0.000000000000000D+00 0.000000000000000D+00
 0.439205663400850D+03 0.000000000000000D+00 0.000000000000000D+00 0.439205663400850D+03
 0.404740460887995D+03 0.000000000000000D+00 0.000000000000000D+00 -.404740460887995D+03
 0.338877263846050D+03 0.178340394788273D+03 -.269383795554222D+03 -.463640257888578D+02
 0.133673410980559D+03 -.133136891250368D+03 0.102610866042397D+02 0.615297432673123D+01
 0.232516972555903D+02 0.710324653293772D+01 -.207613444799337D+02 0.769102654679213D+01
 0.196227092937513D+03 0.415859306064002D+02 0.165538149723298D+03 0.325200249153344D+02
 0.151916659269133D+03 -.938926806772423D+02 0.114345903706618D+03 0.344652025128545D+02
0.895703361643D-04 0.000000000000D+00 0.000000000000D+00 0.207060057597D-07 0.000000000000D+00  7 -2 2 23 -13 13 23 21 0 0.21128543D+00 0.12798917D-01 0.11156011D+06 0.11156011D+06 0.11156011D+06 0.11178441D+01  1  2  2  1  7  1       -2 0.585996218593D-03 0.100000000000D+01
-.497526897566D-05 0.000000000000D+00 -.343973675282D-06 0.207060057597D-07 0.000000000000D+00  7 -2 2 23 -13 13 23 21 2 0.21128543D+00 0.12798917D-01 0.11156011D+06 0.11156011D+06 0.11156011D+06 0.11178441D+01  1  2  3  1  7  1       -2 -.406733234873D-04 0.100000000000D+01
0.582141779974D-05 0.000000000000D+00 0.000000000000D+00 0.207060057597D-07 0.000000000000D+00  7 -2 2 23 -13 13 23 21 2 0.21128543D+00 0.12798917D-01 0.11156011D+06 0.11156011D+06 0.11156011D+06 0.11178441D+01  1  2 15  1  7  1       -2 0.475906750936D-04 0.100000000000D+01
0.328109325950D-04 0.000000000000D+00 0.000000000000D+00 0.207060057597D-07 0.000000000000D+00  7 -2 2 23 -13 13 23 21 2 0.29022808D+00 0.12798917D-01 0.17331996D+06 0.17331996D+06 0.17331996D+06 0.11026333D+01  1  2 12  1  7  1       -2 0.800985325696D-04 0.100000000000D+01
-.410574010820D-04 0.000000000000D+00 0.000000000000D+00 0.207060057597D-07 0.000000000000D+00  7 -2 2 23 -13 13 23 21 2 0.21128543D+00 0.12798917D-01 0.11156011D+06 0.11156011D+06 0.11156011D+06 0.11178441D+01  1  2  4  1  7  1       -2 -.335648376787D-03 0.100000000000D+01
-.825305957154D-04 0.000000000000D+00 -.330059966408D-04 0.207060057597D-07 0.000000000000D+00  7 -2 2 23 -13 13 23 21 2 0.30206706D+00 0.12798917D-01 0.11156011D+06 0.11156011D+06 0.11156011D+06 0.11178441D+01  1  2  5  1  7  1       -2 -.177228302650D-03 0.100000000000D+01
0.904877136732D-04 0.000000000000D+00 0.310042278224D-04 0.207060057597D-07 0.000000000000D+00  7 -2 2 23 -13 13 23 21 2 0.21128543D+00 0.12798917D-01 0.11156011D+06 0.11156011D+06 0.11156011D+06 0.11178441D+01  1  2  6  1  7  1       -2 0.739746145960D-03 0.100000000000D+01
0.132113935015D-05 0.000000000000D+00 0.000000000000D+00 0.207060057597D-07 0.000000000000D+00  7 21 2 23 -13 13 23 2 2 0.29022808D+00 0.12798917D-01 0.17331996D+06 0.17331996D+06 0.17331996D+06 0.11026333D+01  1  2 12  3  7  1       -2 0.238669293913D-04 0.100000000000D+01
-.265743914198D-05 0.000000000000D+00 -.144763346074D-05 0.207060057597D-07 0.000000000000D+00  7 21 2 23 -13 13 23 2 2 0.30206706D+00 0.12798917D-01 0.11156011D+06 0.11156011D+06 0.11156011D+06 0.11178441D+01  1  2  5  3  7  1       -2 -.427875221684D-04 0.100000000000D+01
  </mgrwgt>
  </event>
  <event>
  9     66 0.27870365E-05 0.53996088E+03 0.75467711E-02 0.93547713E-01
       -2 -1    0    0    0  501 0.00000000E+00 0.00000000E+00 0.27959595E+03 0.27959613E+03 0.32000000E+00 0.0000E+00 0.9000E+01
        2 -1    0    0  502    0 0.00000000E+00 0.00000000E+00 -.12642230E+04 0.12642230E+04 0.32000000E+00 0.0000E+00 0.9000E+01
       25  2    1    2    0    0 -.19269173E+02 0.51173331E+03 -.77329885E+03 0.97484469E+03 0.30014793E+03 0.0000E+00 0.0000E+00
       23  2    3    3    0    0 -.73826168E+02 0.43377197E+03 -.50583241E+03 0.67667027E+03 0.91694067E+02 0.0000E+00 0.0000E+00
       23  1    1    2    0    0 0.27799268E+01 -.49883923E+03 -.20603811E+03 0.54737123E+03 0.91188000E+02 0.0000E+00 0.9000E+01
      -13  1    4    4    0    0 -.14311289E+02 0.33450199E+02 -.86718702E+02 0.94041870E+02 0.10565837E+00 0.0000E+00 0.9000E+01
       13  1    4    4    0    0 -.59514880E+02 0.40032178E+03 -.41911371E+03 0.58262840E+03 0.10565837E+00 0.0000E+00 0.9000E+01
       23  1    3    3    0    0 0.54556995E+02 0.77961332E+02 -.26746643E+03 0.29817441E+03 0.91188000E+02 0.0000E+00 0.9000E+01
       21  1    1    2  502  501 0.16489246E+02 -.12894079E+02 -.52900735E+01 0.21603238E+02 0.75000000E+00 0.0000E+00 0.9000E+01
#aMCatNLO 2  0  0  2  2 0.20932093D+02 0.00000000D+00  -5  7  0 0.00000000D+00 0.00000000D+00 0.00000000D+00 0.00000000D+00 0.00000000D+00
  <mgrwgt>
 0.1704869885D-03    2    2    0
 0.582580949099417D+03 0.000000000000000D+00 0.000000000000000D+00 0.582580949099417D+03
 0.582580949099417D+03 0.000000000000000D+00 0.000000000000000D+00 -.582580949099417D+03
 0.547489891440162D+03 0.104873646687489D+02 -.504866205157836D+03 0.190866602518594D+03
 0.493985947494829D+02 -.136082063270956D+02 0.328999704281566D+02 -.342436830613948D+02
 0.403626392268791D+03 -.537664858977860D+02 0.395827149991873D+03 -.578298958968014D+02
 0.164647019740398D+03 0.568873275561327D+02 0.761390847378064D+02 -.987930235603976D+02
 0.000000000000000D+00 0.000000000000000D+00 -.000000000000000D+00 0.000000000000000D+00
 0.600177961841135D+03 0.000000000000000D+00 0.000000000000000D+00 0.600177961841135D+03
 0.588933198086227D+03 0.000000000000000D+00 0.000000000000000D+00 -.588933198086227D+03
 0.541842795107690D+03 0.277992676452055D+01 -.498839227924495D+03 0.190866602518594D+03
 0.499632297261546D+02 -.143112285549733D+02 0.334497119913842D+02 -.342436830613948D+02
 0.408832775962495D+03 -.595149396678718D+02 0.400322262431275D+03 -.578298958968014D+02
 0.164711104394820D+03 0.545569951229162D+02 0.779613323764679D+02 -.987930235603976D+02
 0.237612547362019D+02 0.164892463354083D+02 -.128940788746315D+02 0.112447637549076D+02
-.362539956207D-04 0.000000000000D+00 0.000000000000D+00 0.201310256115D-05 0.000000000000D+00  7 -2 2 23 -13 13 23 21 2 0.41753182D-01 0.19239610D+00 0.29155775D+06 0.29155775D+06 0.29155775D+06 0.10854702D+01  1  2  8  2  7  2        2 -.517559277164D-03 0.100000000000D+01
0.521220565389D-04 0.000000000000D+00 0.000000000000D+00 0.201310256115D-05 0.288256921433D-07  7 -2 2 23 -13 13 23 21 2 0.43014348D-01 0.19449392D+00 0.30301933D+06 0.30301933D+06 0.30301933D+06 0.10842302D+01  1  2  1  2  7  2        2 0.688046265642D-03 0.100000000000D+01
  </mgrwgt>
  </event>
  <event>
  8     66 0.27870365E-05 0.22091145E+03 0.75467711E-02 0.95134641E-01
       -2 -1    0    0    0  501 0.00000000E+00 0.00000000E+00 0.44166738E+03 0.44166749E+03 0.32000000E+00 0.0000E+00 0.9000E+01
        2 -1    0    0  501    0 0.00000000E+00 0.00000000E+00 -.44658723E+03 0.44658734E+03 0.32000000E+00 0.0000E+00 0.9000E+01
       25  2    1    2    0    0 0.20854167E+03 -.32249553E+03 0.49788342E+02 0.48975611E+03 0.29981523E+03 0.0000E+00 0.0000E+00
       23  2    3    3    0    0 0.76845543E+02 -.10106503E+03 0.13147827E+03 0.20451265E+03 0.91757894E+02 0.0000E+00 0.0000E+00
       23  1    1    2    0    0 -.20854167E+03 0.32249553E+03 -.54708191E+02 0.39849872E+03 0.91188000E+02 0.0000E+00 0.9000E+01
      -11  1    4    4    0    0 0.37380856E+02 -.41561636E+02 0.11975058E+03 0.13215483E+03 0.51099893E-03 0.0000E+00 0.9000E+01
       11  1    4    4    0    0 0.39464687E+02 -.59503399E+02 0.11727693E+02 0.72357824E+02 0.51099893E-03 0.0000E+00 0.9000E+01
       23  1    3    3    0    0 0.13169612E+03 -.22143050E+03 -.81689929E+02 0.28524346E+03 0.91188000E+02 0.0000E+00 0.9000E+01
#aMCatNLO 1  0  0  1  2 0.13862868D+03 0.00000000D+00  -5  7  0 0.00000000D+00 0.00000000D+00 0.00000000D+00 0.00000000D+00 0.00000000D+00
  <mgrwgt>
 0.5841583637D-03    9    2    0
 0.444120604976113D+03 0.000000000000000D+00 0.000000000000000D+00 0.444120604976113D+03
 0.444120604976113D+03 0.000000000000000D+00 0.000000000000000D+00 -.444120604976113D+03
 0.398201814793973D+03 -.208541665735869D+03 0.322495532878019D+03 -.525017988934212D+02
 0.132820138555504D+03 0.373808555741364D+02 -.415616355319411D+02 0.120484402701590D+03
 0.724238925092296D+02 0.394646871956898D+02 -.595033985966743D+02 0.121286531065946D+02
 0.284795364093519D+03 0.131696122966043D+03 -.221430498749404D+03 -.801112569147636D+02
 0.000000000000000D+00 -.000000000000000D+00 0.000000000000000D+00 0.000000000000000D+00
 0.675971194310918D+03 0.000000000000000D+00 0.000000000000000D+00 0.675971194310918D+03
 0.470711283530604D+03 0.000000000000000D+00 0.000000000000000D+00 -.470711283530604D+03
 0.344786799595954D+03 -.189591519036739D+03 0.268069585842775D+03 -.525017988934212D+02
 0.142472257265397D+03 0.444022704180832D+02 -.617275560641912D+02 0.120484402701590D+03
 0.840962840278494D+02 0.434567810842170D+02 -.709689293910445D+02 0.121286531065946D+02
 0.327638740259377D+03 0.147316437862210D+03 -.266292971041065D+03 -.801112569147636D+02
 0.247688396692945D+03 -.455839703277703D+02 0.130919870653526D+03 0.205259910780314D+03
0.291188896164D-04 0.000000000000D+00 0.000000000000D+00 0.901171229964D-06 0.000000000000D+00  7 -2 2 23 -11 11 23 21 0 0.67948845D-01 0.68705745D-01 0.15813404D+06 0.15813404D+06 0.15813404D+06 0.11057466D+01  1  2  2  1  7  1       -2 0.507820674173D-03 0.100000000000D+01
-.159370096010D-05 0.000000000000D+00 -.111824203307D-06 0.901171229964D-06 0.000000000000D+00  7 -2 2 23 -11 11 23 21 2 0.67948845D-01 0.68705745D-01 0.15813404D+06 0.15813404D+06 0.15813404D+06 0.11057466D+01  1  2  3  1  7  1       -2 -.339823676503D-04 0.100000000000D+01
0.181146939046D-05 0.000000000000D+00 0.000000000000D+00 0.901171229964D-06 0.000000000000D+00  7 -2 2 23 -11 11 23 21 2 0.67948845D-01 0.68705745D-01 0.15813404D+06 0.15813404D+06 0.15813404D+06 0.11057466D+01  1  2 15  1  7  1       -2 0.386258277777D-04 0.100000000000D+01
0.409686275521D-04 0.000000000000D+00 0.000000000000D+00 0.901171229964D-06 0.000000000000D+00  7 -2 2 23 -11 11 23 21 2 0.10459719D+00 0.68705745D-01 0.22864849D+06 0.22864849D+06 0.22864849D+06 0.10933879D+01  1  2 12  1  7  1       -2 0.316275134771D-03 0.100000000000D+01
-.447578454527D-04 0.000000000000D+00 0.000000000000D+00 0.901171229964D-06 0.000000000000D+00  7 -2 2 23 -11 11 23 21 2 0.67948845D-01 0.68705745D-01 0.15813404D+06 0.15813404D+06 0.15813404D+06 0.11057466D+01  1  2  4  1  7  1       -2 -.954368226844D-03 0.100000000000D+01
-.517499316197D-04 0.000000000000D+00 -.108441218910D-04 0.901171229964D-06 0.000000000000D+00  7 -2 2 23 -11 11 23 21 2 0.10694660D+00 0.68705745D-01 0.15813404D+06 0.15813404D+06 0.15813404D+06 0.11057466D+01  1  2  5  1  7  1       -2 -.391207733846D-03 0.100000000000D+01
0.522303758809D-04 0.000000000000D+00 0.981687815778D-05 0.901171229964D-06 0.000000000000D+00  7 -2 2 23 -11 11 23 21 2 0.67948845D-01 0.68705745D-01 0.15813404D+06 0.15813404D+06 0.15813404D+06 0.11057466D+01  1  2  6  1  7  1       -2 0.111370444026D-02 0.100000000000D+01
0.206220058243D-05 0.000000000000D+00 0.000000000000D+00 0.901171229964D-06 0.000000000000D+00  7 21 2 23 -11 11 23 2 2 0.10459719D+00 0.68705745D-01 0.22864849D+06 0.22864849D+06 0.22864849D+06 0.10933879D+01  1  2 12  3  7  1       -2 0.146707405020D-03 0.100000000000D+01
-.226960468817D-05 0.000000000000D+00 -.566912360222D-06 0.901171229964D-06 0.000000000000D+00  7 21 2 23 -11 11 23 2 2 0.10694660D+00 0.68705745D-01 0.15813404D+06 0.15813404D+06 0.15813404D+06 0.11057466D+01  1  2  5  3  7  1       -2 -.159416789925D-03 0.100000000000D+01
  </mgrwgt>
  </event>
  <event>
  8     66 0.27870365E-05 0.22875096E+03 0.75467711E-02 0.10178810E+00
       -2 -1    0    0    0  501 0.00000000E+00 0.00000000E+00 0.47762697E+02 0.47763769E+02 0.32000000E+00 0.0000E+00 0.9000E+01
        2 -1    0    0  501    0 0.00000000E+00 0.00000000E+00 -.14263723E+04 0.14263724E+04 0.32000000E+00 0.0000E+00 0.9000E+01
       25  2    1    2    0    0 0.12424565E+03 0.34205806E+02 -.11553284E+04 0.12006827E+04 0.30041341E+03 0.0000E+00 0.0000E+00
       23  2    3    3    0    0 0.10455154E+03 -.74640058E+02 -.83499775E+03 0.84973790E+03 0.91274789E+02 0.0000E+00 0.0000E+00
       23  1    1    2    0    0 -.12424565E+03 -.34205806E+02 -.22328123E+03 0.27345343E+03 0.91188000E+02 0.0000E+00 0.9000E+01
      -13  1    4    4    0    0 -.16167404E+02 -.50468566E+01 -.13027450E+03 0.13137090E+03 0.10565837E+00 0.0000E+00 0.9000E+01
       13  1    4    4    0    0 0.12071895E+03 -.69593201E+02 -.70472325E+03 0.71836700E+03 0.10565837E+00 0.0000E+00 0.9000E+01
       23  1    3    3    0    0 0.19694113E+02 0.10884586E+03 -.32033067E+03 0.35094482E+03 0.91188000E+02 0.0000E+00 0.9000E+01
#aMCatNLO 1  0  0  2  2 0.93347865D+02 0.00000000D+00  -5  7  0 0.00000000D+00 0.00000000D+00 0.00000000D+00 0.00000000D+00 0.00000000D+00
  <mgrwgt>
 0.5496854889D-03    4    2    0
 0.261013805901838D+03 0.000000000000000D+00 0.000000000000000D+00 0.261013805901838D+03
 0.261013805901838D+03 0.000000000000000D+00 0.000000000000000D+00 -.261013805901838D+03
 0.182538106081331D+03 -.124245656150513D+03 -.342058065248198D+02 0.916399943009289D+02
 0.269349843425518D+02 -.161675871063795D+02 -.504676979789953D+01 -.209435580381690D+02
 0.167486525656150D+03 0.120719128810207D+03 -.695932863485002D+02 -.929268675404930D+02
 0.145067995723644D+03 0.196941144466850D+02 0.108845862671219D+03 0.222304312777331D+02
 0.000000000000000D+00 -.000000000000000D+00 -.000000000000000D+00 0.000000000000000D+00
 0.387449214971846D+03 0.000000000000000D+00 0.000000000000000D+00 0.387449214971846D+03
 0.282967133747251D+03 0.000000000000000D+00 0.000000000000000D+00 -.282967133747251D+03
 0.166004017900261D+03 -.103525003947783D+03 -.112591126278901D+02 0.916399943009289D+02
 0.247548836665020D+02 -.130946507129661D+02 -.164370458091274D+01 -.209435580381690D+02
 0.175374241510791D+03 0.141102027236575D+03 -.470206314751920D+02 -.929268675404930D+02
 0.164174929045700D+03 0.380784492212070D+02 0.129205246074897D+03 0.222304312777331D+02
 0.140108276595842D+03 -.625608217970331D+02 -.692817973909023D+02 0.104482081224595D+03
0.357548072478D-05 0.000000000000D+00 0.000000000000D+00 0.209293397681D-06 0.000000000000D+00  7 -2 2 23 -13 13 23 21 0 0.73481925D-02 0.21944198D+00 0.52327003D+05 0.52327003D+05 0.52327003D+05 0.11455617D+01  1  2  2  2  7  2        2 0.630486304086D-03 0.100000000000D+01
-.194433531015D-06 0.000000000000D+00 -.137307874288D-07 0.209293397681D-06 0.000000000000D+00  7 -2 2 23 -13 13 23 21 2 0.73481925D-02 0.21944198D+00 0.52327003D+05 0.52327003D+05 0.52327003D+05 0.11455617D+01  1  2  3  2  7  2        2 -.449934569475D-04 0.100000000000D+01
0.227071192986D-06 0.000000000000D+00 0.000000000000D+00 0.209293397681D-06 0.000000000000D+00  7 -2 2 23 -13 13 23 21 2 0.73481925D-02 0.21944198D+00 0.52327003D+05 0.52327003D+05 0.52327003D+05 0.11455617D+01  1  2 15  2  7  2        2 0.525460700749D-04 0.100000000000D+01
-.381808160829D-06 0.000000000000D+00 0.000000000000D+00 0.209293397681D-06 0.000000000000D+00  7 -2 2 23 -13 13 23 21 2 0.73481925D-02 0.21944198D+00 0.52327003D+05 0.52327003D+05 0.52327003D+05 0.11455617D+01  1  2  4  2  7  2        2 -.883534283249D-04 0.100000000000D+01
  </mgrwgt>
  </event>
  <event>
  9     66 0.27870365E-05 0.24487327E+03 0.75467711E-02 0.10033715E+00
       -2 -1    0    0    0  502 0.00000000E+00 0.00000000E+00 0.32524676E+03 0.32524691E+03 0.32000000E+00 0.0000E+00 0.9000E+01
        2 -1    0    0  501    0 0.00000000E+00 0.00000000E+00 -.40340192E+03 0.40340204E+03 0.32000000E+00 0.0000E+00 0.9000E+01
       25  2    1    2    0    0 0.74355488E+01 0.16603943E+03 -.17569176E+03 0.38539534E+03 0.30006264E+03 0.0000E+00 0.0000E+00
       23  2    3    3    0    0 -.84559608E+02 0.15876222E+03 -.15660130E+03 0.25426272E+03 0.88146428E+02 0.0000E+00 0.0000E+00
       23  1    1    2    0    0 0.10824017E+03 -.12786267E+03 0.11102237E+03 0.22069439E+03 0.91188000E+02 0.0000E+00 0.9000E+01
      -11  1    4    4    0    0 -.63200434E+02 0.11411819E+03 -.55633355E+02 0.14181793E+03 0.51099893E-03 0.0000E+00 0.9000E+01
       11  1    4    4    0    0 -.21359174E+02 0.44644031E+02 -.10096795E+03 0.11244479E+03 0.51099893E-03 0.0000E+00 0.9000E+01
       23  1    3    3    0    0 0.91995157E+02 0.72772140E+01 -.19090462E+02 0.13113262E+03 0.91188000E+02 0.0000E+00 0.9000E+01
       21  1    1    2  501  502 -.11567572E+03 -.38176759E+02 -.13485762E+02 0.12255923E+03 0.75000000E+00 0.0000E+00 0.9000E+01
#aMCatNLO 2  0  0  1  2 0.12181271D+03 0.00000000D+00  -5  7  0 0.00000000D+00 0.00000000D+00 0.00000000D+00 0.00000000D+00 0.00000000D+00
  <mgrwgt>
 0.8442739925D-04    1    2    0
 0.295095023085588D+03 0.000000000000000D+00 0.000000000000000D+00 0.295095023085588D+03
 0.295095023085588D+03 0.000000000000000D+00 0.000000000000000D+00 -.295095023085588D+03
 0.225861105161106D+03 0.636564308590357D+02 -.142576760007919D+03 0.135342948824568D+03
 0.144547860965082D+03 -.904712402633710D+02 0.105117931120016D+03 -.407340073137379D+02
 0.105709114379407D+03 -.415268756054127D+02 0.379880321012385D+02 -.894809749746080D+02
 0.114071965665580D+03 0.683416850097480D+02 -.529203213336331D+00 -.512796653622168D+01
 0.000000000000000D+00 -.000000000000000D+00 -.000000000000000D+00 -.000000000000000D+00
 0.362016024701575D+03 0.000000000000000D+00 0.000000000000000D+00 0.362016024701575D+03
 0.362427138526352D+03 0.000000000000000D+00 0.000000000000000D+00 -.362427138526352D+03
 0.233875526971876D+03 0.108240167700742D+03 -.127862672707707D+03 0.135342948824568D+03
 0.136662045757613D+03 -.632004343229407D+02 0.114118186544529D+03 -.407340073137379D+02
 0.102255311535210D+03 -.213591739489305D+02 0.446440314373127D+02 -.894809749746080D+02
 0.129836875150900D+03 0.919951570462817D+02 0.727721403998589D+01 -.512796653622168D+01
 0.121813403812328D+03 -.115675716475153D+03 -.381767593141212D+02 -.411113824777245D+00
0.182318817917D-05 0.000000000000D+00 0.000000000000D+00 0.527365109259D-07 0.246731926349D-10  7 -2 2 23 -11 11 23 21 2 0.50037825D-01 0.62061657D-01 0.96790823D+05 0.96790823D+05 0.96790823D+05 0.11228864D+01  1  2  1  1  7  1       -2 0.844273992479D-04 0.100000000000D+01
  </mgrwgt>
  </event>
  <event>
  8     66 0.27870365E-05 0.43635235E+03 0.75467711E-02 0.95494393E-01
       -2 -1    0    0    0  501 0.00000000E+00 0.00000000E+00 0.23029067E+03 0.23029089E+03 0.32000000E+00 0.0000E+00 0.9000E+01
        2 -1    0    0  501    0 0.00000000E+00 0.00000000E+00 -.14567370E+04 0.14567370E+04 0.32000000E+00 0.0000E+00 0.9000E+01
       25  2    1    2    0    0 -.48252611E+01 -.43244649E+03 -.18960651E+03 0.55991422E+03 0.30086552E+03 0.0000E+00 0.0000E+00
       23  2    3    3    0    0 -.69272919E+02 -.48927323E+02 -.21314405E+02 0.12646534E+03 0.91359499E+02 0.0000E+00 0.0000E+00
       23  1    1    2    0    0 0.48252611E+01 0.43244649E+03 -.10368398E+04 0.11271137E+04 0.91188000E+02 0.0000E+00 0.9000E+01
      -11  1    4    4    0    0 -.28432210E+02 -.26629960E+02 0.35723201E+02 0.52855392E+02 0.51099893E-03 0.0000E+00 0.9000E+01
       11  1    4    4    0    0 -.40840708E+02 -.22297364E+02 -.57037606E+02 0.73609948E+02 0.51099893E-03 0.0000E+00 0.9000E+01
       23  1    3    3    0    0 0.64447658E+02 -.38351916E+03 -.16829210E+03 0.43344888E+03 0.91188000E+02 0.0000E+00 0.9000E+01
#aMCatNLO 1  0  0  2  2 0.93347865D+02 0.00000000D+00  -5  7  0 0.00000000D+00 0.00000000D+00 0.00000000D+00 0.00000000D+00 0.00000000D+00
  <mgrwgt>
 0.2242017771D-05    1    2    0
 0.579200444786294D+03 0.000000000000000D+00 0.000000000000000D+00 0.579200444786294D+03
 0.579200444786294D+03 0.000000000000000D+00 0.000000000000000D+00 -.579200444786294D+03
 0.543718424191429D+03 0.482526113108269D+01 0.432446486961147D+03 -.316672111546297D+03
 0.114797140522032D+03 -.284322104091531D+02 -.266299597047642D+02 0.107985360718050D+03
 0.468132191089995D+02 -.408407082699046D+02 -.222973637159723D+02 -.513240710362987D+01
 0.453072105750127D+03 0.644476575479751D+02 -.383519163540410D+03 0.213819157931877D+03
 0.000000000000000D+00 -.000000000000000D+00 -.000000000000000D+00 -.000000000000000D+00
 0.580003367897707D+03 0.000000000000000D+00 0.000000000000000D+00 0.580003367897707D+03
 0.809048698182501D+03 0.000000000000000D+00 0.000000000000000D+00 -.809048698182501D+03
 0.548769983581471D+03 0.148015447881352D+02 0.438557785903639D+03 -.316672111546297D+03
 0.114006178463073D+03 -.263428456198977D+02 -.253500509465534D+02 0.107985360718050D+03
 0.458284929422933D+02 -.399947313320049D+02 -.217791328653183D+02 -.513240710362987D+01
 0.450061956050448D+03 0.726948128649233D+02 -.378467098733552D+03 0.213819157931877D+03
 0.230385455042923D+03 -.211587807011560D+02 -.129615033582154D+02 -.229045330284793D+03
0.146597085403D-06 0.000000000000D+00 0.000000000000D+00 0.545428972806D-06 0.000000000000D+00  7 -2 2 23 -11 11 23 21 2 0.35429354D-01 0.22411340D+00 0.21479212D+06 0.21479212D+06 0.21479212D+06 0.10954533D+01  1  2 14  2  7  2        2 0.224201777093D-05 0.100000000000D+01
  </mgrwgt>
  </event>
  <event>
  8     66 0.27870365E-05 0.21132461E+03 0.75467711E-02 0.10309282E+00
       -2 -1    0    0    0  501 0.00000000E+00 0.00000000E+00 0.86780696E+02 0.86781286E+02 0.32000000E+00 0.0000E+00 0.9000E+01
        2 -1    0    0  501    0 0.00000000E+00 0.00000000E+00 -.63627653E+03 0.63627661E+03 0.32000000E+00 0.0000E+00 0.9000E+01
       25  2    1    2    0    0 0.65621965E+02 0.51292230E+02 -.24181058E+03 0.39151212E+03 0.29643254E+03 0.0000E+00 0.0000E+00
       23  2    3    3    0    0 0.14621712E+03 0.39912759E+02 -.18739707E+03 0.25771693E+03 0.91257212E+02 0.0000E+00 0.0000E+00
       23  1    1    2    0    0 -.65621965E+02 -.51292230E+02 -.30768526E+03 0.33154578E+03 0.91188000E+02 0.0000E+00 0.9000E+01
      -11  1    4    4    0    0 0.89946014E+02 0.69196529E+02 -.11978902E+03 0.16500865E+03 0.51099893E-03 0.0000E+00 0.9000E+01
       11  1    4    4    0    0 0.56271107E+02 -.29283770E+02 -.67608051E+02 0.92708280E+02 0.51099893E-03 0.0000E+00 0.9000E+01
       23  1    3    3    0    0 -.80595156E+02 0.11379471E+02 -.54413507E+02 0.13379519E+03 0.91188000E+02 0.0000E+00 0.9000E+01
#aMCatNLO 1  0  0  1  2 0.73460256D+02 0.00000000D+00  -5  7  0 0.00000000D+00 0.00000000D+00 0.00000000D+00 0.00000000D+00 0.00000000D+00
  <mgrwgt>
 0.4501031028D-03    4    2    0
 0.234982473531062D+03 0.000000000000000D+00 0.000000000000000D+00 0.234982473531062D+03
 0.234982473531062D+03 0.000000000000000D+00 0.000000000000000D+00 -.234982473531062D+03
 0.150341057770059D+03 -.656219653760174D+02 -.512922303027720D+02 -.857324155624715D+02
 0.113811125806053D+03 0.899460143564221D+02 0.691965288740418D+02 0.863291668090714D+01
 0.635858311308223D+02 0.562711067739605D+02 -.292837700829373D+02 0.437964299465785D+01
 0.142226932355190D+03 -.805951557543652D+02 0.113794715116675D+02 0.727198558869065D+02
 0.000000000000000D+00 0.000000000000000D+00 -.000000000000000D+00 -.000000000000000D+00
 0.246483255381229D+03 0.000000000000000D+00 0.000000000000000D+00 0.246483255381229D+03
 0.393847174369905D+03 0.000000000000000D+00 0.000000000000000D+00 -.393847174369905D+03
 0.154525866770202D+03 -.833466741129117D+02 -.355847859797124D+02 -.857324155624715D+02
 0.111844447436831D+03 0.768265875225057D+02 0.808228224060337D+02 0.863291668090714D+01
 0.547392439611952D+02 0.493917855900051D+02 -.231873903860172D+02 0.437964299465785D+01
 0.154562030912298D+03 -.978502185597972D+02 0.266707207124545D+02 0.727198558869065D+02
 0.164658840670609D+03 0.549785195601982D+02 -.487213667527585D+02 -.147363918988676D+03
0.220322693170D-05 0.000000000000D+00 0.000000000000D+00 0.482582123488D-08 0.000000000000D+00  7 -2 2 23 -11 11 23 21 0 0.13350928D-01 0.97888749D-01 0.44658092D+05 0.44658092D+05 0.44658092D+05 0.11516367D+01  1  2  2  1  7  1       -2 0.475189711377D-03 0.100000000000D+01
-.120725681005D-06 0.000000000000D+00 -.846097154069D-08 0.482582123488D-08 0.000000000000D+00  7 -2 2 23 -11 11 23 21 2 0.13350928D-01 0.97888749D-01 0.44658092D+05 0.44658092D+05 0.44658092D+05 0.11516367D+01  1  2  3  1  7  1       -2 -.345333308913D-04 0.100000000000D+01
0.141461651983D-06 0.000000000000D+00 0.000000000000D+00 0.482582123488D-08 0.000000000000D+00  7 -2 2 23 -11 11 23 21 2 0.13350928D-01 0.97888749D-01 0.44658092D+05 0.44658092D+05 0.44658092D+05 0.11516367D+01  1  2 15  1  7  1       -2 0.404648124217D-04 0.100000000000D+01
-.108436688849D-06 0.000000000000D+00 0.000000000000D+00 0.482582123488D-08 0.000000000000D+00  7 -2 2 23 -11 11 23 21 2 0.13350928D-01 0.97888749D-01 0.44658092D+05 0.44658092D+05 0.44658092D+05 0.11516367D+01  1  2  4  1  7  1       -2 -.310180901495D-04 0.100000000000D+01
  </mgrwgt>
  </event>
  <event>
  8     66 0.27870365E-05 0.21828972E+03 0.75467711E-02 0.10194016E+00
       -2 -1    0    0    0  501 0.00000000E+00 0.00000000E+00 0.13592150E+03 0.13592188E+03 0.32000000E+00 0.0000E+00 0.9000E+01
        2 -1    0    0  501    0 0.00000000E+00 0.00000000E+00 -.63527208E+03 0.63527216E+03 0.32000000E+00 0.0000E+00 0.9000E+01
       25  2    1    2    0    0 0.69101208E+02 0.12052934E+03 -.11083893E+03 0.34863179E+03 0.29992759E+03 0.0000E+00 0.0000E+00
       23  2    3    3    0    0 0.65137426E+02 0.14594920E+03 0.21237221E+02 0.18608567E+03 0.92912891E+02 0.0000E+00 0.0000E+00
       23  1    1    2    0    0 -.69101208E+02 -.12052934E+03 -.38851164E+03 0.42256224E+03 0.91188000E+02 0.0000E+00 0.9000E+01
      -11  1    4    4    0    0 0.21755590E+02 -.16363480E+01 0.23731441E+02 0.32236077E+02 0.51099893E-03 0.0000E+00 0.9000E+01
       11  1    4    4    0    0 0.43381836E+02 0.14758555E+03 -.24942202E+01 0.15384960E+03 0.51099893E-03 0.0000E+00 0.9000E+01
       23  1    3    3    0    0 0.39637820E+01 -.25419855E+02 -.13207615E+03 0.16254612E+03 0.91188000E+02 0.0000E+00 0.9000E+01
#aMCatNLO 1  0  0  2  1 0.99125319D+02 0.00000000D+00  -5  7  0 0.00000000D+00 0.00000000D+00 0.00000000D+00 0.00000000D+00 0.00000000D+00
  <mgrwgt>
 0.4733960707D-03    4    2    0
 0.293849130239230D+03 0.000000000000000D+00 0.000000000000000D+00 0.293849130239230D+03
 0.293849130239230D+03 0.000000000000000D+00 0.000000000000000D+00 -.293849130239230D+03
 0.224390604825094D+03 -.691012079177266D+02 -.120529342058151D+03 -.150776632662730D+03
 0.624650121452633D+02 0.217555897438513D+02 -.163634802077558D+01 0.585311406206989D+02
 0.199766459028426D+03 0.433818361718482D+02 0.147585545512560D+03 0.127448661032099D+03
 0.101076184479677D+03 0.396378200202717D+01 -.254198554336330D+02 -.352031689900682D+02
 0.000000000000000D+00 -.000000000000000D+00 -.000000000000000D+00 0.000000000000000D+00
 0.424223903593303D+03 0.000000000000000D+00 0.000000000000000D+00 0.424223903593303D+03
 0.317460661273797D+03 0.000000000000000D+00 0.000000000000000D+00 -.317460661273797D+03
 0.215104145364621D+03 -.323262204323593D+02 -.119062859551124D+03 -.150776632662730D+03
 0.670028405005247D+02 0.325888901615491D+02 -.120434663499002D+01 0.585311406206989D+02
 0.210891208045216D+03 0.777438633880648D+02 0.148955805987526D+03 0.127448661032099D+03
 0.103001029411315D+03 0.210400655836860D+02 -.247389015334447D+02 -.352031689900682D+02
 0.145685341545424D+03 -.990465987009406D+02 -.394969826796744D+01 0.106763242319506D+03
0.519349626577D-05 0.000000000000D+00 0.000000000000D+00 0.162372447769D-06 0.000000000000D+00  7 -2 2 23 -11 11 23 21 0 0.20911035D-01 0.97734201D-01 0.47650401D+05 0.47650401D+05 0.47650401D+05 0.11491386D+01  1  2  2  2  7  2        2 0.546704127560D-03 0.100000000000D+01
-.257532473296D-06 0.000000000000D+00 -.199443931395D-07 0.162372447769D-06 0.000000000000D+00  7 -2 2 23 -11 11 23 21 2 0.20911035D-01 0.97734201D-01 0.47650401D+05 0.47650401D+05 0.47650401D+05 0.11491386D+01  1  2  3  2  7  2        2 -.357988726580D-04 0.100000000000D+01
0.333787962442D-06 0.000000000000D+00 0.000000000000D+00 0.162372447769D-06 0.000000000000D+00  7 -2 2 23 -11 11 23 21 2 0.20911035D-01 0.97734201D-01 0.47650401D+05 0.47650401D+05 0.47650401D+05 0.11491386D+01  1  2 15  2  7  2        2 0.463989360615D-04 0.100000000000D+01
-.603624196405D-06 0.000000000000D+00 0.000000000000D+00 0.162372447769D-06 0.000000000000D+00  7 -2 2 23 -11 11 23 21 2 0.20911035D-01 0.97734201D-01 0.47650401D+05 0.47650401D+05 0.47650401D+05 0.11491386D+01  1  2  4  2  7  2        2 -.839081202606D-04 0.100000000000D+01
  </mgrwgt>
  </event>
  <event>
  8     66 0.27870365E-05 0.50474859E+03 0.75467711E-02 0.86009687E-01
       -2 -1    0    0    0  501 0.00000000E+00 0.00000000E+00 0.63967398E+03 0.63967406E+03 0.32000000E+00 0.0000E+00 0.9000E+01
        2 -1    0    0  501    0 0.00000000E+00 0.00000000E+00 -.11886815E+04 0.11886815E+04 0.32000000E+00 0.0000E+00 0.9000E+01
       25  2    1    2    0    0 0.69143958E+03 -.31673025E+03 -.66421761E+03 0.10537619E+04 0.30136747E+03 0.0000E+00 0.0000E+00
       23  2    3    3    0    0 0.60641924E+03 -.24758605E+03 -.46287658E+03 0.80705794E+03 0.89691933E+02 0.0000E+00 0.0000E+00
       23  1    1    2    0    0 -.69143958E+03 0.31673025E+03 0.11521012E+03 0.77459368E+03 0.91188000E+02 0.0000E+00 0.9000E+01
      -13  1    4    4    0    0 0.63730741E+02 -.69998968E+01 -.71443424E+02 0.95993645E+02 0.10565837E+00 0.0000E+00 0.9000E+01
       13  1    4    4    0    0 0.54268850E+03 -.24058616E+03 -.39143316E+03 0.71106430E+03 0.10565837E+00 0.0000E+00 0.9000E+01
       23  1    3    3    0    0 0.85020334E+02 -.69144198E+02 -.20134103E+03 0.24670395E+03 0.91188000E+02 0.0000E+00 0.9000E+01
#aMCatNLO 1  0  0  1  2 0.63209495D+03 0.00000000D+00  -5  7  0 0.00000000D+00 0.00000000D+00 0.00000000D+00 0.00000000D+00 0.00000000D+00
  <mgrwgt>
 0.6942764744D-03    8    2    0
 0.871991234583332D+03 0.000000000000000D+00 0.000000000000000D+00 0.871991234583332D+03
 0.871991234583332D+03 0.000000000000000D+00 0.000000000000000D+00 -.871991234583332D+03
 0.848336438451994D+03 -.691439575871149D+03 0.316730251191370D+03 0.364626826167237D+03
 0.781465560786518D+02 0.637300762485359D+02 -.699957266181627D+01 -.446807295247251D+02
 0.622242463723232D+03 0.542689165317212D+03 -.240586480149935D+03 -.186526939278836D+03
 0.195257010912785D+03 0.850203343054010D+02 -.691441983796182D+02 -.133419157363676D+03
 0.000000000000000D+00 0.000000000000000D+00 0.000000000000000D+00 0.000000000000000D+00
 0.141918322517764D+04 0.000000000000000D+00 0.000000000000000D+00 0.141918322517764D+04
 0.113064996862961D+04 0.000000000000000D+00 0.000000000000000D+00 -.113064996862961D+04
 0.113838492693612D+04 -.103814019648705D+04 0.277339504233343D+03 0.364626826167237D+03
 0.604566015414388D+02 0.395425874524805D+02 -.974765903392306D+01 -.446807295247251D+02
 0.476259386062615D+03 0.350990782391699D+03 -.262366488736789D+03 -.186526939278836D+03
 0.179897434340608D+03 0.195525333031420D+02 -.765823898042462D+02 -.133419157363676D+03
 0.694834844926470D+03 0.628054293339729D+03 0.713570333416150D+02 0.288533256548026D+03
0.225431942775D-03 0.000000000000D+00 0.000000000000D+00 0.326332866958D-06 0.000000000000D+00  7 -2 2 23 -13 13 23 21 0 0.98411390D-01 0.18287408D+00 0.61331053D+06 0.61331053D+06 0.61331053D+06 0.10622967D+01  1  2  2  1  7  1       -2 0.462202053262D-03 0.100000000000D+01
-.123481368588D-04 0.000000000000D+00 -.865718017848D-06 0.326332866958D-06 0.000000000000D+00  7 -2 2 23 -13 13 23 21 2 0.98411390D-01 0.18287408D+00 0.61331053D+06 0.61331053D+06 0.61331053D+06 0.10622967D+01  1  2  3  1  7  1       -2 -.285699541571D-04 0.100000000000D+01
0.143895594943D-04 0.000000000000D+00 0.000000000000D+00 0.326332866958D-06 0.000000000000D+00  7 -2 2 23 -13 13 23 21 2 0.98411390D-01 0.18287408D+00 0.61331053D+06 0.61331053D+06 0.61331053D+06 0.10622967D+01  1  2 15  1  7  1       -2 0.332932052660D-04 0.100000000000D+01
0.672152379250D-05 0.000000000000D+00 0.000000000000D+00 0.326332866958D-06 0.000000000000D+00  7 -2 2 23 -13 13 23 21 2 0.16736709D+00 0.18287408D+00 0.13341623D+07 0.13341623D+07 0.13341623D+07 0.10396296D+01  1  2 12  1  7  1       -2 0.349503447733D-05 0.100000000000D+01
-.793482326479D-04 0.000000000000D+00 -.680142603950D-04 0.326332866958D-06 0.000000000000D+00  7 -2 2 23 -13 13 23 21 2 0.19040730D+00 0.18287408D+00 0.61331053D+06 0.61331053D+06 0.61331053D+06 0.10622967D+01  1  2  5  1  7  1       -2 -.307204467712D-04 0.100000000000D+01
0.111572062864D-03 0.000000000000D+00 0.554843352650D-04 0.326332866958D-06 0.000000000000D+00  7 -2 2 23 -13 13 23 21 2 0.98411390D-01 0.18287408D+00 0.61331053D+06 0.61331053D+06 0.61331053D+06 0.10622967D+01  1  2  6  1  7  1       -2 0.258144913496D-03 0.100000000000D+01
0.397791448427D-06 0.000000000000D+00 0.000000000000D+00 0.326332866958D-06 0.000000000000D+00  7 21 2 23 -13 13 23 2 2 0.16736709D+00 0.18287408D+00 0.13341623D+07 0.13341623D+07 0.13341623D+07 0.10396296D+01  1  2 12  3  7  1       -2 0.163234210608D-05 0.100000000000D+01
-.171908408243D-05 0.000000000000D+00 -.486807851026D-05 0.326332866958D-06 0.000000000000D+00  7 21 2 23 -13 13 23 2 2 0.19040730D+00 0.18287408D+00 0.61331053D+06 0.61331053D+06 0.61331053D+06 0.10622967D+01  1  2  5  3  7  1       -2 -.520067325653D-05 0.100000000000D+01
  </mgrwgt>
  </event>
  <event>
  8     66 0.27870365E-05 0.19496526E+03 0.75467711E-02 0.10105304E+00
       -2 -1    0    0    0  501 0.00000000E+00 0.00000000E+00 0.11160066E+03 0.11160112E+03 0.32000000E+00 0.0000E+00 0.9000E+01
        2 -1    0    0  501    0 0.00000000E+00 0.00000000E+00 -.77854681E+03 0.77854688E+03 0.32000000E+00 0.0000E+00 0.9000E+01
       25  2    1    2    0    0 -.12673437E+03 0.37310894E+02 -.65203113E+03 0.72892947E+03 0.29789240E+03 0.0000E+00 0.0000E+00
       23  2    3    3    0    0 -.55452156E+02 -.91971673E+01 -.57021593E+03 0.57975464E+03 0.88372540E+02 0.0000E+00 0.0000E+00
       23  1    1    2    0    0 0.12673437E+03 -.37310894E+02 -.14915030E+02 0.16121852E+03 0.91188000E+02 0.0000E+00 0.9000E+01
      -11  1    4    4    0    0 0.50385807E+01 -.37531447E+02 -.19636435E+03 0.19998238E+03 0.51099893E-03 0.0000E+00 0.9000E+01
       11  1    4    4    0    0 -.60490737E+02 0.28334280E+02 -.37385158E+03 0.37977225E+03 0.51099893E-03 0.0000E+00 0.9000E+01
       23  1    3    3    0    0 -.71282212E+02 0.46508061E+02 -.81815203E+02 0.14917484E+03 0.91188000E+02 0.0000E+00 0.9000E+01
#aMCatNLO 1  0  0  1  2 0.17490640D+03 0.00000000D+00  -5  7  0 0.00000000D+00 0.00000000D+00 0.00000000D+00 0.00000000D+00 0.00000000D+00
  <mgrwgt>
 0.5974021862D-03    4    2    0
 0.294765278500162D+03 0.000000000000000D+00 0.000000000000000D+00 0.294765278500162D+03
 0.294765278500162D+03 0.000000000000000D+00 0.000000000000000D+00 -.294765278500162D+03
 0.226554539164753D+03 0.126734367650065D+03 -.373108939618778D+02 0.159868712136732D+03
 0.798083666407757D+02 0.503858069516194D+01 -.375314470811760D+02 -.702522495756521D+02
 0.150483523377417D+03 -.604907367169192D+02 0.283342797614305D+02 -.134845578978055D+03
 0.132684127817378D+03 -.712822116283075D+02 0.465080612816232D+02 0.452291164169752D+02
 0.000000000000000D+00 -.000000000000000D+00 0.000000000000000D+00 -.000000000000000D+00
 0.358723602980781D+03 0.000000000000000D+00 0.000000000000000D+00 0.358723602980781D+03
 0.456669823348623D+03 0.000000000000000D+00 0.000000000000000D+00 -.456669823348623D+03
 0.270466566053999D+03 0.177056418573607D+03 -.890501630019446D+02 0.159868712136732D+03
 0.922713467428061D+02 0.224611891294373D+02 -.554447278123275D+02 -.702522495756521D+02
 0.138427784974143D+03 -.312392433324371D+02 -.174102238281144D+01 -.134845578978055D+03
 0.113763993144202D+03 -.463300018271130D+02 0.208531232901308D+02 0.452291164169752D+02
 0.200463735414255D+03 -.121948362543494D+03 0.125382789906953D+03 -.979462203678417D+02
0.630917335025D-05 0.000000000000D+00 0.000000000000D+00 0.463012200206D-08 0.000000000000D+00  7 -2 2 23 -11 11 23 21 0 0.17169372D-01 0.11977647D+00 0.38011452D+05 0.38011452D+05 0.38011452D+05 0.11579171D+01  1  2  2  1  7  1       -2 0.718809998575D-03 0.100000000000D+01
-.277692402895D-06 0.000000000000D+00 -.242288869084D-07 0.463012200206D-08 0.000000000000D+00  7 -2 2 23 -11 11 23 21 2 0.17169372D-01 0.11977647D+00 0.38011452D+05 0.38011452D+05 0.38011452D+05 0.11579171D+01  1  2  3  1  7  1       -2 -.424190123330D-04 0.100000000000D+01
0.392698939996D-06 0.000000000000D+00 0.000000000000D+00 0.463012200206D-08 0.000000000000D+00  7 -2 2 23 -11 11 23 21 2 0.17169372D-01 0.11977647D+00 0.38011452D+05 0.38011452D+05 0.38011452D+05 0.11579171D+01  1  2 15  1  7  1       -2 0.599868811865D-04 0.100000000000D+01
-.909792301360D-06 0.000000000000D+00 0.000000000000D+00 0.463012200206D-08 0.000000000000D+00  7 -2 2 23 -11 11 23 21 2 0.17169372D-01 0.11977647D+00 0.38011452D+05 0.38011452D+05 0.38011452D+05 0.11579171D+01  1  2  4  1  7  1       -2 -.138975681184D-03 0.100000000000D+01
  </mgrwgt>
  </event>
  <event>
  8     66 0.27870365E-05 0.23251826E+03 0.75467711E-02 0.99601530E-01
       -2 -1    0    0    0  501 0.00000000E+00 0.00000000E+00 0.24049247E+03 0.24049268E+03 0.32000000E+00 0.0000E+00 0.9000E+01
        2 -1    0    0  501    0 0.00000000E+00 0.00000000E+00 -.39244865E+03 0.39244878E+03 0.32000000E+00 0.0000E+00 0.9000E+01
       25  2    1    2    0    0 0.26710153E+02 -.10612376E+03 -.28773531E+03 0.43614993E+03 0.30896515E+03 0.0000E+00 0.0000E+00
       23  2    3    3    0    0 -.10320869E+03 -.57598441E+02 -.10327118E+03 0.18800505E+03 0.10349565E+03 0.0000E+00 0.0000E+00
       23  1    1    2    0    0 -.26710153E+02 0.10612376E+03 0.13577913E+03 0.19679154E+03 0.91188000E+02 0.0000E+00 0.9000E+01
      -13  1    4    4    0    0 0.15608756E+02 -.31215494E+02 -.29373829E+02 0.45616590E+02 0.10565837E+00 0.0000E+00 0.9000E+01
       13  1    4    4    0    0 -.11881744E+03 -.26382947E+02 -.73897350E+02 0.14238846E+03 0.10565837E+00 0.0000E+00 0.9000E+01
       23  1    3    3    0    0 0.12991884E+03 -.48525322E+02 -.18446413E+03 0.24814488E+03 0.91188000E+02 0.0000E+00 0.9000E+01
#aMCatNLO 1  0  0  1  2 0.17243083D+03 0.00000000D+00  -5  7  0 0.00000000D+00 0.00000000D+00 0.00000000D+00 0.00000000D+00 0.00000000D+00
  <mgrwgt>
 0.5518121915D-03    3    2    0
 0.307214996546887D+03 0.000000000000000D+00 0.000000000000000D+00 0.307214996546887D+03
 0.307214996546887D+03 0.000000000000000D+00 0.000000000000000D+00 -.307214996546887D+03
 0.236300471928093D+03 -.267101732898810D+02 0.106123845829610D+03 0.188539008373857D+03
 0.397263058887801D+02 0.156088597553374D+02 -.312154877746220D+02 -.189772547988259D+02
 0.128402541164422D+03 -.118817412100841D+03 -.263829636618933D+02 -.409093435238845D+02
 0.210000674112480D+03 0.129918725635385D+03 -.485253943930943D+02 -.128652410051146D+03
 0.000000000000000D+00 -.000000000000000D+00 0.000000000000000D+00 -.000000000000000D+00
 0.344991253959305D+03 0.000000000000000D+00 0.000000000000000D+00 0.344991253959305D+03
 0.605987389543010D+03 0.000000000000000D+00 0.000000000000000D+00 -.605987389543010D+03
 0.221879416672870D+03 0.243540087633071D+02 0.691024513143536D+02 0.188539008373857D+03
 0.499493551248378D+02 0.256032187258322D+02 -.384613711217475D+02 -.189772547988259D+02
 0.110712880817917D+03 -.921679808542741D+02 -.457037295709352D+02 -.409093435238845D+02
 0.255624946768233D+03 0.181812735095038D+03 -.861484115440041D+02 -.128652410051146D+03
 0.312812044118458D+03 -.139601981729904D+03 0.101211060922333D+03 -.260996135583705D+03
0.810118545561D-05 0.000000000000D+00 0.000000000000D+00 0.339217310893D-10 0.000000000000D+00  7 -2 2 23 -13 13 23 21 0 0.36998868D-01 0.60376742D-01 0.54064742D+05 0.54064742D+05 0.54064742D+05 0.11443216D+01  1  2  2  1  7  1       -2 0.543677900169D-03 0.100000000000D+01
-.407598576063D-06 0.000000000000D+00 -.311106852407D-07 0.339217310893D-10 0.000000000000D+00  7 -2 2 23 -13 13 23 21 2 0.36998868D-01 0.60376742D-01 0.54064742D+05 0.54064742D+05 0.54064742D+05 0.11443216D+01  1  2  3  1  7  1       -2 -.358197005640D-04 0.100000000000D+01
0.500160085601D-06 0.000000000000D+00 0.000000000000D+00 0.339217310893D-10 0.000000000000D+00  7 -2 2 23 -13 13 23 21 2 0.36998868D-01 0.60376742D-01 0.54064742D+05 0.54064742D+05 0.54064742D+05 0.11443216D+01  1  2 15  1  7  1       -2 0.439539918744D-04 0.100000000000D+01
  </mgrwgt>
  </event>
  <event>
  8     66 0.27870365E-05 0.34972692E+03 0.75467711E-02 0.85914390E-01
       -2 -1    0    0    0  501 0.00000000E+00 0.00000000E+00 0.37891497E+03 0.37891511E+03 0.32000000E+00 0.0000E+00 0.9000E+01
        2 -1    0    0  501    0 0.00000000E+00 0.00000000E+00 -.11338862E+04 0.11338863E+04 0.32000000E+00 0.0000E+00 0.9000E+01
       25  2    1    2    0    0 -.19869149E+03 0.21175204E+03 -.10244525E+04 0.11062886E+04 0.30009067E+03 0.0000E+00 0.0000E+00
       23  2    3    3    0    0 0.18959535E+01 0.17062316E+03 -.48594852E+03 0.52299738E+03 0.90908982E+02 0.0000E+00 0.0000E+00
       23  1    1    2    0    0 0.19869149E+03 -.21175204E+03 0.26948123E+03 0.40651275E+03 0.91188000E+02 0.0000E+00 0.9000E+01
      -13  1    4    4    0    0 -.25820814E+01 0.13768333E+03 -.25626991E+03 0.29092550E+03 0.10565837E+00 0.0000E+00 0.9000E+01
       13  1    4    4    0    0 0.44780349E+01 0.32939821E+02 -.22967861E+03 0.23207188E+03 0.10565837E+00 0.0000E+00 0.9000E+01
       23  1    3    3    0    0 -.20058745E+03 0.41128880E+02 -.53850397E+03 0.58329125E+03 0.91188000E+02 0.0000E+00 0.9000E+01
#aMCatNLO 1  0  0  1  2 0.10816215D+04 0.00000000D+00  -5  7  0 0.00000000D+00 0.00000000D+00 0.00000000D+00 0.00000000D+00 0.00000000D+00
  <mgrwgt>
 0.6515999083D-03    3    2    0
 0.655474336914460D+03 0.000000000000000D+00 0.000000000000000D+00 0.655474336914460D+03
 0.655474336914460D+03 0.000000000000000D+00 0.000000000000000D+00 -.655474336914460D+03
 0.624298762189197D+03 0.198691493772137D+03 -.211752035352939D+03 0.545083900838622D+03
 0.188135643159537D+03 -.258209088441161D+01 0.137683475963120D+03 -.128185855227597D+03
 0.135533776432936D+03 0.447804442485012D+01 0.329396791596458D+02 -.131393794408875D+03
 0.362980492047250D+03 -.200587447312576D+03 0.411288802301739D+02 -.285504251202150D+03
 0.000000000000000D+00 -.000000000000000D+00 0.000000000000000D+00 -.000000000000000D+00
 0.126092391962120D+04 0.000000000000000D+00 0.000000000000000D+00 0.126092391962120D+04
 0.156114683493124D+04 0.000000000000000D+00 0.000000000000000D+00 -.156114683493124D+04
 0.104763095986223D+04 0.561755751305150D+03 -.690311084685737D+03 0.545083900838622D+03
 0.152116583189084D+03 0.713046403004635D+02 0.402925510772496D+02 -.128185855227597D+03
 0.156291839995846D+03 0.678488005998338D+02 -.505900217166326D+02 -.131393794408875D+03
 0.343516865633434D+03 -.471695522705242D+02 -.161092959233842D+03 -.285504251202150D+03
 0.112251450587185D+04 -.653739639934923D+03 0.861701514558962D+03 -.300222915310048D+03
0.829776685844D-04 0.000000000000D+00 0.000000000000D+00 0.348051846248D-05 0.000000000000D+00  7 -2 2 23 -13 13 23 21 0 0.58294625D-01 0.17444405D+00 0.12230892D+06 0.12230892D+06 0.12230892D+06 0.11146150D+01  1  2  2  1  7  1       -2 0.627577412542D-03 0.100000000000D+01
-.239792146609D-05 0.000000000000D+00 -.318656095886D-06 0.348051846248D-05 0.000000000000D+00  7 -2 2 23 -13 13 23 21 2 0.58294625D-01 0.17444405D+00 0.12230892D+06 0.12230892D+06 0.12230892D+06 0.11146150D+01  1  2  3  1  7  1       -2 -.225315349367D-04 0.100000000000D+01
0.495451862260D-05 0.000000000000D+00 0.000000000000D+00 0.348051846248D-05 0.000000000000D+00  7 -2 2 23 -13 13 23 21 2 0.58294625D-01 0.17444405D+00 0.12230892D+06 0.12230892D+06 0.12230892D+06 0.11146150D+01  1  2 15  1  7  1       -2 0.465540306544D-04 0.100000000000D+01
  </mgrwgt>
  </event>
  <event>
  8     66 0.27870365E-05 0.44602014E+03 0.75467711E-02 0.91834513E-01
       -2 -1    0    0    0  501 0.00000000E+00 0.00000000E+00 0.13928823E+04 0.13928823E+04 0.32000000E+00 0.0000E+00 0.9000E+01
        2 -1    0    0  501    0 0.00000000E+00 0.00000000E+00 -.33553984E+03 0.33554000E+03 0.32000000E+00 0.0000E+00 0.9000E+01
       25  2    1    2    0    0 0.47410562E+03 0.32936456E+03 0.92247171E+03 0.11286203E+04 0.29928661E+03 0.0000E+00 0.0000E+00
       23  2    3    3    0    0 0.40738235E+03 0.28842519E+03 0.84504121E+03 0.98565607E+03 0.90960248E+02 0.0000E+00 0.0000E+00
       23  1    1    2    0    0 -.47410562E+03 -.32936456E+03 0.13487073E+03 0.59980206E+03 0.91188000E+02 0.0000E+00 0.9000E+01
      -11  1    4    4    0    0 0.32119008E+03 0.22647086E+03 0.58467474E+03 0.70448327E+03 0.51099893E-03 0.0000E+00 0.9000E+01
       11  1    4    4    0    0 0.86192270E+02 0.61954328E+02 0.26036646E+03 0.28117280E+03 0.51099893E-03 0.0000E+00 0.9000E+01
       23  1    3    3    0    0 0.66723262E+02 0.40939369E+02 0.77430508E+02 0.14296419E+03 0.91188000E+02 0.0000E+00 0.9000E+01
#aMCatNLO 1  0  0  1  2 0.82729322D+02 0.00000000D+00  -5  7  0 0.00000000D+00 0.00000000D+00 0.00000000D+00 0.00000000D+00 0.00000000D+00
  <mgrwgt>
 0.3325256114D-03    6    2    0
 0.683642939432667D+03 0.000000000000000D+00 0.000000000000000D+00 0.683642939432667D+03
 0.683642939432667D+03 0.000000000000000D+00 0.000000000000000D+00 -.683642939432667D+03
 0.653928149306430D+03 -.474105616720289D+03 -.329364560665357D+03 -.293342161107678D+03
 0.438418325491904D+03 0.321190084381168D+03 0.226470864005275D+03 0.194315479514751D+03
 0.154092737838840D+03 0.861922700648176D+02 0.619543277961613D+02 0.111701055066945D+03
 0.120846666228161D+03 0.667232622743031D+02 0.409393688639212D+02 -.126743734740177D+02
 0.000000000000000D+00 -.000000000000000D+00 0.000000000000000D+00 -.000000000000000D+00
 0.721834219189935D+03 0.000000000000000D+00 0.000000000000000D+00 0.721834219189935D+03
 0.731211242304911D+03 0.000000000000000D+00 0.000000000000000D+00 -.731211242304911D+03
 0.664753073055816D+03 -.461270063683690D+03 -.367099035219479D+03 -.293342161107678D+03
 0.432505604855607D+03 0.329667334310300D+03 0.201549104044667D+03 0.194315479514751D+03
 0.152505081578779D+03 0.891765793165947D+02 0.531809355471701D+02 0.111701055066945D+03
 0.120022652786804D+03 0.690677947258743D+02 0.340468181586364D+02 -.126743734740177D+02
 0.832590492178397D+02 -.266416446690788D+02 0.783221774690056D+02 -.937702311497603D+01
0.240800842242D-03 0.000000000000D+00 0.000000000000D+00 0.936771172935D-06 0.000000000000D+00  7 -2 2 23 -11 11 23 21 0 0.21428960D+00 0.51621529D-01 0.36226817D+06 0.36226817D+06 0.36226817D+06 0.10785434D+01  1  2  2  1  7  1       -2 0.283773552916D-03 0.100000000000D+01
-.131139652911D-04 0.000000000000D+00 -.924738638526D-06 0.936771172935D-06 0.000000000000D+00  7 -2 2 23 -11 11 23 21 2 0.21428960D+00 0.51621529D-01 0.36226817D+06 0.36226817D+06 0.36226817D+06 0.10785434D+01  1  2  3  1  7  1       -2 -.179772477100D-04 0.100000000000D+01
0.151612258417D-04 0.000000000000D+00 0.000000000000D+00 0.936771172935D-06 0.000000000000D+00  7 -2 2 23 -11 11 23 21 2 0.21428960D+00 0.51621529D-01 0.36226817D+06 0.36226817D+06 0.36226817D+06 0.10785434D+01  1  2 15  1  7  1       -2 0.207837299013D-04 0.100000000000D+01
0.319182548438D-03 0.000000000000D+00 0.000000000000D+00 0.936771172935D-06 0.000000000000D+00  7 -2 2 23 -11 11 23 21 2 0.23326866D+00 0.51621529D-01 0.41527521D+06 0.41527521D+06 0.41527521D+06 0.10742563D+01  1  2 12  1  7  1       -2 0.323221350590D-03 0.100000000000D+01
-.227113539849D-03 0.000000000000D+00 0.000000000000D+00 0.936771172935D-06 0.000000000000D+00  7 -2 2 23 -11 11 23 21 2 0.21428960D+00 0.51621529D-01 0.36226817D+06 0.36226817D+06 0.36226817D+06 0.10785434D+01  1  2  4  1  7  1       -2 -.311338048679D-03 0.100000000000D+01
0.449195002607D-05 0.000000000000D+00 0.000000000000D+00 0.936771172935D-06 0.000000000000D+00  7 21 2 23 -11 11 23 2 2 0.23326866D+00 0.51621529D-01 0.41527521D+06 0.41527521D+06 0.41527521D+06 0.10742563D+01  1  2 12  3  7  1       -2 0.340622744058D-04 0.100000000000D+01
  </mgrwgt>
  </event>
  <event>
  8     66 0.27870365E-05 0.28351924E+03 0.75467711E-02 0.87463689E-01
       -2 -1    0    0    0  501 0.00000000E+00 0.00000000E+00 0.43614195E+03 0.43614207E+03 0.32000000E+00 0.0000E+00 0.9000E+01
        2 -1    0    0  501    0 0.00000000E+00 0.00000000E+00 -.25099348E+03 0.25099369E+03 0.32000000E+00 0.0000E+00 0.9000E+01
       25  2    1    2    0    0 0.78287652E+02 0.18763027E+03 -.47509405E+02 0.36498825E+03 0.29937469E+03 0.0000E+00 0.0000E+00
       23  2    3    3    0    0 0.13288374E+03 0.38098753E+02 -.71634982E+02 0.17995392E+03 0.90234354E+02 0.0000E+00 0.0000E+00
       23  1    1    2    0    0 -.78287652E+02 -.18763027E+03 0.23265787E+03 0.32214750E+03 0.91188000E+02 0.0000E+00 0.9000E+01
      -13  1    4    4    0    0 0.10963128E+03 -.71756033E+01 -.29179539E+02 0.11367481E+03 0.10565837E+00 0.0000E+00 0.9000E+01
       13  1    4    4    0    0 0.23252468E+02 0.45274356E+02 -.42455444E+02 0.66279110E+02 0.10565837E+00 0.0000E+00 0.9000E+01
       23  1    3    3    0    0 -.54596091E+02 0.14953152E+03 0.24125578E+02 0.18503433E+03 0.91188000E+02 0.0000E+00 0.9000E+01
#aMCatNLO 1  0  0  2  2 0.92911500D+03 0.00000000D+00  -5  7  0 0.00000000D+00 0.00000000D+00 0.00000000D+00 0.00000000D+00 0.00000000D+00
  <mgrwgt>
 0.5142250348D-03    3    2    0
 0.330860842942710D+03 0.000000000000000D+00 0.000000000000000D+00 0.330860842942710D+03
 0.330860842942710D+03 0.000000000000000D+00 0.000000000000000D+00 -.330860842942710D+03
 0.269422662643738D+03 -.782876519940212D+02 -.187630274033761D+03 0.151457068548549D+03
 0.126205043754538D+03 0.109631393357206D+03 -.717567508559472D+01 -.621062021597555D+02
 0.807035143251494D+02 0.232523493065809D+02 0.452744279012938D+02 -.626307564569110D+02
 0.185390465161995D+03 -.545960906697655D+02 0.149531521218062D+03 -.267201099318826D+02
 0.000000000000000D+00 -.000000000000000D+00 -.000000000000000D+00 0.000000000000000D+00
 0.120127704787948D+04 0.000000000000000D+00 0.000000000000000D+00 0.120127704787948D+04
 0.912385658423443D+03 0.000000000000000D+00 0.000000000000000D+00 -.912385658423443D+03
 0.197278307776894D+03 0.866500633399254D+02 -.124900874769471D+02 0.151457068548549D+03
 0.315750076358703D+03 0.265823628667792D+03 0.158678066586742D+03 -.621062021597555D+02
 0.207777273426142D+03 0.125204916507268D+03 0.153533424961619D+03 -.626307564569110D+02
 0.419865315225422D+03 0.159308554781883D+03 0.376667561231225D+03 -.267201099318826D+02
 0.972991733515760D+03 -.636987163296868D+03 -.676388965302639D+03 0.288891389456034D+03
0.149178870613D-04 0.000000000000D+00 0.000000000000D+00 0.159292452545D-06 0.000000000000D+00  7 -2 2 23 -13 13 23 21 0 0.67098786D-01 0.38614407D-01 0.80383159D+05 0.80383159D+05 0.80383159D+05 0.11295884D+01  1  2  2  2  7  2        2 0.507589919667D-03 0.100000000000D+01
-.804743840000D-06 0.000000000000D+00 -.572886142853D-07 0.159292452545D-06 0.000000000000D+00  7 -2 2 23 -13 13 23 21 2 0.67098786D-01 0.38614407D-01 0.80383159D+05 0.80383159D+05 0.80383159D+05 0.11295884D+01  1  2  3  2  7  2        2 -.349384637602D-04 0.100000000000D+01
0.957571623968D-06 0.000000000000D+00 0.000000000000D+00 0.159292452545D-06 0.000000000000D+00  7 -2 2 23 -13 13 23 21 2 0.67098786D-01 0.38614407D-01 0.80383159D+05 0.80383159D+05 0.80383159D+05 0.11295884D+01  1  2 15  2  7  2        2 0.415735788444D-04 0.100000000000D+01
  </mgrwgt>
  </event>
  <event>
  8     66 0.27870365E-05 0.13945557E+03 0.75467711E-02 0.10047406E+00
       -2 -1    0    0    0  501 0.00000000E+00 0.00000000E+00 0.98021016E+02 0.98021539E+02 0.32000000E+00 0.0000E+00 0.9000E+01
        2 -1    0    0  501    0 0.00000000E+00 0.00000000E+00 -.80945237E+03 0.80945244E+03 0.32000000E+00 0.0000E+00 0.9000E+01
       25  2    1    2    0    0 0.49060940E+02 -.10139039E+03 -.20484712E+03 0.38056808E+03 0.30030440E+03 0.0000E+00 0.0000E+00
       23  2    3    3    0    0 0.90445130E+02 0.49348908E+02 -.80748183E+02 0.16113521E+03 0.93960895E+02 0.0000E+00 0.0000E+00
       23  1    1    2    0    0 -.49060940E+02 0.10139039E+03 -.50658424E+03 0.52690590E+03 0.91188000E+02 0.0000E+00 0.9000E+01
      -13  1    4    4    0    0 0.40649220E+02 0.55021006E+02 -.86950505E+02 0.11063486E+03 0.10565837E+00 0.0000E+00 0.9000E+01
       13  1    4    4    0    0 0.49795910E+02 -.56720981E+01 0.62023225E+01 0.50500350E+02 0.10565837E+00 0.0000E+00 0.9000E+01
       23  1    3    3    0    0 -.41384190E+02 -.15073929E+03 -.12409894E+03 0.21943287E+03 0.91188000E+02 0.0000E+00 0.9000E+01
#aMCatNLO 1  0  0  1  2 0.14686600D+03 0.00000000D+00  -5  7  0 0.00000000D+00 0.00000000D+00 0.00000000D+00 0.00000000D+00 0.00000000D+00
  <mgrwgt>
 0.3512448391D-03    9    2    0
 0.281679977832347D+03 0.000000000000000D+00 0.000000000000000D+00 0.281679977832347D+03
 0.281679977832347D+03 0.000000000000000D+00 0.000000000000000D+00 -.281679977832347D+03
 0.209019968632610D+03 -.490609398222366D+02 0.101390386081696D+03 -.150622407818826D+03
 0.684090562048609D+02 0.406492094270510D+02 0.550210811792794D+02 -.348381484440793D+00
 0.891797357978398D+02 0.497959220985661D+02 -.567216846079824D+01 0.737646115985054D+02
 0.196751195029383D+03 -.413841917033804D+02 -.150739298800177D+03 0.772061777047617D+02
 0.000000000000000D+00 -.000000000000000D+00 0.000000000000000D+00 0.000000000000000D+00
 0.411134138820219D+03 0.000000000000000D+00 0.000000000000000D+00 0.411134138820219D+03
 0.336016394093806D+03 0.000000000000000D+00 0.000000000000000D+00 -.336016394093806D+03
 0.202392806598791D+03 0.365857885394295D+01 0.997351587082719D+02 -.150622407818826D+03
 0.808372400571392D+02 0.597740236691699D+02 0.544206220544599D+02 -.348381484440793D+00
 0.105182009018982D+03 0.747019489715576D+02 -.645413951210145D+01 0.737646115985054D+02
 0.193776970888737D+03 0.865911802397166D+01 -.152310501614570D+03 0.772061777047617D+02
 0.164961506350376D+03 -.146793669518642D+03 0.460886036393970D+01 0.751177447264131D+02
0.276559778528D-05 0.000000000000D+00 0.000000000000D+00 0.500025467943D-07 0.000000000000D+00  7 -2 2 23 -13 13 23 21 0 0.15080201D-01 0.12453118D+00 0.49376809D+05 0.49376809D+05 0.49376809D+05 0.11477748D+01  1  2  2  1  7  1       -2 0.369443229393D-03 0.100000000000D+01
-.143137842585D-06 0.000000000000D+00 -.106206236941D-07 0.500025467943D-07 0.000000000000D+00  7 -2 2 23 -13 13 23 21 2 0.15080201D-01 0.12453118D+00 0.49376809D+05 0.49376809D+05 0.49376809D+05 0.11477748D+01  1  2  3  1  7  1       -2 -.251899055325D-04 0.100000000000D+01
0.168149234584D-06 0.000000000000D+00 0.000000000000D+00 0.500025467943D-07 0.000000000000D+00  7 -2 2 23 -13 13 23 21 2 0.15080201D-01 0.12453118D+00 0.49376809D+05 0.49376809D+05 0.49376809D+05 0.11477748D+01  1  2 15  1  7  1       -2 0.295914990615D-04 0.100000000000D+01
0.425677469551D-06 0.000000000000D+00 0.000000000000D+00 0.500025467943D-07 0.000000000000D+00  7 -2 2 23 -13 13 23 21 2 0.22929201D-01 0.12453118D+00 0.94741667D+05 0.94741667D+05 0.94741667D+05 0.11236522D+01  1  2 12  1  7  1       -2 0.361588848063D-04 0.100000000000D+01
-.150752807338D-05 0.000000000000D+00 0.000000000000D+00 0.500025467943D-07 0.000000000000D+00  7 -2 2 23 -13 13 23 21 2 0.15080201D-01 0.12453118D+00 0.49376809D+05 0.49376809D+05 0.49376809D+05 0.11477748D+01  1  2  4  1  7  1       -2 -.265300140551D-03 0.100000000000D+01
-.144008891596D-05 0.000000000000D+00 -.982092767518D-06 0.500025467943D-07 0.000000000000D+00  7 -2 2 23 -13 13 23 21 2 0.26102871D-01 0.12453118D+00 0.49376809D+05 0.49376809D+05 0.49376809D+05 0.11477748D+01  1  2  5  1  7  1       -2 -.103105343244D-03 0.100000000000D+01
0.182809923457D-05 0.000000000000D+00 0.850790880174D-06 0.500025467943D-07 0.000000000000D+00  7 -2 2 23 -13 13 23 21 2 0.15080201D-01 0.12453118D+00 0.49376809D+05 0.49376809D+05 0.49376809D+05 0.11477748D+01  1  2  6  1  7  1       -2 0.321715391200D-03 0.100000000000D+01
0.209689380443D-07 0.000000000000D+00 0.000000000000D+00 0.500025467943D-07 0.000000000000D+00  7 21 2 23 -13 13 23 2 2 0.22929201D-01 0.12453118D+00 0.94741667D+05 0.94741667D+05 0.94741667D+05 0.11236522D+01  1  2 12  3  7  1       -2 0.222958272524D-04 0.100000000000D+01
-.386456357868D-07 0.000000000000D+00 -.597094040766D-07 0.500025467943D-07 0.000000000000D+00  7 21 2 23 -13 13 23 2 2 0.26102871D-01 0.12453118D+00 0.49376809D+05 0.49376809D+05 0.49376809D+05 0.11477748D+01  1  2  5  3  7  1       -2 -.343646032793D-04 0.100000000000D+01
  </mgrwgt>
  </event>
  <event>
  8     66 0.27870365E-05 0.98941733E+02 0.75467711E-02 0.10395933E+00
       -4 -1    0    0    0  501 0.00000000E+00 0.00000000E+00 0.30768342E+03 0.30768732E+03 0.15500000E+01 0.0000E+00 0.9000E+01
        4 -1    0    0  501    0 0.00000000E+00 0.00000000E+00 -.15646125E+03 0.15646892E+03 0.15500000E+01 0.0000E+00 0.9000E+01
       25  2    1    2    0    0 0.51934734E+02 0.47958964E+02 0.16240103E+03 0.34823602E+03 0.29982821E+03 0.0000E+00 0.0000E+00
       23  2    3    3    0    0 0.13099123E+03 0.44899795E+02 0.14602624E+03 0.22640551E+03 0.10373571E+03 0.0000E+00 0.0000E+00
       23  1    1    2    0    0 -.51934734E+02 -.47958964E+02 -.11178860E+02 0.11592022E+03 0.91188000E+02 0.0000E+00 0.9000E+01
      -11  1    4    4    0    0 0.12472826E+03 0.33140264E+02 0.65390821E+02 0.14467680E+03 0.51099893E-03 0.0000E+00 0.9000E+01
       11  1    4    4    0    0 0.62629719E+01 0.11759531E+02 0.80635424E+02 0.81728716E+02 0.51099893E-03 0.0000E+00 0.9000E+01
       23  1    3    3    0    0 -.79056499E+02 0.30591692E+01 0.16374787E+02 0.12183051E+03 0.91188000E+02 0.0000E+00 0.9000E+01
#aMCatNLO 1  0  0  2  1 0.85021403D+02 0.00000000D+00  -5  7  0 0.00000000D+00 0.00000000D+00 0.00000000D+00 0.00000000D+00 0.00000000D+00
  <mgrwgt>
 0.1629563144D-03    8    2    0
 0.219415628977022D+03 0.000000000000000D+00 0.000000000000000D+00 0.219415628977022D+03
 0.219415628977022D+03 0.000000000000000D+00 0.000000000000000D+00 -.219415628977022D+03
 0.126462242266551D+03 -.519347343426737D+02 -.479589643925834D+02 -.517703436170817D+02
 0.130492292202410D+03 0.124728260657050D+03 0.331402642441426D+02 0.193086043911635D+02
 0.586581489714343D+02 0.626297377836372D+01 0.117595310367816D+02 0.571250122976046D+02
 0.123218574513649D+03 -.790565000927404D+02 0.305916911165917D+01 -.246632730716864D+02
 0.000000000000000D+00 0.000000000000000D+00 -.000000000000000D+00 -.000000000000000D+00
 0.232987442224286D+03 0.000000000000000D+00 0.000000000000000D+00 0.232987442224286D+03
 0.413890897409735D+03 0.000000000000000D+00 0.000000000000000D+00 -.413890897409735D+03
 0.137418191060640D+03 -.769929151601474D+02 -.442767481562297D+02 -.517703436170817D+02
 0.109943637705335D+03 0.101896378312916D+03 0.364953333326162D+02 0.193086043911635D+02
 0.588796482059921D+02 -.489845769809433D+01 0.133996662286748D+02 0.571250122976046D+02
 0.140750147043719D+03 -.104123064792293D+03 0.674261733156889D+01 -.246632730716864D+02
 0.199886715618335D+03 0.841180593376187D+02 -.123608687366302D+02 -.180903455185449D+03
0.294320746072D-05 0.000000000000D+00 0.000000000000D+00 0.141923754769D-08 0.000000000000D+00  7 -4 4 23 -11 11 23 21 0 0.47336801D-01 0.24071852D-01 0.35812573D+05 0.35812573D+05 0.35812573D+05 0.11602662D+01  1  2  2  2  7  2        4 0.506622615326D-04 0.100000000000D+01
-.159160368551D-06 0.000000000000D+00 -.113026916135D-07 0.141923754769D-08 0.000000000000D+00  7 -4 4 23 -11 11 23 21 2 0.47336801D-01 0.24071852D-01 0.35812573D+05 0.35812573D+05 0.35812573D+05 0.11602662D+01  1  2  3  2  7  2        4 -.368819563435D-05 0.100000000000D+01
0.190306378182D-06 0.000000000000D+00 0.000000000000D+00 0.141923754769D-08 0.000000000000D+00  7 -4 4 23 -11 11 23 21 2 0.47336801D-01 0.24071852D-01 0.35812573D+05 0.35812573D+05 0.35812573D+05 0.11602662D+01  1  2 15  2  7  2        4 0.440993671722D-05 0.100000000000D+01
0.436863036345D-05 0.000000000000D+00 0.000000000000D+00 0.141923754769D-08 0.000000000000D+00  7 -4 4 23 -11 11 23 21 2 0.47336801D-01 0.45539956D-01 0.56024283D+05 0.56024283D+05 0.56024283D+05 0.11429748D+01  1  2 12  2  7  2        4 0.276735544867D-04 0.100000000000D+01
-.571426601293D-05 0.000000000000D+00 -.100114108579D-05 0.141923754769D-08 0.000000000000D+00  7 -4 4 23 -11 11 23 21 2 0.47336801D-01 0.47358348D-01 0.35812573D+05 0.35812573D+05 0.35812573D+05 0.11602662D+01  1  2  5  2  7  2        4 -.336832146014D-04 0.100000000000D+01
0.531904835355D-05 0.000000000000D+00 0.808785211155D-06 0.141923754769D-08 0.000000000000D+00  7 -4 4 23 -11 11 23 21 2 0.47336801D-01 0.24071852D-01 0.35812573D+05 0.35812573D+05 0.35812573D+05 0.11602662D+01  1  2  6  2  7  2        4 0.123257385586D-03 0.100000000000D+01
0.302800844520D-06 0.000000000000D+00 0.000000000000D+00 0.141923754769D-08 0.000000000000D+00  7 -4 21 23 -11 11 23 -4 2 0.47336801D-01 0.45539956D-01 0.56024283D+05 0.56024283D+05 0.56024283D+05 0.11429748D+01  1  2 12  4  7  2        4 0.417197532197D-04 0.100000000000D+01
-.359545261095D-06 0.000000000000D+00 -.733700035816D-07 0.141923754769D-08 0.000000000000D+00  7 -4 21 23 -11 11 23 -4 2 0.47336801D-01 0.47358348D-01 0.35812573D+05 0.35812573D+05 0.35812573D+05 0.11602662D+01  1  2  5  4  7  2        4 -.473951668762D-04 0.100000000000D+01
  </mgrwgt>
  </event>
  <event>
  8     66 0.27870365E-05 0.20667762E+03 0.75467711E-02 0.98394713E-01
       -2 -1    0    0    0  501 0.00000000E+00 0.00000000E+00 0.27985363E+03 0.27985382E+03 0.32000000E+00 0.0000E+00 0.9000E+01
        2 -1    0    0  501    0 0.00000000E+00 0.00000000E+00 -.37487296E+03 0.37487310E+03 0.32000000E+00 0.0000E+00 0.9000E+01
       25  2    1    2    0    0 0.21462350E+02 -.63254459E+02 0.17341355E+03 0.36346549E+03 0.31236700E+03 0.0000E+00 0.0000E+00
       23  2    3    3    0    0 -.10318343E+03 -.86085560E+02 0.79019885E+02 0.18102853E+03 0.92030660E+02 0.0000E+00 0.0000E+00
       23  1    1    2    0    0 -.21462350E+02 0.63254459E+02 -.26843288E+03 0.29126143E+03 0.91188000E+02 0.0000E+00 0.9000E+01
      -11  1    4    4    0    0 -.87309113E+02 -.92393077E+02 0.94166887E+02 0.15819850E+03 0.51099893E-03 0.0000E+00 0.9000E+01
       11  1    4    4    0    0 -.15874315E+02 0.63075168E+01 -.15147002E+02 0.22830031E+02 0.51099893E-03 0.0000E+00 0.9000E+01
       23  1    3    3    0    0 0.12464578E+03 0.22831101E+02 0.94393664E+02 0.18243696E+03 0.91188000E+02 0.0000E+00 0.9000E+01
#aMCatNLO 1  0  0  1  2 0.25356442D+03 0.00000000D+00  -5  7  0 0.00000000D+00 0.00000000D+00 0.00000000D+00 0.00000000D+00 0.00000000D+00
  <mgrwgt>
 0.5379733354D-03    3    2    0
 0.323897616555387D+03 0.000000000000000D+00 0.000000000000000D+00 0.323897616555387D+03
 0.323897616555387D+03 0.000000000000000D+00 0.000000000000000D+00 -.323897616555387D+03
 0.255004017632372D+03 -.214623505264257D+02 0.632544589966988D+02 -.228582673428164D+03
 0.173703792385597D+03 -.873091118211852D+02 -.923930763831623D+02 0.118379246148088D+03
 0.208525424861040D+02 -.158743145234559D+02 0.630751695230452D+01 -.119603468361733D+02
 0.198234880606700D+03 0.124645776871067D+03 0.228311004341590D+02 0.122163774116250D+03
 0.000000000000000D+00 0.000000000000000D+00 0.000000000000000D+00 -.000000000000000D+00
 0.394636580876771D+03 0.000000000000000D+00 0.000000000000000D+00 0.394636580876771D+03
 0.691209730935280D+03 0.000000000000000D+00 0.000000000000000D+00 -.691209730935280D+03
 0.256922398808536D+03 -.711236016521946D+02 -.196281013341977D+02 -.228582673428164D+03
 0.235124567581382D+03 -.126968967612198D+03 -.158583724339021D+03 0.118379246148088D+03
 0.234688936800166D+02 -.201738737980152D+02 -.868268451640343D+00 -.119603468361733D+02
 0.180137487529566D+03 0.879404133860082D+02 -.384286228823817D+02 0.122163774116250D+03
 0.390192964212551D+03 0.130326029676400D+03 0.217508717007241D+03 -.296573150058509D+03
0.982811182636D-05 0.000000000000D+00 0.000000000000D+00 0.134740490433D-08 0.000000000000D+00  7 -2 2 23 -11 11 23 21 0 0.43054430D-01 0.57672788D-01 0.42715640D+05 0.42715640D+05 0.42715640D+05 0.11533593D+01  1  2  2  1  7  1       -2 0.524506085153D-03 0.100000000000D+01
-.412011200293D-06 0.000000000000D+00 -.377425372145D-07 0.134740490433D-08 0.000000000000D+00  7 -2 2 23 -11 11 23 21 2 0.43054430D-01 0.57672788D-01 0.42715640D+05 0.42715640D+05 0.42715640D+05 0.11533593D+01  1  2  3  1  7  1       -2 -.292495200829D-04 0.100000000000D+01
0.601712019740D-06 0.000000000000D+00 0.000000000000D+00 0.134740490433D-08 0.000000000000D+00  7 -2 2 23 -11 11 23 21 2 0.43054430D-01 0.57672788D-01 0.42715640D+05 0.42715640D+05 0.42715640D+05 0.11533593D+01  1  2 15  1  7  1       -2 0.427167703038D-04 0.100000000000D+01
  </mgrwgt>
  </event>
  <event>
  8     66 0.27870365E-05 0.22920854E+03 0.75467711E-02 0.91753947E-01
       -2 -1    0    0    0  501 0.00000000E+00 0.00000000E+00 0.13268318E+03 0.13268357E+03 0.32000000E+00 0.0000E+00 0.9000E+01
        2 -1    0    0  501    0 0.00000000E+00 0.00000000E+00 -.70933678E+03 0.70933686E+03 0.32000000E+00 0.0000E+00 0.9000E+01
       25  2    1    2    0    0 -.17553847E+03 0.13335707E+02 -.53617592E+03 0.63967100E+03 0.30116900E+03 0.0000E+00 0.0000E+00
       23  2    3    3    0    0 -.13592447E+03 -.29408797E+02 -.49808725E+03 0.52494367E+03 0.90192052E+02 0.0000E+00 0.0000E+00
       23  1    1    2    0    0 0.17553847E+03 -.13335707E+02 -.40477677E+02 0.20234943E+03 0.91188000E+02 0.0000E+00 0.9000E+01
      -13  1    4    4    0    0 -.78502839E+01 -.22327529E+02 -.18637043E+03 0.18786722E+03 0.10565837E+00 0.0000E+00 0.9000E+01
       13  1    4    4    0    0 -.12807419E+03 -.70812676E+01 -.31171682E+03 0.33707645E+03 0.10565837E+00 0.0000E+00 0.9000E+01
       23  1    3    3    0    0 -.39613999E+02 0.42744504E+02 -.38088673E+02 0.11472733E+03 0.91188000E+02 0.0000E+00 0.9000E+01
#aMCatNLO 1  0  0  2  1 0.57553600D+03 0.00000000D+00  -5  7  0 0.00000000D+00 0.00000000D+00 0.00000000D+00 0.00000000D+00 0.00000000D+00
  <mgrwgt>
 0.3370294012D-03    5    2    0
 0.306785355397732D+03 0.000000000000000D+00 0.000000000000000D+00 0.306785355397732D+03
 0.306785355397732D+03 0.000000000000000D+00 0.000000000000000D+00 -.306785355397732D+03
 0.239647606366269D+03 0.175538474332969D+03 -.133357069085337D+02 0.134625877316308D+03
 0.826584192342182D+02 -.785011919863454D+01 -.223275496987130D+02 -.791976667795112D+02
 0.169618098865233D+03 -.128074354176073D+03 -.708124615264714D+01 -.110982499602250D+03
 0.121646586329743D+03 -.396140009582619D+02 0.427445027598939D+02 0.555542890654535D+02
 0.000000000000000D+00 -.000000000000000D+00 0.000000000000000D+00 -.000000000000000D+00
 0.634950905945285D+03 0.000000000000000D+00 0.000000000000000D+00 0.634950905945285D+03
 0.807008783173942D+03 0.000000000000000D+00 0.000000000000000D+00 -.807008783173942D+03
 0.467030104035270D+03 0.397723440228935D+03 -.183013127891061D+03 0.134625877316308D+03
 0.120190576632923D+03 0.559271820596189D+02 -.710327712742950D+02 -.791976667795112D+02
 0.141113964815701D+03 -.303777777091249D+02 -.816898186403815D+02 -.110982499602250D+03
 0.112920788832841D+03 0.341358053306497D+02 -.135764858299587D+02 0.555542890654535D+02
 0.600704254802493D+03 -.457408649910079D+03 0.349312203635696D+03 -.172057877228657D+03
0.330427816703D-05 0.000000000000D+00 0.000000000000D+00 0.420706709620D-07 0.000000000000D+00  7 -2 2 23 -13 13 23 21 0 0.20412832D-01 0.10912877D+00 0.52536554D+05 0.52536554D+05 0.52536554D+05 0.11454098D+01  1  2  2  2  7  2        2 0.318052904687D-03 0.100000000000D+01
-.164603484059D-06 0.000000000000D+00 -.126892981978D-07 0.420706709620D-07 0.000000000000D+00  7 -2 2 23 -13 13 23 21 2 0.20412832D-01 0.10912877D+00 0.52536554D+05 0.52536554D+05 0.52536554D+05 0.11454098D+01  1  2  3  2  7  2        2 -.207866051181D-04 0.100000000000D+01
0.203410351480D-06 0.000000000000D+00 0.000000000000D+00 0.420706709620D-07 0.000000000000D+00  7 -2 2 23 -13 13 23 21 2 0.20412832D-01 0.10912877D+00 0.52536554D+05 0.52536554D+05 0.52536554D+05 0.11454098D+01  1  2 15  2  7  2        2 0.256872488290D-04 0.100000000000D+01
0.149292231414D-05 0.000000000000D+00 -.112981835227D-05 0.420706709620D-07 0.000000000000D+00  7 -2 2 23 -13 13 23 21 2 0.20412832D-01 0.41906213D+00 0.52536554D+05 0.52536554D+05 0.52536554D+05 0.11454098D+01  1  2  5  2  7  2        2 0.138309294953D-04 0.100000000000D+01
0.259014266014D-06 0.000000000000D+00 -.180414467489D-06 0.420706709620D-07 0.000000000000D+00  7 -2 21 23 -13 13 23 -2 2 0.20412832D-01 0.41906213D+00 0.52536554D+05 0.52536554D+05 0.52536554D+05 0.11454098D+01  1  2  5  4  7  2        2 0.244923325035D-06 0.100000000000D+01
  </mgrwgt>
  </event>
  <event>
  8     66 0.27870365E-05 0.23344126E+03 0.75467711E-02 0.10326530E+00
       -2 -1    0    0    0  501 0.00000000E+00 0.00000000E+00 0.13362453E+03 0.13362491E+03 0.32000000E+00 0.0000E+00 0.9000E+01
        2 -1    0    0  501    0 0.00000000E+00 0.00000000E+00 -.10625616E+04 0.10625616E+04 0.32000000E+00 0.0000E+00 0.9000E+01
       25  2    1    2    0    0 0.14398520E+03 0.67621787E+02 -.10415960E+03 0.35127380E+03 0.29536353E+03 0.0000E+00 0.0000E+00
       23  2    3    3    0    0 0.17102017E+03 0.16679342E+02 -.13921979E+03 0.23782561E+03 0.87480113E+02 0.0000E+00 0.0000E+00
       23  1    1    2    0    0 -.14398520E+03 -.67621787E+02 -.82477747E+03 0.84491276E+03 0.91188000E+02 0.0000E+00 0.9000E+01
      -11  1    4    4    0    0 0.17556425E+02 0.13478985E+02 -.62338251E+02 0.66151105E+02 0.51099893E-03 0.0000E+00 0.9000E+01
       11  1    4    4    0    0 0.15346375E+03 0.32003573E+01 -.76881540E+02 0.17167450E+03 0.51099893E-03 0.0000E+00 0.9000E+01
       23  1    3    3    0    0 -.27034973E+02 0.50942445E+02 0.35060193E+02 0.11344819E+03 0.91188000E+02 0.0000E+00 0.9000E+01
#aMCatNLO 1  0  0  2  2 0.33843201D+02 0.00000000D+00  -5  7  0 0.00000000D+00 0.00000000D+00 0.00000000D+00 0.00000000D+00 0.00000000D+00
  <mgrwgt>
 0.4707993646D-03    4    2    0
 0.376808372746716D+03 0.000000000000000D+00 0.000000000000000D+00 0.376808372746716D+03
 0.376808372746716D+03 0.000000000000000D+00 0.000000000000000D+00 -.376808372746716D+03
 0.324444646123081D+03 -.143985200203109D+03 -.676217866467571D+02 -.267665151162983D+03
 0.281585433017003D+02 0.175564249752425D+02 0.134789847252300D+02 -.174066789980004D+02
 0.177725114296743D+03 0.153463748379739D+03 0.320035725052155D+01 0.895815377100645D+02
 0.223288441771908D+03 -.270349731518721D+02 0.509424446710055D+02 0.195490292450919D+03
 0.000000000000000D+00 -.000000000000000D+00 -.000000000000000D+00 0.000000000000000D+00
 0.429038224659464D+03 0.000000000000000D+00 0.000000000000000D+00 0.429038224659464D+03
 0.382710606783554D+03 0.000000000000000D+00 0.000000000000000D+00 -.382710606783554D+03
 0.317876472717940D+03 -.132993176423447D+03 -.582956468468992D+02 -.267665151162983D+03
 0.291797224726444D+02 0.185376531528453D+02 0.143115039540198D+02 -.174066789980004D+02
 0.183252303645490D+03 0.159641145082966D+03 0.844154544373470D+01 0.895815377100645D+02
 0.224067774229823D+03 -.193793784344772D+02 0.574378042168594D+02 0.195490292450919D+03
 0.573725583771209D+02 -.258062433778871D+02 -.218952067677148D+02 0.463276178759110D+02
0.111307094859D-04 0.000000000000D+00 0.000000000000D+00 0.118783361071D-08 0.000000000000D+00  7 -2 2 23 -11 11 23 21 0 0.20557653D-01 0.16347105D+00 0.54494824D+05 0.54494824D+05 0.54494824D+05 0.11440214D+01  1  2  2  2  7  2        2 0.626942208517D-03 0.100000000000D+01
-.446006794658D-06 0.000000000000D+00 -.427448552089D-07 0.118783361071D-08 0.000000000000D+00  7 -2 2 23 -11 11 23 21 2 0.20557653D-01 0.16347105D+00 0.54494824D+05 0.54494824D+05 0.54494824D+05 0.11440214D+01  1  2  3  2  7  2        2 -.328786872933D-04 0.100000000000D+01
0.688242151388D-06 0.000000000000D+00 0.000000000000D+00 0.118783361071D-08 0.000000000000D+00  7 -2 2 23 -11 11 23 21 2 0.20557653D-01 0.16347105D+00 0.54494824D+05 0.54494824D+05 0.54494824D+05 0.11440214D+01  1  2 15  2  7  2        2 0.507357707295D-04 0.100000000000D+01
-.236034818511D-05 0.000000000000D+00 0.000000000000D+00 0.118783361071D-08 0.000000000000D+00  7 -2 2 23 -11 11 23 21 2 0.20557653D-01 0.16347105D+00 0.54494824D+05 0.54494824D+05 0.54494824D+05 0.11440214D+01  1  2  4  2  7  2        2 -.173999927380D-03 0.100000000000D+01
  </mgrwgt>
  </event>
  <event>
  8     66 0.27870365E-05 0.12734964E+03 0.75467711E-02 0.10161622E+00
       -2 -1    0    0    0  501 0.00000000E+00 0.00000000E+00 0.13397949E+03 0.13397987E+03 0.32000000E+00 0.0000E+00 0.9000E+01
        2 -1    0    0  501    0 0.00000000E+00 0.00000000E+00 -.37471806E+03 0.37471820E+03 0.32000000E+00 0.0000E+00 0.9000E+01
       25  2    1    2    0    0 -.54032008E+02 -.35095130E+02 -.87508329E+02 0.31910407E+03 0.30003096E+03 0.0000E+00 0.0000E+00
       23  2    3    3    0    0 0.30518425E+02 0.52286003E+02 -.12039818E+03 0.16360091E+03 0.92759562E+02 0.0000E+00 0.0000E+00
       23  1    1    2    0    0 0.54032008E+02 0.35095130E+02 -.15323024E+03 0.18959400E+03 0.91188000E+02 0.0000E+00 0.9000E+01
      -13  1    4    4    0    0 0.93177107E+01 -.15903518E+02 0.51737142E+01 0.19144715E+02 0.10565837E+00 0.0000E+00 0.9000E+01
       13  1    4    4    0    0 0.21200714E+02 0.68189521E+02 -.12557190E+03 0.14445620E+03 0.10565837E+00 0.0000E+00 0.9000E+01
       23  1    3    3    0    0 -.84550433E+02 -.87381133E+02 0.32889854E+02 0.15550316E+03 0.91188000E+02 0.0000E+00 0.9000E+01
#aMCatNLO 1  0  0  1  2 0.17156765D+03 0.00000000D+00  -5  7  0 0.00000000D+00 0.00000000D+00 0.00000000D+00 0.00000000D+00 0.00000000D+00
  <mgrwgt>
 0.1626575541D-03    7    2    0
 0.224063979305557D+03 0.000000000000000D+00 0.000000000000000D+00 0.224063979305557D+03
 0.224063979305557D+03 0.000000000000000D+00 0.000000000000000D+00 -.224063979305557D+03
 0.132903278117567D+03 0.540320130351977D+02 0.350951333435715D+02 -.720895496820212D+02
 0.245116313831970D+02 0.931769461728467D+01 -.159036225007769D+02 0.161578287971354D+02
 0.965229436873918D+02 0.212007296674557D+02 0.681896253949312D+02 -.649413790132750D+02
 0.194190105422958D+03 -.845504373199380D+02 -.873811362377258D+02 0.120873099898161D+03
 0.000000000000000D+00 0.000000000000000D+00 -.000000000000000D+00 0.000000000000000D+00
 0.176616064470564D+04 0.000000000000000D+00 0.000000000000000D+00 0.176616064470564D+04
 0.244745586295552D+03 0.000000000000000D+00 0.000000000000000D+00 -.244745586295552D+03
 0.125252269670328D+03 0.757242996033893D+01 0.460286307064164D+02 -.720895496820212D+02
 0.213794036529452D+02 0.105880429738863D+01 -.139600287455959D+02 0.161578287971354D+02
 0.101434630161735D+03 -.144251804721840D+02 0.765735963387316D+02 -.649413790132750D+02
 0.231781719127804D+03 -.161211479625043D+03 -.693402230740136D+02 0.120873099898161D+03
 0.153105820838838D+04 0.167005425839499D+03 -.393019752255385D+02 0.152141505841009D+04
0.241558908763D-05 0.000000000000D+00 0.000000000000D+00 0.901053298313D-07 0.000000000000D+00  7 -2 2 23 -13 13 23 21 0 0.20612269D-01 0.57648972D-01 0.31236961D+05 0.31236961D+05 0.31236961D+05 0.11657113D+01  1  2  2  1  7  1       -2 0.463780895941D-03 0.100000000000D+01
-.125014896078D-06 0.000000000000D+00 -.927649813570D-08 0.901053298313D-07 0.000000000000D+00  7 -2 2 23 -13 13 23 21 2 0.20612269D-01 0.57648972D-01 0.31236961D+05 0.31236961D+05 0.31236961D+05 0.11657113D+01  1  2  3  1  7  1       -2 -.326162173135D-04 0.100000000000D+01
0.150186666655D-06 0.000000000000D+00 0.000000000000D+00 0.901053298313D-07 0.000000000000D+00  7 -2 2 23 -13 13 23 21 2 0.20612269D-01 0.57648972D-01 0.31236961D+05 0.31236961D+05 0.31236961D+05 0.11657113D+01  1  2 15  1  7  1       -2 0.391834982141D-04 0.100000000000D+01
0.340956839309D-07 0.000000000000D+00 0.000000000000D+00 0.901053298313D-07 0.000000000000D+00  7 -2 2 23 -13 13 23 21 2 0.15346222D+00 0.57648972D-01 0.79434814D+05 0.79434814D+05 0.79434814D+05 0.11300208D+01  1  2 12  1  7  1       -2 0.130789451242D-06 0.100000000000D+01
-.273003139256D-04 0.000000000000D+00 -.146125390825D-05 0.901053298313D-07 0.000000000000D+00  7 -2 2 23 -13 13 23 21 2 0.16661904D+00 0.57648972D-01 0.31236961D+05 0.31236961D+05 0.31236961D+05 0.11657113D+01  1  2  5  1  7  1       -2 -.918360069590D-04 0.100000000000D+01
0.834403772957D-08 0.000000000000D+00 0.000000000000D+00 0.901053298313D-07 0.000000000000D+00  7 21 2 23 -13 13 23 2 2 0.15346222D+00 0.57648972D-01 0.79434814D+05 0.79434814D+05 0.79434814D+05 0.11300208D+01  1  2 12  3  7  1       -2 0.284555726732D-06 0.100000000000D+01
-.709779663754D-05 0.000000000000D+00 -.370404570024D-06 0.901053298313D-07 0.000000000000D+00  7 21 2 23 -13 13 23 2 2 0.16661904D+00 0.57648972D-01 0.31236961D+05 0.31236961D+05 0.31236961D+05 0.11657113D+01  1  2  5  3  7  1       -2 -.216269960913D-03 0.100000000000D+01
  </mgrwgt>
  </event>
  <event>
  8     66 0.27870365E-05 0.40934882E+03 0.75467711E-02 0.80895933E-01
       -2 -1    0    0    0  501 0.00000000E+00 0.00000000E+00 0.11759191E+04 0.11759192E+04 0.32000000E+00 0.0000E+00 0.9000E+01
        2 -1    0    0  501    0 0.00000000E+00 0.00000000E+00 -.19501111E+03 0.19501138E+03 0.32000000E+00 0.0000E+00 0.9000E+01
       25  2    1    2    0    0 0.18919097E+03 0.32429740E+03 0.24462668E+03 0.53943342E+03 0.30030681E+03 0.0000E+00 0.0000E+00
       23  2    3    3    0    0 -.11282445E+02 0.15224426E+03 0.17896261E+03 0.25234651E+03 0.91353923E+02 0.0000E+00 0.0000E+00
       23  1    1    2    0    0 -.18919097E+03 -.32429740E+03 0.73628135E+03 0.83149715E+03 0.91188000E+02 0.0000E+00 0.9000E+01
      -13  1    4    4    0    0 -.66227275E+01 0.42417765E+02 0.12033511E+03 0.12776414E+03 0.10565837E+00 0.0000E+00 0.9000E+01
       13  1    4    4    0    0 -.46597176E+01 0.10982650E+03 0.58627504E+02 0.12458237E+03 0.10565837E+00 0.0000E+00 0.9000E+01
       23  1    3    3    0    0 0.20047341E+03 0.17205313E+03 0.65664075E+02 0.28708691E+03 0.91188000E+02 0.0000E+00 0.9000E+01
#aMCatNLO 1  0  0  1  2 0.19991376D+04 0.00000000D+00  -5  7  0 0.00000000D+00 0.00000000D+00 0.00000000D+00 0.00000000D+00 0.00000000D+00
  <mgrwgt>
 0.3740978787D-03    5    2    0
 0.478871080518542D+03 0.000000000000000D+00 0.000000000000000D+00 0.478871080518542D+03
 0.478871080518542D+03 0.000000000000000D+00 0.000000000000000D+00 -.478871080518542D+03
 0.436130491652339D+03 -.189190967982061D+03 -.324297395409268D+03 0.202317896810160D+03
 0.596382028067908D+02 -.662273015006803D+01 0.424176751129441D+02 0.413955978021336D+02
 0.118284097516717D+03 -.465971494682470D+01 0.109826585274876D+03 -.436753471516716D+02
 0.343689369061237D+03 0.200473413078954D+03 0.172053135021448D+03 -.200038147460622D+03
 0.000000000000000D+00 0.000000000000000D+00 -.000000000000000D+00 0.000000000000000D+00
 0.216570638006149D+04 0.000000000000000D+00 0.000000000000000D+00 0.216570638006149D+04
 0.205330269517178D+04 0.000000000000000D+00 0.000000000000000D+00 -.205330269517178D+04
 0.407138264524971D+03 -.277011187239981D+03 0.199445696545739D+03 0.202317896810160D+03
 0.227641143719428D+03 -.365407545229521D+02 0.220843084689982D+03 0.413955978021336D+02
 0.501468999509972D+03 -.692024274189260D+02 0.494747052098385D+03 -.436753471516716D+02
 0.108046560044170D+04 0.521581805237163D+02 0.105657698543874D+04 -.200038147460622D+03
 0.200229506703720D+04 0.330596188658143D+03 -.197161281877285D+04 0.112403684889708D+03
0.982264102253D-04 0.000000000000D+00 0.000000000000D+00 0.908651604312D-06 0.000000000000D+00  7 -2 2 23 -13 13 23 21 0 0.18091066D+00 0.30001733D-01 0.16756646D+06 0.16756646D+06 0.16756646D+06 0.11037763D+01  1  2  2  1  7  1       -2 0.370843804916D-03 0.100000000000D+01
-.529376178227D-05 0.000000000000D+00 -.377215278873D-06 0.908651604312D-06 0.000000000000D+00  7 -2 2 23 -13 13 23 21 2 0.18091066D+00 0.30001733D-01 0.16756646D+06 0.16756646D+06 0.16756646D+06 0.11037763D+01  1  2  3  1  7  1       -2 -.243494586925D-04 0.100000000000D+01
0.599368473209D-05 0.000000000000D+00 0.000000000000D+00 0.908651604312D-06 0.000000000000D+00  7 -2 2 23 -13 13 23 21 2 0.18091066D+00 0.30001733D-01 0.16756646D+06 0.16756646D+06 0.16756646D+06 0.11037763D+01  1  2 15  1  7  1       -2 0.275688602552D-04 0.100000000000D+01
0.630367727205D-04 0.000000000000D+00 -.350469288748D-04 0.908651604312D-06 0.000000000000D+00  7 -2 2 23 -13 13 23 21 2 0.92622337D+00 0.30001733D-01 0.16756646D+06 0.16756646D+06 0.16756646D+06 0.11037763D+01  1  2  5  1  7  1       -2 0.346480023802D-07 0.100000000000D+01
0.114087533276D-04 0.000000000000D+00 -.698476708993D-05 0.908651604312D-06 0.000000000000D+00  7 21 2 23 -13 13 23 2 2 0.92622337D+00 0.30001733D-01 0.16756646D+06 0.16756646D+06 0.16756646D+06 0.11037763D+01  1  2  5  3  7  1       -2 0.242629470053D-10 0.100000000000D+01
  </mgrwgt>
  </event>
  <event>
  8     66 0.27870365E-05 0.24424386E+03 0.75467711E-02 0.92657592E-01
       -2 -1    0    0    0  501 0.00000000E+00 0.00000000E+00 0.18995860E+03 0.18995887E+03 0.32000000E+00 0.0000E+00 0.9000E+01
        2 -1    0    0  501    0 0.00000000E+00 0.00000000E+00 -.22102949E+04 0.22102950E+04 0.32000000E+00 0.0000E+00 0.9000E+01
       25  2    1    2    0    0 -.35817445E+03 0.36481661E+03 -.16745003E+04 0.17763164E+04 0.29994759E+03 0.0000E+00 0.0000E+00
       23  2    3    3    0    0 -.10030322E+03 0.26918854E+03 -.79071910E+03 0.84624824E+03 0.91521483E+02 0.0000E+00 0.0000E+00
       23  1    1    2    0    0 0.35817445E+03 -.36481661E+03 -.34583601E+03 0.62393741E+03 0.91188000E+02 0.0000E+00 0.9000E+01
      -13  1    4    4    0    0 0.12035959E+02 0.49026028E+01 -.20910473E+02 0.24620294E+02 0.10565837E+00 0.0000E+00 0.9000E+01
       13  1    4    4    0    0 -.11233918E+03 0.26428594E+03 -.76980862E+03 0.82162794E+03 0.10565837E+00 0.0000E+00 0.9000E+01
       23  1    3    3    0    0 -.25787123E+03 0.95628070E+02 -.88378123E+03 0.93006818E+03 0.91188000E+02 0.0000E+00 0.9000E+01
#aMCatNLO 1  0  0  1  2 0.83369732D+02 0.00000000D+00  -5  7  0 0.00000000D+00 0.00000000D+00 0.00000000D+00 0.00000000D+00 0.00000000D+00
  <mgrwgt>
 0.5842053007D-03    6    2    0
 0.647969813611882D+03 0.000000000000000D+00 0.000000000000000D+00 0.647969813611882D+03
 0.647969813611882D+03 0.000000000000000D+00 0.000000000000000D+00 -.647969813611882D+03
 0.616466298071791D+03 0.358174451608917D+03 -.364816610105710D+03 0.332167651224450D+03
 0.130007854328586D+02 0.120361248388959D+02 0.490225712746259D+01 -.346404084827370D+00
 0.321653726876233D+03 -.112339343959922D+03 0.264286282494699D+03 -.144892210615880D+03
 0.344818816842882D+03 -.257871232487891D+03 0.956280704835484D+02 -.186929036523742D+03
 0.000000000000000D+00 0.000000000000000D+00 -.000000000000000D+00 -.000000000000000D+00
 0.685545921527122D+03 0.000000000000000D+00 0.000000000000000D+00 0.685545921527122D+03
 0.697261457643457D+03 0.000000000000000D+00 0.000000000000000D+00 -.697261457643457D+03
 0.584888235179876D+03 0.329849101714865D+03 -.338590043984993D+03 0.332167651224450D+03
 0.126737633308072D+02 0.114307743308037D+02 0.546275382692342D+01 -.346404084827370D+00
 0.339172646691490D+03 -.127920205173189D+03 0.278712670460105D+03 -.144892210615880D+03
 0.361883862917585D+03 -.274533758096462D+03 0.111055976272741D+03 -.186929036523742D+03
 0.841888710508204D+02 0.611740872239829D+02 -.566413565747771D+02 -.117155361163354D+02
0.620533231269D-04 0.000000000000D+00 0.000000000000D+00 0.287061272050D-05 0.000000000000D+00  7 -2 2 23 -13 13 23 21 0 0.29224422D-01 0.34004540D+00 0.30760545D+06 0.30760545D+06 0.30760545D+06 0.10837484D+01  1  2  2  1  7  1       -2 0.426467202735D-03 0.100000000000D+01
-.334597929147D-05 0.000000000000D+00 -.238301099823D-06 0.287061272050D-05 0.000000000000D+00  7 -2 2 23 -13 13 23 21 2 0.29224422D-01 0.34004540D+00 0.30760545D+06 0.30760545D+06 0.30760545D+06 0.10837484D+01  1  2  3  1  7  1       -2 -.270085179815D-04 0.100000000000D+01
0.382635233029D-05 0.000000000000D+00 0.000000000000D+00 0.287061272050D-05 0.000000000000D+00  7 -2 2 23 -13 13 23 21 2 0.29224422D-01 0.34004540D+00 0.30760545D+06 0.30760545D+06 0.30760545D+06 0.10837484D+01  1  2 15  1  7  1       -2 0.308860565813D-04 0.100000000000D+01
0.678255238865D-04 0.000000000000D+00 0.000000000000D+00 0.287061272050D-05 0.000000000000D+00  7 -2 2 23 -13 13 23 21 2 0.31959908D-01 0.34004540D+00 0.35640036D+06 0.35640036D+06 0.35640036D+06 0.10790596D+01  1  2 12  1  7  1       -2 0.459306522978D-03 0.100000000000D+01
-.473546375198D-04 0.000000000000D+00 0.000000000000D+00 0.287061272050D-05 0.000000000000D+00  7 -2 2 23 -13 13 23 21 2 0.29224422D-01 0.34004540D+00 0.30760545D+06 0.30760545D+06 0.30760545D+06 0.10837484D+01  1  2  4  1  7  1       -2 -.382243423390D-03 0.100000000000D+01
0.100003694315D-05 0.000000000000D+00 0.000000000000D+00 0.287061272050D-05 0.000000000000D+00  7 21 2 23 -13 13 23 2 2 0.31959908D-01 0.34004540D+00 0.35640036D+06 0.35640036D+06 0.35640036D+06 0.10790596D+01  1  2 12  3  7  1       -2 0.767974598015D-04 0.100000000000D+01
  </mgrwgt>
  </event>
  <event>
  8     66 0.27870365E-05 0.17634125E+03 0.75467711E-02 0.10395205E+00
       -2 -1    0    0    0  501 0.00000000E+00 0.00000000E+00 0.20564484E+03 0.20564509E+03 0.32000000E+00 0.0000E+00 0.9000E+01
        2 -1    0    0  501    0 0.00000000E+00 0.00000000E+00 -.26325236E+03 0.26325256E+03 0.32000000E+00 0.0000E+00 0.9000E+01
       25  2    1    2    0    0 0.17913230E+02 -.96871522E+01 0.71897660E+02 0.30920554E+03 0.30004011E+03 0.0000E+00 0.0000E+00
       23  2    3    3    0    0 0.11927238E+03 0.86634350E+01 0.79922371E+02 0.17140108E+03 0.93219042E+02 0.0000E+00 0.0000E+00
       23  1    1    2    0    0 -.17913230E+02 0.96871522E+01 -.12950518E+03 0.15969211E+03 0.91188000E+02 0.0000E+00 0.9000E+01
      -13  1    4    4    0    0 0.37315703E+02 0.13235477E+02 -.18112044E+02 0.43539601E+02 0.10565837E+00 0.0000E+00 0.9000E+01
       13  1    4    4    0    0 0.81956674E+02 -.45720424E+01 0.98034416E+02 0.12786148E+03 0.10565837E+00 0.0000E+00 0.9000E+01
       23  1    3    3    0    0 -.10135915E+03 -.18350587E+02 -.80247109E+01 0.13780446E+03 0.91188000E+02 0.0000E+00 0.9000E+01
#aMCatNLO 1  0  0  1  2 0.11854086D+03 0.00000000D+00  -5  7  0 0.00000000D+00 0.00000000D+00 0.00000000D+00 0.00000000D+00 0.00000000D+00
  <mgrwgt>
 0.3894937790D-03    3    2    0
 0.232672716680784D+03 0.000000000000000D+00 0.000000000000000D+00 0.232672716680784D+03
 0.232672716680784D+03 0.000000000000000D+00 0.000000000000000D+00 -.232672716680784D+03
 0.144878999641223D+03 -.179132310094789D+02 0.968715260520137D+01 -.110724651375591D+03
 0.416296447767620D+02 0.373156448676996D+02 0.132354980324768D+02 -.128604651618599D+02
 0.140973822267263D+03 0.819567362986030D+02 -.457206258851299D+01 0.114611553447328D+03
 0.137862966676320D+03 -.101359150156824D+03 -.183505880491652D+02 0.897356309012264D+01
 0.000000000000000D+00 0.000000000000000D+00 0.000000000000000D+00 -.000000000000000D+00
 0.257720081713485D+03 0.000000000000000D+00 0.000000000000000D+00 0.257720081713485D+03
 0.439514082726399D+03 0.000000000000000D+00 0.000000000000000D+00 -.439514082726399D+03
 0.153678138864952D+03 -.549730706133293D+02 0.444208353040257D+01 -.110724651375591D+03
 0.330747507197375D+02 0.280426027670981D+02 0.119230868922484D+02 -.128604651618599D+02
 0.124967680745315D+03 0.489454691925271D+02 -.924413829280211D+01 0.114611553447328D+03
 0.168485956946459D+03 -.139386182533534D+03 -.237325436554905D+02 0.897356309012264D+01
 0.217027637163421D+03 0.117371181187239D+03 0.166115115256416D+02 -.181794001012914D+03
0.281629653457D-05 0.000000000000D+00 0.000000000000D+00 0.644225390449D-07 0.000000000000D+00  7 -2 2 23 -13 13 23 21 0 0.31637701D-01 0.40500397D-01 0.31096236D+05 0.31096236D+05 0.31096236D+05 0.11658925D+01  1  2  2  1  7  1       -2 0.383318391987D-03 0.100000000000D+01
-.141842151295D-06 0.000000000000D+00 -.108153202407D-07 0.644225390449D-07 0.000000000000D+00  7 -2 2 23 -13 13 23 21 2 0.31637701D-01 0.40500397D-01 0.31096236D+05 0.31096236D+05 0.31096236D+05 0.11658925D+01  1  2  3  1  7  1       -2 -.262424044571D-04 0.100000000000D+01
0.175220578357D-06 0.000000000000D+00 0.000000000000D+00 0.644225390449D-07 0.000000000000D+00  7 -2 2 23 -13 13 23 21 2 0.31637701D-01 0.40500397D-01 0.31096236D+05 0.31096236D+05 0.31096236D+05 0.11658925D+01  1  2 15  1  7  1       -2 0.324177914989D-04 0.100000000000D+01
  </mgrwgt>
  </event>
  <event>
  8     66 0.27870365E-05 0.20419817E+03 0.75467711E-02 0.10555628E+00
       -2 -1    0    0    0  501 0.00000000E+00 0.00000000E+00 0.22961866E+03 0.22961889E+03 0.32000000E+00 0.0000E+00 0.9000E+01
        2 -1    0    0  501    0 0.00000000E+00 0.00000000E+00 -.37917153E+03 0.37917167E+03 0.32000000E+00 0.0000E+00 0.9000E+01
       25  2    1    2    0    0 -.43378766E+02 0.25411832E+02 0.11413942E+03 0.32528332E+03 0.30042296E+03 0.0000E+00 0.0000E+00
       23  2    3    3    0    0 -.14222250E+03 0.18188996E+02 0.62598873E+02 0.18108231E+03 0.91181709E+02 0.0000E+00 0.0000E+00
       23  1    1    2    0    0 0.43378766E+02 -.25411832E+02 -.26369229E+03 0.28350723E+03 0.91188000E+02 0.0000E+00 0.9000E+01
      -11  1    4    4    0    0 -.69132074E+02 -.36622318E+02 0.34473713E+02 0.85491957E+02 0.51099893E-03 0.0000E+00 0.9000E+01
       11  1    4    4    0    0 -.73090426E+02 0.54811314E+02 0.28125160E+02 0.95590350E+02 0.51099893E-03 0.0000E+00 0.9000E+01
       23  1    3    3    0    0 0.98843734E+02 0.72228358E+01 0.51540545E+02 0.14420101E+03 0.91188000E+02 0.0000E+00 0.9000E+01
#aMCatNLO 1  0  0  2  2 0.12962689D+02 0.00000000D+00  -5  7  0 0.00000000D+00 0.00000000D+00 0.00000000D+00 0.00000000D+00 0.00000000D+00
  <mgrwgt>
 0.2545074881D-03    4    2    0
 0.295067738238591D+03 0.000000000000000D+00 0.000000000000000D+00 0.295067738238591D+03
 0.295067738238591D+03 0.000000000000000D+00 0.000000000000000D+00 -.295067738238591D+03
 0.225644101145180D+03 0.433787659288278D+02 -.254118315309449D+02 -.200181244182244D+03
 0.969308595965364D+02 -.691320743020785D+02 -.366223179975855D+02 0.572289583104487D+02
 0.105739619693048D+03 -.730904257547196D+02 0.548113136980764D+02 0.532388648124227D+02
 0.161820896042417D+03 0.988437341279703D+02 0.722283583045407D+01 0.897134210593722D+02
 0.000000000000000D+00 -.000000000000000D+00 0.000000000000000D+00 0.000000000000000D+00
 0.323149335649501D+03 0.000000000000000D+00 0.000000000000000D+00 0.323149335649501D+03
 0.296638634291922D+03 0.000000000000000D+00 0.000000000000000D+00 -.296638634291922D+03
 0.226257092789976D+03 0.433807263479504D+02 -.303743765852903D+02 -.200181244182244D+03
 0.977580725912185D+02 -.691312297105821D+02 -.387602910999596D+02 0.572289583104487D+02
 0.104560527293352D+03 -.730895134392950D+02 0.525019063135382D+02 0.532388648124227D+02
 0.161702133356623D+03 0.988451376222339D+02 0.367007334374686D+01 0.897134210593722D+02
 0.295101439102532D+02 -.512082030724902D-02 0.129626880279648D+02 0.265107013575784D+02
0.443161625559D-05 0.000000000000D+00 0.000000000000D+00 0.304533808537D-06 0.000000000000D+00  7 -2 2 23 -11 11 23 21 0 0.35325976D-01 0.58334110D-01 0.41696892D+05 0.41696892D+05 0.41696892D+05 0.11542977D+01  1  2  2  2  7  2        2 0.335591823927D-03 0.100000000000D+01
-.205637364262D-06 0.000000000000D+00 -.170185732928D-07 0.304533808537D-06 0.000000000000D+00  7 -2 2 23 -11 11 23 21 2 0.35325976D-01 0.58334110D-01 0.41696892D+05 0.41696892D+05 0.41696892D+05 0.11542977D+01  1  2  3  2  7  2        2 -.207485107910D-04 0.100000000000D+01
0.272155220326D-06 0.000000000000D+00 0.000000000000D+00 0.304533808537D-06 0.000000000000D+00  7 -2 2 23 -11 11 23 21 2 0.35325976D-01 0.58334110D-01 0.41696892D+05 0.41696892D+05 0.41696892D+05 0.11542977D+01  1  2 15  2  7  2        2 0.274600656648D-04 0.100000000000D+01
-.870140307701D-06 0.000000000000D+00 0.000000000000D+00 0.304533808537D-06 0.000000000000D+00  7 -2 2 23 -11 11 23 21 2 0.35325976D-01 0.58334110D-01 0.41696892D+05 0.41696892D+05 0.41696892D+05 0.11542977D+01  1  2  4  2  7  2        2 -.877958907362D-04 0.100000000000D+01
  </mgrwgt>
  </event>
  <event>
  8     66 0.27870365E-05 0.53256604E+02 0.75467711E-02 0.10438338E+00
       -2 -1    0    0    0  501 0.00000000E+00 0.00000000E+00 0.32019378E+02 0.32020977E+02 0.32000000E+00 0.0000E+00 0.9000E+01
        2 -1    0    0  501    0 0.00000000E+00 0.00000000E+00 -.21458740E+04 0.21458741E+04 0.32000000E+00 0.0000E+00 0.9000E+01
       25  2    1    2    0    0 -.13188977E+03 0.69805386E+01 -.99626148E+03 0.10488364E+04 0.30012867E+03 0.0000E+00 0.0000E+00
       23  2    3    3    0    0 -.97201720E+02 0.46094926E+02 -.19354165E+03 0.23926394E+03 0.90641852E+02 0.0000E+00 0.0000E+00
       23  1    1    2    0    0 0.13188977E+03 -.69805386E+01 -.11175932E+04 0.11290586E+04 0.91188000E+02 0.0000E+00 0.9000E+01
      -11  1    4    4    0    0 -.74725185E+02 0.69173012E+02 -.11085979E+03 0.15052791E+03 0.51099893E-03 0.0000E+00 0.9000E+01
       11  1    4    4    0    0 -.22476535E+02 -.23078086E+02 -.82681859E+02 0.88736027E+02 0.51099893E-03 0.0000E+00 0.9000E+01
       23  1    3    3    0    0 -.34688050E+02 -.39114387E+02 -.80271983E+03 0.80957246E+03 0.91188000E+02 0.0000E+00 0.9000E+01
#aMCatNLO 1  0  0  2  1 0.60258883D+02 0.00000000D+00  -5  7  0 0.00000000D+00 0.00000000D+00 0.00000000D+00 0.00000000D+00 0.00000000D+00
  <mgrwgt>
 0.1009750485D-02    9    2    0
 0.262128440750818D+03 0.000000000000000D+00 0.000000000000000D+00 0.262128440750818D+03
 0.262128440750818D+03 0.000000000000000D+00 0.000000000000000D+00 -.262128440750818D+03
 0.184149521573707D+03 0.131889770106624D+03 -.698053864630316D+01 -.902892882531181D+02
 0.178333388130984D+03 -.747251845999219D+02 0.691730116209836D+02 0.146403683601427D+03
 0.352505059072202D+02 -.224765353545753D+02 -.230780860636881D+02 0.143110261269587D+02
 0.126523465889725D+03 -.346880501521266D+02 -.391143869109923D+02 -.704254214752681D+02
 0.000000000000000D+00 -.000000000000000D+00 0.000000000000000D+00 -.000000000000000D+00
 0.281463222171800D+03 0.000000000000000D+00 0.000000000000000D+00 0.281463222171800D+03
 0.315406841975134D+03 0.000000000000000D+00 0.000000000000000D+00 -.315406841975134D+03
 0.186742012318965D+03 0.132700176716944D+03 -.282105538225249D+02 -.902892882531181D+02
 0.171234861030886D+03 -.739613698616731D+02 0.491635518284090D+02 0.146403683601427D+03
 0.380347517199535D+02 -.223164053656355D+02 -.272729705230041D+02 0.143110261269587D+02
 0.131697016886945D+03 -.341238324037028D+02 -.538950552929953D+02 -.704254214752681D+02
 0.691614221901852D+02 -.229856908593269D+01 0.602150278101152D+02 -.339436198033341D+02
0.477049339207D-05 0.000000000000D+00 0.000000000000D+00 0.279488118741D-06 0.000000000000D+00  7 -2 2 23 -11 11 23 21 0 0.49261830D-02 0.33013459D+00 0.39929881D+05 0.39929881D+05 0.39929881D+05 0.11559870D+01  1  2  2  2  7  2        2 0.635396897100D-03 0.100000000000D+01
-.241293222390D-06 0.000000000000D+00 -.183199507253D-07 0.279488118741D-06 0.000000000000D+00  7 -2 2 23 -11 11 23 21 2 0.49261830D-02 0.33013459D+00 0.39929881D+05 0.39929881D+05 0.39929881D+05 0.11559870D+01  1  2  3  2  7  2        2 -.429469956894D-04 0.100000000000D+01
0.302475815853D-06 0.000000000000D+00 0.000000000000D+00 0.279488118741D-06 0.000000000000D+00  7 -2 2 23 -11 11 23 21 2 0.49261830D-02 0.33013459D+00 0.39929881D+05 0.39929881D+05 0.39929881D+05 0.11559870D+01  1  2 15  2  7  2        2 0.538366864635D-04 0.100000000000D+01
0.444404139809D-05 0.000000000000D+00 0.000000000000D+00 0.279488118741D-06 0.000000000000D+00  7 -2 2 23 -11 11 23 21 2 0.49261830D-02 0.40755663D+00 0.52683601D+05 0.52683601D+05 0.52683601D+05 0.11453036D+01  1  2 12  2  7  2        2 0.406654260863D-03 0.100000000000D+01
-.471509024411D-05 0.000000000000D+00 0.000000000000D+00 0.279488118741D-06 0.000000000000D+00  7 -2 2 23 -11 11 23 21 2 0.49261830D-02 0.33013459D+00 0.39929881D+05 0.39929881D+05 0.39929881D+05 0.11559870D+01  1  2  4  2  7  2        2 -.839223573639D-03 0.100000000000D+01
-.874766263536D-05 0.000000000000D+00 -.238656413787D-05 0.279488118741D-06 0.000000000000D+00  7 -2 2 23 -11 11 23 21 2 0.49261830D-02 0.40731905D+00 0.39929881D+05 0.39929881D+05 0.39929881D+05 0.11559870D+01  1  2  5  2  7  2        2 -.822405620635D-03 0.100000000000D+01
0.909922948203D-05 0.000000000000D+00 0.233484375505D-05 0.279488118741D-06 0.000000000000D+00  7 -2 2 23 -11 11 23 21 2 0.49261830D-02 0.33013459D+00 0.39929881D+05 0.39929881D+05 0.39929881D+05 0.11559870D+01  1  2  6  2  7  2        2 0.161954225432D-02 0.100000000000D+01
0.132325313131D-06 0.000000000000D+00 0.000000000000D+00 0.279488118741D-06 0.000000000000D+00  7 -2 21 23 -11 11 23 -2 2 0.49261830D-02 0.40755663D+00 0.52683601D+05 0.52683601D+05 0.52683601D+05 0.11453036D+01  1  2 12  4  7  2        2 0.134022930757D-05 0.100000000000D+01
-.230018586650D-06 0.000000000000D+00 -.709126000906D-07 0.279488118741D-06 0.000000000000D+00  7 -2 21 23 -11 11 23 -2 2 0.49261830D-02 0.40731905D+00 0.39929881D+05 0.39929881D+05 0.39929881D+05 0.11559870D+01  1  2  5  4  7  2        2 -.244365345422D-05 0.100000000000D+01
  </mgrwgt>
  </event>
  <event>
  8     66 0.27870365E-05 0.28761122E+03 0.75467711E-02 0.99815811E-01
       -2 -1    0    0    0  501 0.00000000E+00 0.00000000E+00 0.22842330E+03 0.22842353E+03 0.32000000E+00 0.0000E+00 0.9000E+01
        2 -1    0    0  501    0 0.00000000E+00 0.00000000E+00 -.47909325E+03 0.47909335E+03 0.32000000E+00 0.0000E+00 0.9000E+01
       25  2    1    2    0    0 -.21701111E+03 -.96423839E+02 -.64392791E+02 0.39223001E+03 0.30546125E+03 0.0000E+00 0.0000E+00
       23  2    3    3    0    0 -.18908943E+03 -.62847802E+02 -.14190732E+03 0.26483016E+03 0.10145277E+03 0.0000E+00 0.0000E+00
       23  1    1    2    0    0 0.21701111E+03 0.96423839E+02 -.18627715E+03 0.31528686E+03 0.91188000E+02 0.0000E+00 0.9000E+01
      -13  1    4    4    0    0 -.18643647E+03 -.32462737E+02 -.10320713E+03 0.21555535E+03 0.10565837E+00 0.0000E+00 0.9000E+01
       13  1    4    4    0    0 -.26529607E+01 -.30385065E+02 -.38700189E+02 0.49274802E+02 0.10565837E+00 0.0000E+00 0.9000E+01
       23  1    3    3    0    0 -.27921675E+02 -.33576037E+02 0.77514532E+02 0.12739986E+03 0.91188000E+02 0.0000E+00 0.9000E+01
#aMCatNLO 1  0  0  1  2 0.69725081D+02 0.00000000D+00  -5  7  0 0.00000000D+00 0.00000000D+00 0.00000000D+00 0.00000000D+00 0.00000000D+00
  <mgrwgt>
 0.4364039395D-03    4    2    0
 0.330811393434759D+03 0.000000000000000D+00 0.000000000000000D+00 0.330811393434759D+03
 0.330811393434759D+03 0.000000000000000D+00 0.000000000000000D+00 -.330811393434759D+03
 0.266581986535548D+03 0.217011138246731D+03 0.964238535873726D+02 -.797452853619455D+02
 0.191405468082721D+03 -.186436643531671D+03 -.324627545167635D+02 -.286984447277947D+02
 0.380302155787079D+02 -.265278163003340D+01 -.303850479627772D+02 -.227158294342532D+02
 0.165605116672542D+03 -.279217130850265D+02 -.335760511078319D+02 0.131159559523993D+03
 0.000000000000000D+00 -.000000000000000D+00 0.000000000000000D+00 -.000000000000000D+00
 0.342218854224100D+03 0.000000000000000D+00 0.000000000000000D+00 0.342218854224100D+03
 0.459570543976065D+03 0.000000000000000D+00 0.000000000000000D+00 -.459570543976065D+03
 0.290242615800882D+03 0.246212512384729D+03 0.945812502067922D+02 -.797452853619455D+02
 0.173072230907497D+03 -.167322456391751D+03 -.336688575472108D+02 -.286984447277947D+02
 0.381634584225296D+02 0.134301879279797D+01 -.306371825141322D+02 -.227158294342532D+02
 0.163808324050234D+03 -.106463896020688D+02 -.346661220510653D+02 0.131159559523993D+03
 0.136502769019023D+03 -.695866851837075D+02 0.439091190561617D+01 -.117351689751965D+03
0.808758734236D-05 0.000000000000D+00 0.000000000000D+00 0.829144257629D-10 0.000000000000D+00  7 -2 2 23 -13 13 23 21 0 0.35142072D-01 0.73706679D-01 0.82720214D+05 0.82720214D+05 0.82720214D+05 0.11285463D+01  1  2  2  1  7  1       -2 0.478285077985D-03 0.100000000000D+01
-.438612371337D-06 0.000000000000D+00 -.310584649053D-07 0.829144257629D-10 0.000000000000D+00  7 -2 2 23 -13 13 23 21 2 0.35142072D-01 0.73706679D-01 0.82720214D+05 0.82720214D+05 0.82720214D+05 0.11285463D+01  1  2  3  1  7  1       -2 -.330360034000D-04 0.100000000000D+01
0.512856571444D-06 0.000000000000D+00 0.000000000000D+00 0.829144257629D-10 0.000000000000D+00  7 -2 2 23 -13 13 23 21 2 0.35142072D-01 0.73706679D-01 0.82720214D+05 0.82720214D+05 0.82720214D+05 0.11285463D+01  1  2 15  1  7  1       -2 0.386280290870D-04 0.100000000000D+01
-.630291650541D-06 0.000000000000D+00 0.000000000000D+00 0.829144257629D-10 0.000000000000D+00  7 -2 2 23 -13 13 23 21 2 0.35142072D-01 0.73706679D-01 0.82720214D+05 0.82720214D+05 0.82720214D+05 0.11285463D+01  1  2  4  1  7  1       -2 -.474731641672D-04 0.100000000000D+01
  </mgrwgt>
  </event>
  <event>
  8     66 0.27870365E-05 0.34037190E+03 0.75467711E-02 0.97146072E-01
       -2 -1    0    0    0  501 0.00000000E+00 0.00000000E+00 0.13200567E+03 0.13200606E+03 0.32000000E+00 0.0000E+00 0.9000E+01
        2 -1    0    0  501    0 0.00000000E+00 0.00000000E+00 -.10744191E+04 0.10744191E+04 0.32000000E+00 0.0000E+00 0.9000E+01
       25  2    1    2    0    0 0.13322772E+03 0.25028657E+03 -.34170248E+03 0.53593143E+03 0.30011485E+03 0.0000E+00 0.0000E+00
       23  2    3    3    0    0 0.15956034E+03 0.22272935E+03 -.32637888E+03 0.43591708E+03 0.91829514E+02 0.0000E+00 0.0000E+00
       23  1    1    2    0    0 -.13322772E+03 -.25028657E+03 -.60071090E+03 0.67049372E+03 0.91188000E+02 0.0000E+00 0.9000E+01
      -13  1    4    4    0    0 0.14855953E+03 0.15218478E+03 -.27646559E+03 0.34880277E+03 0.10565837E+00 0.0000E+00 0.9000E+01
       13  1    4    4    0    0 0.11000805E+02 0.70544570E+02 -.49913295E+02 0.87114306E+02 0.10565837E+00 0.0000E+00 0.9000E+01
       23  1    3    3    0    0 -.26332617E+02 0.27557217E+02 -.15323595E+02 0.10001435E+03 0.91188000E+02 0.0000E+00 0.9000E+01
#aMCatNLO 1  0  0  1  2 0.11727183D+03 0.00000000D+00  -5  7  0 0.00000000D+00 0.00000000D+00 0.00000000D+00 0.00000000D+00 0.00000000D+00
  <mgrwgt>
 0.5822733008D-03    3    2    0
 0.376602801020781D+03 0.000000000000000D+00 0.000000000000000D+00 0.376602801020781D+03
 0.376602801020781D+03 0.000000000000000D+00 0.000000000000000D+00 -.376602801020781D+03
 0.322332311105811D+03 -.133227721848591D+03 -.250286569523302D+03 -.123247209648354D+03
 0.212770202356290D+03 0.148559716355176D+03 0.152184890828303D+03 -.639755349987696D+01
 0.770809422885635D+02 0.110006226432648D+02 0.705444621023090D+02 0.290505909105004D+02
 0.141022146290897D+03 -.263326171498498D+02 0.275572165926899D+02 0.100594172237731D+03
 0.000000000000000D+00 -.000000000000000D+00 -.000000000000000D+00 -.000000000000000D+00
 0.387507541644477D+03 0.000000000000000D+00 0.000000000000000D+00 0.387507541644477D+03
 0.921108422459096D+03 0.000000000000000D+00 0.000000000000000D+00 -.921108422459096D+03
 0.282080890337819D+03 -.110341444112525D+03 -.209497657206074D+03 -.123247209648354D+03
 0.247316161317912D+03 0.165981017340123D+03 0.183233885624306D+03 -.639755349987696D+01
 0.884264947419973D+02 0.172676088080586D+02 0.817137554280740D+02 0.290505909105004D+02
 0.144456822776140D+03 -.155228748108856D+02 0.468228061097216D+02 0.100594172237731D+03
 0.546335594929704D+03 -.573843072247710D+02 -.102272789956028D+03 -.533600880814619D+03
0.102776868209D-04 0.000000000000D+00 0.000000000000D+00 0.617930337689D-06 0.000000000000D+00  7 -2 2 23 -13 13 23 21 0 0.20308598D-01 0.16529527D+00 0.11585303D+06 0.11585303D+06 0.11585303D+06 0.11165151D+01  1  2  2  1  7  1       -2 0.575544684984D-03 0.100000000000D+01
-.563879383899D-06 0.000000000000D+00 -.394690235694D-07 0.617930337689D-06 0.000000000000D+00  7 -2 2 23 -13 13 23 21 2 0.20308598D-01 0.16529527D+00 0.11585303D+06 0.11585303D+06 0.11585303D+06 0.11165151D+01  1  2  3  1  7  1       -2 -.393639895396D-04 0.100000000000D+01
0.660265136539D-06 0.000000000000D+00 0.000000000000D+00 0.617930337689D-06 0.000000000000D+00  7 -2 2 23 -13 13 23 21 2 0.20308598D-01 0.16529527D+00 0.11585303D+06 0.11585303D+06 0.11585303D+06 0.11165151D+01  1  2 15  1  7  1       -2 0.460926053873D-04 0.100000000000D+01
  </mgrwgt>
  </event>
  <event>
  8     66 0.27870365E-05 0.31974879E+03 0.75467711E-02 0.94914472E-01
       -2 -1    0    0    0  501 0.00000000E+00 0.00000000E+00 0.30847151E+03 0.30847168E+03 0.32000000E+00 0.0000E+00 0.9000E+01
        2 -1    0    0  501    0 0.00000000E+00 0.00000000E+00 -.50709550E+03 0.50709560E+03 0.32000000E+00 0.0000E+00 0.9000E+01
       25  2    1    2    0    0 0.26468263E+03 0.89590562E+02 -.29671645E+03 0.50569514E+03 0.29933853E+03 0.0000E+00 0.0000E+00
       23  2    3    3    0    0 0.17147425E+03 0.11613879E+03 -.29588187E+03 0.37262163E+03 0.91701486E+02 0.0000E+00 0.0000E+00
       23  1    1    2    0    0 -.26468263E+03 -.89590562E+02 0.98092464E+02 0.30987214E+03 0.91188000E+02 0.0000E+00 0.9000E+01
      -11  1    4    4    0    0 0.58410608E+02 0.13867135E+02 -.32419861E+02 0.68228615E+02 0.51099893E-03 0.0000E+00 0.9000E+01
       11  1    4    4    0    0 0.11306365E+03 0.10227165E+03 -.26346201E+03 0.30439302E+03 0.51099893E-03 0.0000E+00 0.9000E+01
       23  1    3    3    0    0 0.93208376E+02 -.26548228E+02 -.83458198E+00 0.13307350E+03 0.91188000E+02 0.0000E+00 0.9000E+01
#aMCatNLO 1  0  0  2  2 0.28496254D+03 0.00000000D+00  -5  7  0 0.00000000D+00 0.00000000D+00 0.00000000D+00 0.00000000D+00 0.00000000D+00
  <mgrwgt>
 0.5835480795D-03    3    2    0
 0.395505532225551D+03 0.000000000000000D+00 0.000000000000000D+00 0.395505532225551D+03
 0.395505532225551D+03 0.000000000000000D+00 0.000000000000000D+00 -.395505532225551D+03
 0.344122998394549D+03 -.264682629091579D+03 -.895905618337268D+02 0.178946985913542D+03
 0.622060376879492D+02 0.584106076516752D+02 0.138671350981208D+02 -.162940051174374D+02
 0.247686942468400D+03 0.113063645211859D+03 0.102271654356782D+03 -.195207434069193D+03
 0.136995085900204D+03 0.932083762280453D+02 -.265482276211761D+02 0.325544532730878D+02
 0.000000000000000D+00 -.000000000000000D+00 0.000000000000000D+00 0.000000000000000D+00
 0.616208704053417D+03 0.000000000000000D+00 0.000000000000000D+00 0.616208704053417D+03
 0.524057953660444D+03 0.000000000000000D+00 0.000000000000000D+00 -.524057953660444D+03
 0.363259941241096D+03 -.222168605956789D+03 -.205576312658244D+03 0.178946985913542D+03
 0.686708868451859D+02 0.662763678865459D+02 -.759204564689131D+01 -.162940051174374D+02
 0.242694318873414D+03 0.142535772855045D+03 0.218664938700166D+02 -.195207434069193D+03
 0.166149588058985D+03 0.111427503322809D+03 -.762532185780122D+02 0.325544532730878D+02
 0.299491922695180D+03 -.980710381076106D+02 0.267555083013131D+03 0.921507503929735D+02
0.182424475151D-04 0.000000000000D+00 0.000000000000D+00 0.368119395622D-06 0.000000000000D+00  7 -2 2 23 -11 11 23 21 0 0.47457176D-01 0.78014713D-01 0.10223929D+06 0.10223929D+06 0.10223929D+06 0.11209336D+01  1  2  2  2  7  2        2 0.576660771658D-03 0.100000000000D+01
-.957758741209D-06 0.000000000000D+00 -.700558018047D-07 0.368119395622D-06 0.000000000000D+00  7 -2 2 23 -11 11 23 21 2 0.47457176D-01 0.78014713D-01 0.10223929D+06 0.10223929D+06 0.10223929D+06 0.11209336D+01  1  2  3  2  7  2        2 -.380411149149D-04 0.100000000000D+01
0.113116005558D-05 0.000000000000D+00 0.000000000000D+00 0.368119395622D-06 0.000000000000D+00  7 -2 2 23 -11 11 23 21 2 0.47457176D-01 0.78014713D-01 0.10223929D+06 0.10223929D+06 0.10223929D+06 0.11209336D+01  1  2 15  2  7  2        2 0.449284227959D-04 0.100000000000D+01
  </mgrwgt>
  </event>
  <event>
  8     66 0.27870365E-05 0.66952492E+03 0.75467711E-02 0.86552084E-01
       -2 -1    0    0    0  501 0.00000000E+00 0.00000000E+00 0.34784419E+03 0.34784434E+03 0.32000000E+00 0.0000E+00 0.9000E+01
        2 -1    0    0  501    0 0.00000000E+00 0.00000000E+00 -.34678690E+04 0.34678690E+04 0.32000000E+00 0.0000E+00 0.9000E+01
       25  2    1    2    0    0 0.53235173E+03 -.36626328E+03 -.91054463E+02 0.71724216E+03 0.29765457E+03 0.0000E+00 0.0000E+00
       23  2    3    3    0    0 0.30352674E+03 -.10146849E+03 -.12094844E+03 0.35435643E+03 0.92280066E+02 0.0000E+00 0.0000E+00
       23  1    1    2    0    0 -.53235173E+03 0.36626328E+03 -.30289703E+04 0.30984712E+04 0.91188000E+02 0.0000E+00 0.9000E+01
      -13  1    4    4    0    0 0.14798828E+03 -.78720667E+02 -.23126135E+02 0.16921082E+03 0.10565837E+00 0.0000E+00 0.9000E+01
       13  1    4    4    0    0 0.15553847E+03 -.22747823E+02 -.97822309E+02 0.18514560E+03 0.10565837E+00 0.0000E+00 0.9000E+01
       23  1    3    3    0    0 0.22882499E+03 -.26479479E+03 0.29893981E+02 0.36288574E+03 0.91188000E+02 0.0000E+00 0.9000E+01
#aMCatNLO 1  0  0  1  2 0.74927715D+03 0.00000000D+00  -5  7  0 0.00000000D+00 0.00000000D+00 0.00000000D+00 0.00000000D+00 0.00000000D+00
  <mgrwgt>
 0.3420560416D-03    5    2    0
 0.109830706347037D+04 0.000000000000000D+00 0.000000000000000D+00 0.109830706347037D+04
 0.109830706347037D+04 0.000000000000000D+00 0.000000000000000D+00 -.109830706347037D+04
 0.108003280411225D+04 -.532351734720741D+03 0.366263279366896D+03 -.860586106872401D+03
 0.261086418113110D+03 0.147988268361879D+03 -.787207406523684D+02 0.200171514310924D+03
 0.182669444224439D+03 0.155538476103781D+03 -.227477500530394D+02 0.930507827592200D+02
 0.672825460490945D+03 0.228824990255081D+03 -.264794788661489D+03 0.567363809802257D+03
 0.000000000000000D+00 0.000000000000000D+00 -.000000000000000D+00 0.000000000000000D+00
 0.591599240530033D+04 0.000000000000000D+00 0.000000000000000D+00 0.591599240530033D+04
 0.118995869838972D+04 0.000000000000000D+00 0.000000000000000D+00 -.118995869838972D+04
 0.136007324915769D+04 -.837012374076223D+03 0.632681460161310D+03 -.860586106872401D+03
 0.220181789599586D+03 0.878992899886936D+02 -.261744178393984D+02 0.200171514310924D+03
 0.147957944650008D+03 0.114257831130199D+03 0.133511512003287D+02 0.930507827592200D+02
 0.592676903853963D+03 0.708200712022681D+02 -.126623401705587D+03 0.567363809802257D+03
 0.478506121642880D+04 0.564035181755062D+03 -.493234791816654D+03 0.472603370691061D+04
0.110651795924D-02 0.000000000000D+00 0.000000000000D+00 0.306779651010D-06 0.000000000000D+00  7 -2 2 23 -13 13 23 21 0 0.53514504D-01 0.53351832D+00 0.44826361D+06 0.44826361D+06 0.44826361D+06 0.10718792D+01  1  2  2  1  7  1       -2 0.392258245413D-03 0.100000000000D+01
-.431626376250D-04 0.000000000000D+00 -.424932031635D-05 0.306779651010D-06 0.000000000000D+00  7 -2 2 23 -13 13 23 21 2 0.53514504D-01 0.53351832D+00 0.44826361D+06 0.44826361D+06 0.44826361D+06 0.10718792D+01  1  2  3  1  7  1       -2 -.175797731850D-04 0.100000000000D+01
0.657795351931D-04 0.000000000000D+00 0.000000000000D+00 0.306779651010D-06 0.000000000000D+00  7 -2 2 23 -13 13 23 21 2 0.53514504D-01 0.53351832D+00 0.44826361D+06 0.44826361D+06 0.44826361D+06 0.10718792D+01  1  2 15  1  7  1       -2 0.267914421485D-04 0.100000000000D+01
-.625040107096D-02 0.000000000000D+00 -.477867277128D-03 0.306779651010D-06 0.000000000000D+00  7 -2 2 23 -13 13 23 21 2 0.29280846D+00 0.53351832D+00 0.44826361D+06 0.44826361D+06 0.44826361D+06 0.10718792D+01  1  2  5  1  7  1       -2 -.237045413112D-04 0.100000000000D+01
-.132179209253D-02 0.000000000000D+00 -.993820615213D-04 0.306779651010D-06 0.000000000000D+00  7 21 2 23 -13 13 23 2 2 0.29280846D+00 0.53351832D+00 0.44826361D+06 0.44826361D+06 0.44826361D+06 0.10718792D+01  1  2  5  3  7  1       -2 -.357093315060D-04 0.100000000000D+01
  </mgrwgt>
  </event>
  <event>
  8     66 0.27870365E-05 0.38792879E+03 0.75467711E-02 0.87412630E-01
       -2 -1    0    0    0  501 0.00000000E+00 0.00000000E+00 0.47934095E+03 0.47934105E+03 0.32000000E+00 0.0000E+00 0.9000E+01
        2 -1    0    0  501    0 0.00000000E+00 0.00000000E+00 -.38452006E+03 0.38452019E+03 0.32000000E+00 0.0000E+00 0.9000E+01
       25  2    1    2    0    0 -.14175121E+03 -.29532873E+03 0.22680620E+03 0.49910402E+03 0.30058494E+03 0.0000E+00 0.0000E+00
       23  2    3    3    0    0 -.91704992E+01 -.25547457E+03 0.18633668E+03 0.32846103E+03 0.88396440E+02 0.0000E+00 0.0000E+00
       23  1    1    2    0    0 0.14175121E+03 0.29532873E+03 -.13198531E+03 0.36475723E+03 0.91188000E+02 0.0000E+00 0.9000E+01
      -13  1    4    4    0    0 0.25945286E+02 -.22222408E+02 0.30102494E+02 0.45532017E+02 0.10565837E+00 0.0000E+00 0.9000E+01
       13  1    4    4    0    0 -.35115786E+02 -.23325217E+03 0.15623419E+03 0.28292901E+03 0.10565837E+00 0.0000E+00 0.9000E+01
       23  1    3    3    0    0 -.13258071E+03 -.39854152E+02 0.40469513E+02 0.17064299E+03 0.91188000E+02 0.0000E+00 0.9000E+01
#aMCatNLO 1  0  0  1  2 0.85182155D+03 0.00000000D+00  -5  7  0 0.00000000D+00 0.00000000D+00 0.00000000D+00 0.00000000D+00 0.00000000D+00
  <mgrwgt>
 0.4589477018D-03    5    2    0
 0.429320756184195D+03 0.000000000000000D+00 0.000000000000000D+00 0.429320756184195D+03
 0.429320756184195D+03 0.000000000000000D+00 0.000000000000000D+00 -.429320756184195D+03
 0.381549913524465D+03 0.141751207049104D+03 0.295328725718071D+03 -.173068264659901D+03
 0.424842304322069D+02 0.259453734899897D+02 -.222221066324558D+02 0.252571852489062D+02
 0.267396129523278D+03 -.351158728154322D+02 -.233252466853531D+03 0.125939875604126D+03
 0.167211238888439D+03 -.132580707723661D+03 -.398541522320844D+02 0.218712038068691D+02
 0.000000000000000D+00 -.000000000000000D+00 0.000000000000000D+00 0.000000000000000D+00
 0.168273184098747D+04 0.000000000000000D+00 0.000000000000000D+00 0.168273184098747D+04
 0.773021419191727D+03 0.000000000000000D+00 0.000000000000000D+00 -.773021419191727D+03
 0.325039411645204D+03 0.258009448146234D+03 0.285283755854917D+02 -.173068264659901D+03
 0.903359730586840D+02 0.477988641810725D+02 -.723735532135953D+02 0.252571852489062D+02
 0.574874775765373D+03 0.103466653820719D+03 -.551284687880272D+03 0.125939875604126D+03
 0.219239482982493D+03 -.689962753029725D+02 -.185773690259912D+03 0.218712038068691D+02
 0.124626361672744D+04 -.340278690845053D+03 0.780903555768287D+03 0.909710421795742D+03
0.262219225607D-04 0.000000000000D+00 0.000000000000D+00 0.761746180066D-07 0.000000000000D+00  7 -2 2 23 -13 13 23 21 0 0.73744779D-01 0.59156950D-01 0.15048875D+06 0.15048875D+06 0.15048875D+06 0.11074404D+01  1  2  2  1  7  1       -2 0.452406751268D-03 0.100000000000D+01
-.143856809408D-05 0.000000000000D+00 -.100699087024D-06 0.761746180066D-07 0.000000000000D+00  7 -2 2 23 -13 13 23 21 2 0.73744779D-01 0.59156950D-01 0.15048875D+06 0.15048875D+06 0.15048875D+06 0.11074404D+01  1  2  3  1  7  1       -2 -.304393740874D-04 0.100000000000D+01
0.166095736130D-05 0.000000000000D+00 0.000000000000D+00 0.761746180066D-07 0.000000000000D+00  7 -2 2 23 -13 13 23 21 2 0.73744779D-01 0.59156950D-01 0.15048875D+06 0.15048875D+06 0.15048875D+06 0.11074404D+01  1  2 15  1  7  1       -2 0.351450186280D-04 0.100000000000D+01
0.825510075287D-05 0.000000000000D+00 -.106837922600D-04 0.761746180066D-07 0.000000000000D+00  7 -2 2 23 -13 13 23 21 2 0.38296162D+00 0.59156950D-01 0.15048875D+06 0.15048875D+06 0.15048875D+06 0.11074404D+01  1  2  5  1  7  1       -2 0.850679017759D-06 0.100000000000D+01
0.127955464551D-05 0.000000000000D+00 -.214927551771D-05 0.761746180066D-07 0.000000000000D+00  7 21 2 23 -13 13 23 2 2 0.38296162D+00 0.59156950D-01 0.15048875D+06 0.15048875D+06 0.15048875D+06 0.11074404D+01  1  2  5  3  7  1       -2 0.984627000938D-06 0.100000000000D+01
  </mgrwgt>
  </event>
  <event>
  7     66 0.27870365E-05 0.28746450E+03 0.75467711E-02 0.93303298E-01
       -2 -1    0    0    0  501 0.00000000E+00 0.00000000E+00 0.34905826E+03 0.34905840E+03 0.32000000E+00 0.0000E+00 0.9000E+01
        2 -1    0    0  501    0 0.00000000E+00 0.00000000E+00 -.82554221E+03 0.82554227E+03 0.32000000E+00 0.0000E+00 0.9000E+01
       23  2    1    2    0    0 -.39945550E+02 0.43170719E+03 -.30445784E+03 0.53704620E+03 0.88075526E+02 0.0000E+00 0.0000E+00
       23  1    1    2    0    0 0.12640552E+03 -.45415276E+03 -.98199101E+02 0.49009326E+03 0.91188000E+02 0.0000E+00 0.9000E+01
      -13  1    3    3    0    0 -.43014363E+02 0.25435458E+03 -.22650254E+03 0.34329274E+03 0.10565837E+00 0.0000E+00 0.9000E+01
       13  1    3    3    0    0 0.30688132E+01 0.17735261E+03 -.77955299E+02 0.19375347E+03 0.10565837E+00 0.0000E+00 0.9000E+01
       23  1    1    2    0    0 -.86459972E+02 0.22445568E+02 -.73827006E+02 0.14746121E+03 0.91188000E+02 0.0000E+00 0.9000E+01
#aMCatNLO 1  0  0  1  2 0.79877992D+02 0.00000000D+00  -5  7  0 0.00000000D+00 0.00000000D+00 0.00000000D+00 0.00000000D+00 0.00000000D+00
  <mgrwgt>
 0.4685109586D-03    9    2    0
 0.536807642251253D+03 0.000000000000000D+00 0.000000000000000D+00 0.536807642251253D+03
 0.536807642251253D+03 0.000000000000000D+00 0.000000000000000D+00 -.536807642251253D+03
 0.492609995025654D+03 0.126405533274161D+03 -.454152802699574D+03 0.110073742613631D+03
 0.275058665539921D+03 -.430144536724631D+02 0.254354675034723D+03 -.954501207534203D+02
 0.177380411725988D+03 0.306886389144560D+01 0.177352471144822D+03 0.702507880088604D+00
 0.128566212210942D+03 -.864599434931431D+02 0.224456565200288D+02 -.153261297402990D+02
 0.000000000000000D+00 -.000000000000000D+00 0.000000000000000D+00 0.000000000000000D+00
 0.616950347049868D+03 0.000000000000000D+00 0.000000000000000D+00 0.616950347049868D+03
 0.558570308527618D+03 0.000000000000000D+00 0.000000000000000D+00 -.558570308527618D+03
 0.528542731362838D+03 0.142596360991453D+03 -.488459022387254D+03 0.110073742613631D+03
 0.257338992466200D+03 -.345730535418936D+02 0.236468466101647D+03 -.954501207534203D+02
 0.166035142729910D+03 0.851386926032775D+01 0.165815225881817D+03 0.702507880088604D+00
 0.124665816144078D+03 -.824448377820735D+02 0.139381792620196D+02 -.153261297402990D+02
 0.989379728744603D+02 -.340923389278140D+02 0.722371511417710D+02 0.583800385222504D+02
0.236716510055D-04 0.000000000000D+00 0.000000000000D+00 0.153868286167D-09 0.000000000000D+00  7 -2 2 23 -13 13 23 21 0 0.53701286D-01 0.12700651D+00 0.27204005D+06 0.27204005D+06 0.27204005D+06 0.10877094D+01  1  2  2  1  7  1       -2 0.321169362656D-03 0.100000000000D+01
-.131376662876D-05 0.000000000000D+00 -.909053727501D-07 0.153868286167D-09 0.000000000000D+00  7 -2 2 23 -13 13 23 21 2 0.53701286D-01 0.12700651D+00 0.27204005D+06 0.27204005D+06 0.27204005D+06 0.10877094D+01  1  2  3  1  7  1       -2 -.210886878522D-04 0.100000000000D+01
0.150442325612D-05 0.000000000000D+00 0.000000000000D+00 0.153868286167D-09 0.000000000000D+00  7 -2 2 23 -13 13 23 21 2 0.53701286D-01 0.12700651D+00 0.27204005D+06 0.27204005D+06 0.27204005D+06 0.10877094D+01  1  2 15  1  7  1       -2 0.241491234071D-04 0.100000000000D+01
0.472596622139D-04 0.000000000000D+00 0.000000000000D+00 0.153868286167D-09 0.000000000000D+00  7 -2 2 23 -13 13 23 21 2 0.62692994D-01 0.12700651D+00 0.31672586D+06 0.31672586D+06 0.31672586D+06 0.10828129D+01  1  2 12  1  7  1       -2 0.544284991058D-03 0.100000000000D+01
-.474857351893D-04 0.000000000000D+00 0.000000000000D+00 0.153868286167D-09 0.000000000000D+00  7 -2 2 23 -13 13 23 21 2 0.53701286D-01 0.12700651D+00 0.27204005D+06 0.27204005D+06 0.27204005D+06 0.10877094D+01  1  2  4  1  7  1       -2 -.762244849974D-03 0.100000000000D+01
-.963037997593D-04 0.000000000000D+00 -.191478776029D-04 0.153868286167D-09 0.000000000000D+00  7 -2 2 23 -13 13 23 21 2 0.63668009D-01 0.12700651D+00 0.27204005D+06 0.27204005D+06 0.27204005D+06 0.10877094D+01  1  2  5  1  7  1       -2 -.108850752570D-02 0.100000000000D+01
0.984082558773D-04 0.000000000000D+00 0.188737038123D-04 0.153868286167D-09 0.000000000000D+00  7 -2 2 23 -13 13 23 21 2 0.53701286D-01 0.12700651D+00 0.27204005D+06 0.27204005D+06 0.27204005D+06 0.10877094D+01  1  2  6  1  7  1       -2 0.157965725788D-02 0.100000000000D+01
0.110587320144D-05 0.000000000000D+00 0.000000000000D+00 0.153868286167D-09 0.000000000000D+00  7 21 2 23 -13 13 23 2 2 0.62692994D-01 0.12700651D+00 0.31672586D+06 0.31672586D+06 0.31672586D+06 0.10828129D+01  1  2 12  3  7  1       -2 0.127262672838D-03 0.100000000000D+01
-.226447182950D-05 0.000000000000D+00 -.483348800525D-06 0.153868286167D-09 0.000000000000D+00  7 21 2 23 -13 13 23 2 2 0.63668009D-01 0.12700651D+00 0.27204005D+06 0.27204005D+06 0.27204005D+06 0.10877094D+01  1  2  5  3  7  1       -2 -.256171385686D-03 0.100000000000D+01
  </mgrwgt>
  </event>
  <event>
  8     66 0.27870365E-05 0.26738196E+03 0.75467711E-02 0.91036246E-01
       -2 -1    0    0    0  501 0.00000000E+00 0.00000000E+00 0.39147498E+03 0.39147511E+03 0.32000000E+00 0.0000E+00 0.9000E+01
        2 -1    0    0  501    0 0.00000000E+00 0.00000000E+00 -.75532277E+03 0.75532284E+03 0.32000000E+00 0.0000E+00 0.9000E+01
       25  2    1    2    0    0 -.34799257E+03 0.29005815E+03 0.21222644E+02 0.54527733E+03 0.30272827E+03 0.0000E+00 0.0000E+00
       23  2    3    3    0    0 -.66992219E+02 0.75361295E+02 -.90191246E+02 0.16346030E+03 0.91747077E+02 0.0000E+00 0.0000E+00
       23  1    1    2    0    0 0.34799257E+03 -.29005815E+03 -.38507044E+03 0.60152062E+03 0.91188000E+02 0.0000E+00 0.9000E+01
      -13  1    4    4    0    0 -.37028925E+02 0.43559602E+02 0.63190707E+01 0.57519754E+02 0.10565837E+00 0.0000E+00 0.9000E+01
       13  1    4    4    0    0 -.29963294E+02 0.31801693E+02 -.96510317E+02 0.10594054E+03 0.10565837E+00 0.0000E+00 0.9000E+01
       23  1    3    3    0    0 -.28100035E+03 0.21469686E+03 0.11141389E+03 0.38181703E+03 0.91188000E+02 0.0000E+00 0.9000E+01
#aMCatNLO 1  0  0  2  1 0.38003777D+03 0.00000000D+00  -5  7  0 0.00000000D+00 0.00000000D+00 0.00000000D+00 0.00000000D+00 0.00000000D+00
  <mgrwgt>
 0.9411275760D-03    8    2    0
 0.543773921299328D+03 0.000000000000000D+00 0.000000000000000D+00 0.543773921299328D+03
 0.543773921299328D+03 0.000000000000000D+00 0.000000000000000D+00 -.543773921299328D+03
 0.505463353605524D+03 0.347992571387642D+03 -.290058150673758D+03 -.204805737177646D+03
 0.627675303636806D+02 -.370289350947054D+02 0.435596183830270D+02 0.259071511369491D+02
 0.794239601367920D+02 -.299632846946664D+02 0.318016771501738D+02 -.663251109652536D+02
 0.439892998492660D+03 -.281000351598270D+03 0.214696855140558D+03 0.245223697005951D+03
 0.000000000000000D+00 0.000000000000000D+00 -.000000000000000D+00 -.000000000000000D+00
 0.679035426943849D+03 0.000000000000000D+00 0.000000000000000D+00 0.679035426943849D+03
 0.926515788620061D+03 0.000000000000000D+00 0.000000000000000D+00 -.926515788620061D+03
 0.392930662312070D+03 0.285087423105279D+03 -.151192014495853D+03 -.204805737177646D+03
 0.856941512621554D+02 -.474241558235340D+02 0.665075674260727D+02 0.259071511369491D+02
 0.985768085903792D+02 -.424268191269620D+02 0.593155280350694D+02 -.663251109652536D+02
 0.574835276585169D+03 -.352051172818268D+03 0.371544955566300D+03 0.245223697005951D+03
 0.453514316814137D+03 0.156814724663485D+03 -.346176036531590D+03 -.247480361676212D+03
0.517810290019D-04 0.000000000000D+00 0.000000000000D+00 0.772539184814D-07 0.000000000000D+00  7 -2 2 23 -13 13 23 21 0 0.60226935D-01 0.11620352D+00 0.21537852D+06 0.21537852D+06 0.21537852D+06 0.10953630D+01  1  2  2  2  7  2        2 0.626493095873D-03 0.100000000000D+01
-.278890152624D-05 0.000000000000D+00 -.198852785625D-06 0.772539184814D-07 0.000000000000D+00  7 -2 2 23 -13 13 23 21 2 0.60226935D-01 0.11620352D+00 0.21537852D+06 0.21537852D+06 0.21537852D+06 0.10953630D+01  1  2  3  2  7  2        2 -.404850712194D-04 0.100000000000D+01
0.322655364297D-05 0.000000000000D+00 0.000000000000D+00 0.772539184814D-07 0.000000000000D+00  7 -2 2 23 -13 13 23 21 2 0.60226935D-01 0.11620352D+00 0.21537852D+06 0.21537852D+06 0.21537852D+06 0.10953630D+01  1  2 15  2  7  2        2 0.468382453807D-04 0.100000000000D+01
0.165099047840D-05 0.000000000000D+00 0.000000000000D+00 0.772539184814D-07 0.000000000000D+00  7 -2 2 23 -13 13 23 21 2 0.60226935D-01 0.20408779D+00 0.48294728D+06 0.48294728D+06 0.48294728D+06 0.10695771D+01  1  2 12  2  7  2        2 0.980034334164D-05 0.100000000000D+01
-.215855423335D-04 0.000000000000D+00 -.160672607870D-04 0.772539184814D-07 0.000000000000D+00  7 -2 2 23 -13 13 23 21 2 0.60226935D-01 0.22507263D+00 0.21537852D+06 0.21537852D+06 0.21537852D+06 0.10953630D+01  1  2  5  2  7  2        2 -.116844390323D-03 0.100000000000D+01
0.286774313351D-04 0.000000000000D+00 0.130991478935D-04 0.772539184814D-07 0.000000000000D+00  7 -2 2 23 -13 13 23 21 2 0.60226935D-01 0.11620352D+00 0.21537852D+06 0.21537852D+06 0.21537852D+06 0.10953630D+01  1  2  6  2  7  2        2 0.416295749086D-03 0.100000000000D+01
0.102605599690D-06 0.000000000000D+00 0.000000000000D+00 0.772539184814D-07 0.000000000000D+00  7 -2 21 23 -13 13 23 -2 2 0.60226935D-01 0.20408779D+00 0.48294728D+06 0.48294728D+06 0.48294728D+06 0.10695771D+01  1  2 12  4  7  2        2 0.259618904504D-06 0.100000000000D+01
-.610777401148D-06 0.000000000000D+00 -.115175641121D-05 0.772539184814D-07 0.000000000000D+00  7 -2 21 23 -13 13 23 -2 2 0.60226935D-01 0.22507263D+00 0.21537852D+06 0.21537852D+06 0.21537852D+06 0.10953630D+01  1  2  5  4  7  2        2 -.123001505473D-05 0.100000000000D+01
  </mgrwgt>
  </event>
  <event>
  8     66 0.27870365E-05 0.18033360E+03 0.75467711E-02 0.96424455E-01
       -2 -1    0    0    0  501 0.00000000E+00 0.00000000E+00 0.95706129E+02 0.95706664E+02 0.32000000E+00 0.0000E+00 0.9000E+01
        2 -1    0    0  501    0 0.00000000E+00 0.00000000E+00 -.63314014E+03 0.63314022E+03 0.32000000E+00 0.0000E+00 0.9000E+01
       25  2    1    2    0    0 0.49372291E+02 -.29972913E+02 -.17843368E+03 0.35397026E+03 0.30020054E+03 0.0000E+00 0.0000E+00
       23  2    3    3    0    0 0.55513623E+02 0.60227232E+02 0.11253792E+02 0.12490614E+03 0.93625922E+02 0.0000E+00 0.0000E+00
       23  1    1    2    0    0 -.49372291E+02 0.29972913E+02 -.35900032E+03 0.37487662E+03 0.91188000E+02 0.0000E+00 0.9000E+01
      -13  1    4    4    0    0 0.31067649E+01 0.70787965E+02 0.41751282E+01 0.70979088E+02 0.10565837E+00 0.0000E+00 0.9000E+01
       13  1    4    4    0    0 0.52406859E+02 -.10560734E+02 0.70786635E+01 0.53927049E+02 0.10565837E+00 0.0000E+00 0.9000E+01
       23  1    3    3    0    0 -.61413325E+01 -.90200145E+02 -.18968748E+03 0.22906412E+03 0.91188000E+02 0.0000E+00 0.9000E+01
#aMCatNLO 1  0  0  2  1 0.35313830D+03 0.00000000D+00  -5  7  0 0.00000000D+00 0.00000000D+00 0.00000000D+00 0.00000000D+00 0.00000000D+00
  <mgrwgt>
 0.4856488241D-03    3    2    0
 0.246161767818735D+03 0.000000000000000D+00 0.000000000000000D+00 0.246161767818735D+03
 0.246161767818735D+03 0.000000000000000D+00 0.000000000000000D+00 -.246161767818735D+03
 0.163081124824005D+03 -.493722920411384D+02 0.299729135864637D+02 -.122246485264836D+03
 0.109636757024648D+03 0.310670862750080D+01 0.707880633841153D+02 0.836637133691303D+02
 0.875620539558328D+02 0.524069158792124D+02 -.105608280585160D+02 0.693476558487147D+02
 0.132043599832984D+03 -.614133246557477D+01 -.902001489120630D+02 -.307648839530093D+02
 0.000000000000000D+00 0.000000000000000D+00 -.000000000000000D+00 0.000000000000000D+00
 0.776503994216530D+03 0.000000000000000D+00 0.000000000000000D+00 0.776503994216530D+03
 0.368773427501359D+03 0.000000000000000D+00 0.000000000000000D+00 -.368773427501359D+03
 0.240445169979377D+03 -.136810861175123D+03 0.125845991304162D+03 -.122246485264836D+03
 0.170939039066239D+03 -.576901872867281D+02 0.137449555957811D+03 0.836637133691303D+02
 0.768304455051438D+02 0.167853340533468D+02 0.284968865935323D+02 0.693476558487147D+02
 0.117664146117385D+03 -.602495486803603D+02 -.308725401725240D+02 -.307648839530093D+02
 0.539398621049744D+03 0.237965263088864D+03 -.260919893682981D+03 0.407730566715171D+03
0.257595829996D-05 0.000000000000D+00 0.000000000000D+00 0.471915191980D-07 0.000000000000D+00  7 -2 2 23 -13 13 23 21 0 0.14724067D-01 0.97406222D-01 0.32520209D+05 0.32520209D+05 0.32520209D+05 0.11640995D+01  1  2  2  2  7  2        2 0.477629575036D-03 0.100000000000D+01
-.126259863618D-06 0.000000000000D+00 -.989235813726D-08 0.471915191980D-07 0.000000000000D+00  7 -2 2 23 -13 13 23 21 2 0.14724067D-01 0.97406222D-01 0.32520209D+05 0.32520209D+05 0.32520209D+05 0.11640995D+01  1  2  3  2  7  2        2 -.317247263716D-04 0.100000000000D+01
0.158175325429D-06 0.000000000000D+00 0.000000000000D+00 0.471915191980D-07 0.000000000000D+00  7 -2 2 23 -13 13 23 21 2 0.14724067D-01 0.97406222D-01 0.32520209D+05 0.32520209D+05 0.32520209D+05 0.11640995D+01  1  2 15  2  7  2        2 0.397439754346D-04 0.100000000000D+01
  </mgrwgt>
  </event>
  <event>
  8     66 0.27870365E-05 0.37110904E+03 0.75467711E-02 0.91857197E-01
       -2 -1    0    0    0  501 0.00000000E+00 0.00000000E+00 0.28382403E+03 0.28382421E+03 0.32000000E+00 0.0000E+00 0.9000E+01
        2 -1    0    0  501    0 0.00000000E+00 0.00000000E+00 -.13581068E+04 0.13581068E+04 0.32000000E+00 0.0000E+00 0.9000E+01
       25  2    1    2    0    0 -.22654234E+03 0.53483334E+03 -.57197715E+03 0.86863011E+03 0.29998712E+03 0.0000E+00 0.0000E+00
       23  2    3    3    0    0 -.90841764E+02 0.21590359E+03 -.85902030E+02 0.26471363E+03 0.88473520E+02 0.0000E+00 0.0000E+00
       23  1    1    2    0    0 0.22654234E+03 -.53483334E+03 -.50230557E+03 0.77330089E+03 0.91188000E+02 0.0000E+00 0.9000E+01
      -11  1    4    4    0    0 -.93731064E+02 0.11054344E+03 -.46967670E+02 0.15235264E+03 0.51099893E-03 0.0000E+00 0.9000E+01
       11  1    4    4    0    0 0.28892994E+01 0.10536015E+03 -.38934360E+02 0.11236100E+03 0.51099893E-03 0.0000E+00 0.9000E+01
       23  1    3    3    0    0 -.13570057E+03 0.31892975E+03 -.48607512E+03 0.60391648E+03 0.91188000E+02 0.0000E+00 0.9000E+01
#aMCatNLO 1  0  0  2  1 0.88906132D+02 0.00000000D+00  -5  7  0 0.00000000D+00 0.00000000D+00 0.00000000D+00 0.00000000D+00 0.00000000D+00
  <mgrwgt>
 0.4552084914D-03    9    2    0
 0.620857076027256D+03 0.000000000000000D+00 0.000000000000000D+00 0.620857076027256D+03
 0.620857076027256D+03 0.000000000000000D+00 0.000000000000000D+00 -.620857076027256D+03
 0.587968259053970D+03 0.226542335258745D+03 -.534833339371058D+03 0.482615205666891D+01
 0.160822812121198D+03 -.937310638228094D+02 0.110543438402043D+03 0.697037502539753D+02
 0.114891572484272D+03 0.288929939579386D+01 0.105360148630390D+03 0.457270648248105D+02
 0.378031508395070D+03 -.135700570831730D+03 0.318929752338626D+03 -.120256967135455D+03
 0.000000000000000D+00 0.000000000000000D+00 0.000000000000000D+00 -.000000000000000D+00
 0.641033622852044D+03 0.000000000000000D+00 0.000000000000000D+00 0.641033622852044D+03
 0.728760368417012D+03 0.000000000000000D+00 0.000000000000000D+00 -.728760368417012D+03
 0.625524924807247D+03 0.221296011200388D+03 -.577902209629134D+03 0.482615205666891D+01
 0.154189229521586D+03 -.950929629045036D+02 0.993631425984227D+02 0.697037502539753D+02
 0.107672293662063D+03 0.192708371876042D+01 0.974609907260229D+02 0.457270648248105D+02
 0.357506453343182D+03 -.138880539665361D+03 0.292824299530728D+03 -.120256967135455D+03
 0.124901089934977D+03 0.107504076507157D+02 0.882537767739608D+02 -.877267455649682D+02
0.298387462416D-04 0.000000000000D+00 0.000000000000D+00 0.289437295622D-06 0.000000000000D+00  7 -2 2 23 -11 11 23 21 0 0.43665252D-01 0.20893952D+00 0.35800731D+06 0.35800731D+06 0.35800731D+06 0.10789173D+01  1  2  2  2  7  2        2 0.286322562247D-03 0.100000000000D+01
-.165495682615D-05 0.000000000000D+00 -.114588642290D-06 0.289437295622D-06 0.000000000000D+00  7 -2 2 23 -11 11 23 21 2 0.43665252D-01 0.20893952D+00 0.35800731D+06 0.35800731D+06 0.35800731D+06 0.10789173D+01  1  2  3  2  7  2        2 -.184857895091D-04 0.100000000000D+01
0.186848623441D-05 0.000000000000D+00 0.000000000000D+00 0.289437295622D-06 0.000000000000D+00  7 -2 2 23 -11 11 23 21 2 0.43665252D-01 0.20893952D+00 0.35800731D+06 0.35800731D+06 0.35800731D+06 0.10789173D+01  1  2 15  2  7  2        2 0.208709029046D-04 0.100000000000D+01
0.669129093722D-04 0.000000000000D+00 0.000000000000D+00 0.289437295622D-06 0.000000000000D+00  7 -2 2 23 -11 11 23 21 2 0.43665252D-01 0.24824409D+00 0.41351361D+06 0.41351361D+06 0.41351361D+06 0.10743889D+01  1  2 12  2  7  2        2 0.531815135014D-03 0.100000000000D+01
-.678964116460D-04 0.000000000000D+00 0.000000000000D+00 0.289437295622D-06 0.000000000000D+00  7 -2 2 23 -11 11 23 21 2 0.43665252D-01 0.20893952D+00 0.35800731D+06 0.35800731D+06 0.35800731D+06 0.10789173D+01  1  2  4  2  7  2        2 -.758399708247D-03 0.100000000000D+01
-.118868027150D-03 0.000000000000D+00 -.207570907537D-04 0.289437295622D-06 0.000000000000D+00  7 -2 2 23 -11 11 23 21 2 0.43665252D-01 0.24868948D+00 0.35800731D+06 0.35800731D+06 0.35800731D+06 0.10789173D+01  1  2  5  2  7  2        2 -.955099544381D-03 0.100000000000D+01
0.120954925778D-03 0.000000000000D+00 0.204462210007D-04 0.289437295622D-06 0.000000000000D+00  7 -2 2 23 -11 11 23 21 2 0.43665252D-01 0.20893952D+00 0.35800731D+06 0.35800731D+06 0.35800731D+06 0.10789173D+01  1  2  6  2  7  2        2 0.135106080274D-02 0.100000000000D+01
0.170568899776D-05 0.000000000000D+00 0.000000000000D+00 0.289437295622D-06 0.000000000000D+00  7 -2 21 23 -11 11 23 -2 2 0.43665252D-01 0.24824409D+00 0.41351361D+06 0.41351361D+06 0.41351361D+06 0.10743889D+01  1  2 12  4  7  2        2 0.407706366687D-05 0.100000000000D+01
-.286699852303D-05 0.000000000000D+00 -.533454907474D-06 0.289437295622D-06 0.000000000000D+00  7 -2 21 23 -11 11 23 -2 2 0.43665252D-01 0.24868948D+00 0.35800731D+06 0.35800731D+06 0.35800731D+06 0.10789173D+01  1  2  5  4  7  2        2 -.695293301125D-05 0.100000000000D+01
  </mgrwgt>
  </event>
  <event>
  8     66 0.27870365E-05 0.26894650E+03 0.75467711E-02 0.88800068E-01
       -2 -1    0    0    0  501 0.00000000E+00 0.00000000E+00 0.20350777E+03 0.20350802E+03 0.32000000E+00 0.0000E+00 0.9000E+01
        2 -1    0    0  501    0 0.00000000E+00 0.00000000E+00 -.64187852E+03 0.64187860E+03 0.32000000E+00 0.0000E+00 0.9000E+01
       25  2    1    2    0    0 -.59921815E+02 0.21446329E+03 -.33269893E+02 0.37421035E+03 0.29890028E+03 0.0000E+00 0.0000E+00
       23  2    3    3    0    0 -.71358706E+02 0.41165913E+02 -.10866071E+03 0.16406324E+03 0.91229929E+02 0.0000E+00 0.0000E+00
       23  1    1    2    0    0 0.59921815E+02 -.21446329E+03 -.40510085E+03 0.47117627E+03 0.91188000E+02 0.0000E+00 0.9000E+01
      -13  1    4    4    0    0 -.76676986E+02 0.19939462E+02 -.11644104E+03 0.14083845E+03 0.10565837E+00 0.0000E+00 0.9000E+01
       13  1    4    4    0    0 0.53182807E+01 0.21226451E+02 0.77803274E+01 0.23224792E+02 0.10565837E+00 0.0000E+00 0.9000E+01
       23  1    3    3    0    0 0.11436891E+02 0.17329737E+03 0.75390816E+02 0.21014711E+03 0.91188000E+02 0.0000E+00 0.9000E+01
#aMCatNLO 1  0  0  2  1 0.78215704D+03 0.00000000D+00  -5  7  0 0.00000000D+00 0.00000000D+00 0.00000000D+00 0.00000000D+00 0.00000000D+00
  <mgrwgt>
 0.7701365232D-03    5    2    0
 0.361424137709673D+03 0.000000000000000D+00 0.000000000000000D+00 0.361424137709673D+03
 0.361424137709673D+03 0.000000000000000D+00 0.000000000000000D+00 -.361424137709673D+03
 0.305377711422222D+03 0.599218148995383D+02 -.214463286295379D+03 -.188029705685048D+03
 0.940981094266011D+02 -.766770963211909D+02 0.199394600998044D+02 -.507690361178910D+02
 0.318801843219424D+02 0.531839055182732D+01 0.212264524731071D+02 0.231840158244033D+02
 0.291492270248581D+03 0.114368908698252D+02 0.173297373722468D+03 0.215614725978535D+03
 0.000000000000000D+00 -.000000000000000D+00 -.000000000000000D+00 -.000000000000000D+00
 0.739447192995941D+03 0.000000000000000D+00 0.000000000000000D+00 0.739447192995941D+03
 0.127159898854934D+04 0.000000000000000D+00 0.000000000000000D+00 -.127159898854934D+04
 0.365810192447553D+03 0.297336840849654D+03 -.416830710008031D+02 -.188029705685048D+03
 0.842531761142627D+02 -.135900310734595D+02 0.658514518626859D+02 -.507690361178910D+02
 0.651394580544678D+02 0.396365312389029D+02 0.462016860864520D+02 0.231840158244033D+02
 0.549822651014057D+03 0.309029864033034D+03 0.389872452606043D+03 0.215614725978535D+03
 0.946020703914938D+03 -.632413205048131D+03 -.460242519554378D+03 -.532151795553396D+03
0.141211457453D-04 0.000000000000D+00 0.000000000000D+00 0.203569269183D-06 0.000000000000D+00  7 -2 2 23 -13 13 23 21 0 0.31308914D-01 0.98750567D-01 0.72332221D+05 0.72332221D+05 0.72332221D+05 0.11334516D+01  1  2  2  2  7  2        2 0.737729176717D-03 0.100000000000D+01
-.701195526077D-06 0.000000000000D+00 -.542289178452D-07 0.203569269183D-06 0.000000000000D+00  7 -2 2 23 -13 13 23 21 2 0.31308914D-01 0.98750567D-01 0.72332221D+05 0.72332221D+05 0.72332221D+05 0.11334516D+01  1  2  3  2  7  2        2 -.470621880271D-04 0.100000000000D+01
0.866092606462D-06 0.000000000000D+00 0.000000000000D+00 0.203569269183D-06 0.000000000000D+00  7 -2 2 23 -13 13 23 21 2 0.31308914D-01 0.98750567D-01 0.72332221D+05 0.72332221D+05 0.72332221D+05 0.11334516D+01  1  2 15  2  7  2        2 0.581295966366D-04 0.100000000000D+01
0.806409414662D-05 0.000000000000D+00 -.557235803468D-05 0.203569269183D-06 0.000000000000D+00  7 -2 2 23 -13 13 23 21 2 0.31308914D-01 0.47383762D+00 0.72332221D+05 0.72332221D+05 0.72332221D+05 0.11334516D+01  1  2  5  2  7  2        2 0.210941760333D-04 0.100000000000D+01
0.142236576279D-05 0.000000000000D+00 -.106222905467D-05 0.203569269183D-06 0.000000000000D+00  7 -2 21 23 -13 13 23 -2 2 0.31308914D-01 0.47383762D+00 0.72332221D+05 0.72332221D+05 0.72332221D+05 0.11334516D+01  1  2  5  4  7  2        2 0.245761884191D-06 0.100000000000D+01
  </mgrwgt>
  </event>
  <event>
  8     66 0.27870365E-05 0.17769757E+03 0.75467711E-02 0.98692419E-01
       -2 -1    0    0    0  501 0.00000000E+00 0.00000000E+00 0.58757473E+03 0.58757482E+03 0.32000000E+00 0.0000E+00 0.9000E+01
        2 -1    0    0  501    0 0.00000000E+00 0.00000000E+00 -.12994946E+03 0.12994986E+03 0.32000000E+00 0.0000E+00 0.9000E+01
       25  2    1    2    0    0 -.22953537E+02 0.43032555E+02 0.64771655E+02 0.31128844E+03 0.30054361E+03 0.0000E+00 0.0000E+00
       23  2    3    3    0    0 -.85830546E+02 0.64842309E+02 0.11881617E+03 0.18612757E+03 0.94629707E+02 0.0000E+00 0.0000E+00
       23  1    1    2    0    0 0.22953537E+02 -.43032555E+02 0.39285362E+03 0.40623624E+03 0.91188000E+02 0.0000E+00 0.9000E+01
      -13  1    4    4    0    0 -.11523871E+02 -.21977527E+02 0.40818555E+02 0.47770041E+02 0.10565837E+00 0.0000E+00 0.9000E+01
       13  1    4    4    0    0 -.74306675E+02 0.86819835E+02 0.77997614E+02 0.13835752E+03 0.10565837E+00 0.0000E+00 0.9000E+01
       23  1    3    3    0    0 0.62877009E+02 -.21809754E+02 -.54044514E+02 0.12516087E+03 0.91188000E+02 0.0000E+00 0.9000E+01
#aMCatNLO 1  0  0  2  1 0.25196845D+03 0.00000000D+00  -5  7  0 0.00000000D+00 0.00000000D+00 0.00000000D+00 0.00000000D+00 0.00000000D+00
  <mgrwgt>
 0.3202070355D-03    3    2    0
 0.276324435524186D+03 0.000000000000000D+00 0.000000000000000D+00 0.276324435524186D+03
 0.276324435524186D+03 0.000000000000000D+00 0.000000000000000D+00 -.276324435524186D+03
 0.202126141442980D+03 0.229535373097996D+02 -.430325550049835D+02 0.173669398701494D+03
 0.282213883992647D+02 -.115237947410688D+02 -.219776542463621D+02 0.134399267771530D+02
 0.115048305880675D+03 -.743067547330539D+02 0.868199643298861D+02 -.133008526347879D+02
 0.207253035325451D+03 0.628770121643231D+02 -.218097550785405D+02 -.173808472843859D+03
 0.000000000000000D+00 -.000000000000000D+00 0.000000000000000D+00 0.000000000000000D+00
 0.433276916484946D+03 0.000000000000000D+00 0.000000000000000D+00 0.433276916484946D+03
 0.426170413444236D+03 0.000000000000000D+00 0.000000000000000D+00 -.426170413444236D+03
 0.243074981339616D+03 0.370013654190906D+02 -.138708450070784D+03 0.173669398701494D+03
 0.401669004984284D+02 -.936587806485128D+01 -.366746314494059D+02 0.134399267771530D+02
 0.823564091951283D+02 -.680778676897869D+02 0.443967271937352D+02 -.133008526347879D+02
 0.241780398068112D+03 0.770457645884222D+02 -.118309232406629D+03 -.173808472843859D+03
 0.252068640827897D+03 -.366033842528746D+02 0.249295586733083D+03 0.710650304071015D+01
0.830744537285D-05 0.000000000000D+00 0.000000000000D+00 0.266423359306D-07 0.000000000000D+00  7 -2 2 23 -13 13 23 21 0 0.90396150D-01 0.19992262D-01 0.31576425D+05 0.31576425D+05 0.31576425D+05 0.11652779D+01  1  2  2  2  7  2        2 0.311805825332D-03 0.100000000000D+01
-.352148397802D-06 0.000000000000D+00 -.319027776323D-07 0.266423359306D-07 0.000000000000D+00  7 -2 2 23 -13 13 23 21 2 0.90396150D-01 0.19992262D-01 0.31576425D+05 0.31576425D+05 0.31576425D+05 0.11652779D+01  1  2  3  2  7  2        2 -.179473970924D-04 0.100000000000D+01
0.516989722091D-06 0.000000000000D+00 0.000000000000D+00 0.266423359306D-07 0.000000000000D+00  7 -2 2 23 -13 13 23 21 2 0.90396150D-01 0.19992262D-01 0.31576425D+05 0.31576425D+05 0.31576425D+05 0.11652779D+01  1  2 15  2  7  2        2 0.263486072717D-04 0.100000000000D+01
  </mgrwgt>
  </event>
  <event>
  8     66 0.27870365E-05 0.40096193E+03 0.75467711E-02 0.87710482E-01
       -2 -1    0    0    0  501 0.00000000E+00 0.00000000E+00 0.94082576E+03 0.94082582E+03 0.32000000E+00 0.0000E+00 0.9000E+01
        2 -1    0    0  501    0 0.00000000E+00 0.00000000E+00 -.95618685E+03 0.95618691E+03 0.32000000E+00 0.0000E+00 0.9000E+01
       25  2    1    2    0    0 0.26493145E+03 0.88139540E+03 0.55152069E+02 0.96947087E+03 0.29964227E+03 0.0000E+00 0.0000E+00
       23  2    3    3    0    0 0.24002945E+03 0.71069153E+03 -.30057386E+02 0.75654876E+03 0.93626902E+02 0.0000E+00 0.0000E+00
       23  1    1    2    0    0 -.26493145E+03 -.88139540E+03 -.70513161E+02 0.92754185E+03 0.91188000E+02 0.0000E+00 0.9000E+01
      -11  1    4    4    0    0 0.80597925E+02 0.21197497E+03 0.33059678E+02 0.22917757E+03 0.51099893E-03 0.0000E+00 0.9000E+01
       11  1    4    4    0    0 0.15943152E+03 0.49871655E+03 -.63117063E+02 0.52737119E+03 0.51099893E-03 0.0000E+00 0.9000E+01
       23  1    3    3    0    0 0.24902002E+02 0.17070388E+03 0.85209455E+02 0.21292211E+03 0.91188000E+02 0.0000E+00 0.9000E+01
#aMCatNLO 1  0  0  1  2 0.60587370D+02 0.00000000D+00  -5  7  0 0.00000000D+00 0.00000000D+00 0.00000000D+00 0.00000000D+00 0.00000000D+00
  <mgrwgt>
 0.5711452684D-03    9    2    0
 0.948475264151907D+03 0.000000000000000D+00 0.000000000000000D+00 0.948475264151907D+03
 0.948475264151907D+03 0.000000000000000D+00 0.000000000000000D+00 -.948475264151907D+03
 0.927001262266874D+03 -.264931450199064D+03 -.881395402755577D+03 -.630044410905428D+02
 0.229452791837503D+03 0.805979251230085D+02 0.211974974443411D+03 0.349165914373912D+02
 0.526877374710154D+03 0.159431523575465D+03 0.498716552816607D+03 -.588485957231862D+02
 0.213619099489282D+03 0.249020015005906D+02 0.170703875495560D+03 0.869364453763378D+02
 0.000000000000000D+00 -.000000000000000D+00 -.000000000000000D+00 0.000000000000000D+00
 0.104562357520917D+04 0.000000000000000D+00 0.000000000000000D+00 0.104562357520917D+04
 0.958452643062693D+03 0.000000000000000D+00 0.000000000000000D+00 -.958452643062693D+03
 0.903448170769798D+03 -.241930322723012D+03 -.863367537768997D+03 -.630044410905428D+02
 0.235772368044686D+03 0.864438682091088D+02 0.216556918210523D+03 0.349165914373912D+02
 0.540979945418701D+03 0.172850043586570D+03 0.509233744520874D+03 -.588485957231862D+02
 0.217717358089052D+03 0.303221047095434D+02 0.174952053719260D+03 0.869364453763378D+02
 0.106158375949629D+03 -.476856937822103D+02 -.373751786816601D+02 0.871709321464788D+02
0.336280289899D-03 0.000000000000D+00 0.000000000000D+00 0.731611906643D-06 0.000000000000D+00  7 -2 2 23 -11 11 23 21 0 0.14474243D+00 0.14710568D+00 0.87454988D+06 0.87454988D+06 0.87454988D+06 0.10517613D+01  1  2  2  1  7  1       -2 0.348031244903D-03 0.100000000000D+01
-.186777073769D-04 0.000000000000D+00 -.129140485784D-05 0.731611906643D-06 0.000000000000D+00  7 -2 2 23 -11 11 23 21 2 0.14474243D+00 0.14710568D+00 0.87454988D+06 0.87454988D+06 0.87454988D+06 0.10517613D+01  1  2  3  1  7  1       -2 -.213833010035D-04 0.100000000000D+01
0.212173608258D-04 0.000000000000D+00 0.000000000000D+00 0.731611906643D-06 0.000000000000D+00  7 -2 2 23 -11 11 23 21 2 0.14474243D+00 0.14710568D+00 0.87454988D+06 0.87454988D+06 0.87454988D+06 0.10517613D+01  1  2 15  1  7  1       -2 0.242908406200D-04 0.100000000000D+01
0.211381745042D-02 0.000000000000D+00 0.000000000000D+00 0.731611906643D-06 0.000000000000D+00  7 -2 2 23 -11 11 23 21 2 0.16028110D+00 0.14710568D+00 0.93352794D+06 0.93352794D+06 0.93352794D+06 0.10498583D+01  1  2 12  1  7  1       -2 0.180523489716D-02 0.100000000000D+01
-.215173159258D-02 0.000000000000D+00 0.000000000000D+00 0.731611906643D-06 0.000000000000D+00  7 -2 2 23 -11 11 23 21 2 0.14474243D+00 0.14710568D+00 0.87454988D+06 0.87454988D+06 0.87454988D+06 0.10517613D+01  1  2  4  1  7  1       -2 -.246342462673D-02 0.100000000000D+01
-.352061998952D-02 0.000000000000D+00 -.391408709865D-03 0.731611906643D-06 0.000000000000D+00  7 -2 2 23 -11 11 23 21 2 0.16036636D+00 0.14710568D+00 0.87454988D+06 0.87454988D+06 0.87454988D+06 0.10517613D+01  1  2  5  1  7  1       -2 -.302352196444D-02 0.100000000000D+01
0.354415269924D-02 0.000000000000D+00 0.389361350239D-03 0.731611906643D-06 0.000000000000D+00  7 -2 2 23 -11 11 23 21 2 0.14474243D+00 0.14710568D+00 0.87454988D+06 0.87454988D+06 0.87454988D+06 0.10517613D+01  1  2  6  1  7  1       -2 0.405754745168D-02 0.100000000000D+01
0.349169334175D-04 0.000000000000D+00 0.000000000000D+00 0.731611906643D-06 0.000000000000D+00  7 21 2 23 -11 11 23 2 2 0.16028110D+00 0.14710568D+00 0.93352794D+06 0.93352794D+06 0.93352794D+06 0.10498583D+01  1  2 12  3  7  1       -2 0.240654107433D-03 0.100000000000D+01
-.570642543654D-04 0.000000000000D+00 -.649448411150D-05 0.731611906643D-06 0.000000000000D+00  7 21 2 23 -11 11 23 2 2 0.16036636D+00 0.14710568D+00 0.87454988D+06 0.87454988D+06 0.87454988D+06 0.10517613D+01  1  2  5  3  7  1       -2 -.396283381210D-03 0.100000000000D+01
  </mgrwgt>
  </event>
  <event>
  7     66 0.27870365E-05 0.23462804E+03 0.75467711E-02 0.82157102E-01
       -2 -1    0    0    0  501 0.00000000E+00 0.00000000E+00 0.22085373E+03 0.22085396E+03 0.32000000E+00 0.0000E+00 0.9000E+01
        2 -1    0    0  501    0 0.00000000E+00 0.00000000E+00 -.79528434E+03 0.79528440E+03 0.32000000E+00 0.0000E+00 0.9000E+01
       23  2    1    2    0    0 -.47973640E+02 -.10249939E+02 0.12567876E+03 0.16506347E+03 0.95101346E+02 0.0000E+00 0.0000E+00
       23  1    1    2    0    0 0.16249113E+03 -.65608862E+02 -.64909205E+03 0.67848628E+03 0.91188000E+02 0.0000E+00 0.9000E+01
      -13  1    3    3    0    0 -.29904437E+02 -.52760363E+02 0.66693245E+02 0.90143948E+02 0.10565837E+00 0.0000E+00 0.9000E+01
       13  1    3    3    0    0 -.18069204E+02 0.42510424E+02 0.58985513E+02 0.74919518E+02 0.10565837E+00 0.0000E+00 0.9000E+01
       23  1    1    2    0    0 -.11451749E+03 0.75858801E+02 -.51017311E+02 0.17258862E+03 0.91188000E+02 0.0000E+00 0.9000E+01
#aMCatNLO 1  0  0  1  2 0.17446023D+04 0.00000000D+00  -5  7  0 0.00000000D+00 0.00000000D+00 0.00000000D+00 0.00000000D+00 0.00000000D+00
  <mgrwgt>
 0.6877040984D-02    3    2    0
 0.419096245776504D+03 0.000000000000000D+00 0.000000000000000D+00 0.419096245776504D+03
 0.419096245776504D+03 0.000000000000000D+00 0.000000000000000D+00 -.419096245776504D+03
 0.377690808123814D+03 0.162491129411843D+03 -.656088625610933D+02 -.321911797256831D+03
 0.154987535351212D+03 -.299044507147858D+02 -.527604782423226D+02 0.142629561723127D+03
 0.131248676339317D+03 -.180691887806341D+02 0.425105393409674D+02 0.122851835568593D+03
 0.174265471738665D+03 -.114517489916423D+03 0.758588014624485D+02 0.564303999651106D+02
 0.000000000000000D+00 -.000000000000000D+00 0.000000000000000D+00 -.000000000000000D+00
 0.150625616301299D+04 0.000000000000000D+00 0.000000000000000D+00 0.150625616301299D+04
 0.238077042570557D+04 0.000000000000000D+00 0.000000000000000D+00 -.238077042570557D+04
 0.122757595282928D+04 0.115968877411919D+04 -.223879902156308D+03 -.321911797256831D+03
 0.313629939110718D+03 0.261202456354473D+03 -.989637490379737D+02 0.142629561723127D+03
 0.252058998929365D+03 0.220042955738720D+03 0.471837561761234D+01 0.122851835568593D+03
 0.142246330268004D+03 0.821008112659506D+02 0.446523670141281D+02 0.564303999651106D+02
 0.195151536758120D+04 -.172303499747833D+04 0.273472908562541D+03 -.874514262692584D+03
0.189440896269D-03 0.000000000000D+00 0.000000000000D+00 0.600515941468D-10 0.000000000000D+00  7 -2 2 23 -13 13 23 21 0 0.33977520D-01 0.12235146D+00 0.55050317D+05 0.55050317D+05 0.55050317D+05 0.11436376D+01  1  2  2  1  7  1       -2 0.664093047786D-02 0.100000000000D+01
-.621836373655D-05 0.000000000000D+00 -.727502922606D-06 0.600515941468D-10 0.000000000000D+00  7 -2 2 23 -13 13 23 21 2 0.33977520D-01 0.12235146D+00 0.55050317D+05 0.55050317D+05 0.55050317D+05 0.11436376D+01  1  2  3  1  7  1       -2 -.285107196980D-03 0.100000000000D+01
0.113680794374D-04 0.000000000000D+00 0.000000000000D+00 0.600515941468D-10 0.000000000000D+00  7 -2 2 23 -13 13 23 21 2 0.33977520D-01 0.12235146D+00 0.55050317D+05 0.55050317D+05 0.55050317D+05 0.11436376D+01  1  2 15  1  7  1       -2 0.521217703044D-03 0.100000000000D+01
  </mgrwgt>
  </event>
  <event>
  8     66 0.27870365E-05 0.34698444E+03 0.75467711E-02 0.92599046E-01
       -2 -1    0    0    0  501 0.00000000E+00 0.00000000E+00 0.11412586E+03 0.11412631E+03 0.32000000E+00 0.0000E+00 0.9000E+01
        2 -1    0    0  501    0 0.00000000E+00 0.00000000E+00 -.20949880E+04 0.20949881E+04 0.32000000E+00 0.0000E+00 0.9000E+01
       25  2    1    2    0    0 0.56903198E+02 0.29878633E+03 -.17869324E+04 0.18370455E+04 0.29849208E+03 0.0000E+00 0.0000E+00
       23  2    3    3    0    0 -.61425413E+02 0.16268895E+03 -.55417003E+03 0.58782876E+03 0.90539763E+02 0.0000E+00 0.0000E+00
       23  1    1    2    0    0 -.56903198E+02 -.29878633E+03 -.19392978E+03 0.37206888E+03 0.91188000E+02 0.0000E+00 0.9000E+01
      -11  1    4    4    0    0 -.36406030E+02 0.11295153E+03 -.48355829E+03 0.49790769E+03 0.51099893E-03 0.0000E+00 0.9000E+01
       11  1    4    4    0    0 -.25019383E+02 0.49737421E+02 -.70611741E+02 0.89921068E+02 0.51099893E-03 0.0000E+00 0.9000E+01
       23  1    3    3    0    0 0.11832861E+03 0.13609737E+03 -.12327624E+04 0.12492167E+04 0.91188000E+02 0.0000E+00 0.9000E+01
#aMCatNLO 1  0  0  2  2 0.40387572D+03 0.00000000D+00  -5  7  0 0.00000000D+00 0.00000000D+00 0.00000000D+00 0.00000000D+00 0.00000000D+00
  <mgrwgt>
 0.5333824507D-03    5    2    0
 0.488971210804346D+03 0.000000000000000D+00 0.000000000000000D+00 0.488971210804346D+03
 0.488971210804346D+03 0.000000000000000D+00 0.000000000000000D+00 -.488971210804346D+03
 0.447669050806097D+03 -.569031983625413D+02 -.298786327234936D+03 0.315564707119163D+03
 0.145277173934701D+03 -.364060303099067D+02 0.112951533923320D+03 -.837974296019668D+02
 0.600994465329366D+02 -.250193831010587D+02 0.497374209537749D+02 0.226310163199702D+02
 0.324896750334957D+03 0.118328611773507D+03 0.136097372357841D+03 -.254398293837166D+03
 0.000000000000000D+00 -.000000000000000D+00 -.000000000000000D+00 -.000000000000000D+00
 0.605832404884078D+03 0.000000000000000D+00 0.000000000000000D+00 0.605832404884078D+03
 0.105998119137083D+04 0.000000000000000D+00 0.000000000000000D+00 -.105998119137083D+04
 0.409438884381367D+03 0.961402571115671D+02 -.224724087010666D+03 0.315564707119163D+03
 0.163964690674999D+03 0.188115701744168D+02 0.139672958756606D+03 -.837974296019668D+02
 0.646698074550998D+02 -.274083802717682D+01 0.605186657446585D+02 0.226310163199702D+02
 0.419984735487823D+03 0.251333139941914D+03 0.200462184859025D+03 -.254398293837166D+03
 0.607755478255616D+03 -.363544129200721D+03 -.175929722349622D+03 -.454148786486749D+03
0.268096821506D-04 0.000000000000D+00 0.000000000000D+00 0.127903711573D-06 0.000000000000D+00  7 -2 2 23 -11 11 23 21 0 0.17557862D-01 0.32230589D+00 0.12039820D+06 0.12039820D+06 0.12039820D+06 0.11151657D+01  1  2  2  2  7  2        2 0.526338368928D-03 0.100000000000D+01
-.127634375606D-05 0.000000000000D+00 -.102956238610D-06 0.127903711573D-06 0.000000000000D+00  7 -2 2 23 -11 11 23 21 2 0.17557862D-01 0.32230589D+00 0.12039820D+06 0.12039820D+06 0.12039820D+06 0.11151657D+01  1  2  3  2  7  2        2 -.311616043224D-04 0.100000000000D+01
0.167165584255D-05 0.000000000000D+00 0.000000000000D+00 0.127903711573D-06 0.000000000000D+00  7 -2 2 23 -11 11 23 21 2 0.17557862D-01 0.32230589D+00 0.12039820D+06 0.12039820D+06 0.12039820D+06 0.11151657D+01  1  2 15  2  7  2        2 0.408130471759D-04 0.100000000000D+01
-.753573508282D-05 0.000000000000D+00 -.610844609581D-05 0.127903711573D-06 0.000000000000D+00  7 -2 2 23 -11 11 23 21 2 0.17557862D-01 0.71815082D+00 0.12039820D+06 0.12039820D+06 0.12039820D+06 0.11151657D+01  1  2  5  2  7  2        2 -.260645076948D-05 0.100000000000D+01
-.269363833502D-06 0.000000000000D+00 -.530977847519D-06 0.127903711573D-06 0.000000000000D+00  7 -2 21 23 -11 11 23 -2 2 0.17557862D-01 0.71815082D+00 0.12039820D+06 0.12039820D+06 0.12039820D+06 0.11151657D+01  1  2  5  4  7  2        2 -.910351029064D-09 0.100000000000D+01
  </mgrwgt>
  </event>
  <event>
  8     66 0.27870365E-05 0.98246826E+02 0.75467711E-02 0.10845162E+00
       -4 -1    0    0    0  501 0.00000000E+00 0.00000000E+00 0.88569009E+03 0.88569145E+03 0.15500000E+01 0.0000E+00 0.9000E+01
        4 -1    0    0  501    0 0.00000000E+00 0.00000000E+00 -.60306439E+02 0.60326355E+02 0.15500000E+01 0.0000E+00 0.9000E+01
       25  2    1    2    0    0 0.19436805E+02 -.46639191E+02 0.37026831E+03 0.47911500E+03 0.29983255E+03 0.0000E+00 0.0000E+00
       23  2    3    3    0    0 0.45971507E+02 -.61862727E+02 0.36263340E+03 0.38262982E+03 0.94668989E+02 0.0000E+00 0.0000E+00
       23  1    1    2    0    0 -.19436805E+02 0.46639191E+02 0.45511534E+03 0.46690280E+03 0.91188000E+02 0.0000E+00 0.9000E+01
      -11  1    4    4    0    0 0.39271764E+02 -.92821975E+00 0.47736702E+02 0.61821726E+02 0.51099893E-03 0.0000E+00 0.9000E+01
       11  1    4    4    0    0 0.66997424E+01 -.60934507E+02 0.31489670E+03 0.32080810E+03 0.51099893E-03 0.0000E+00 0.9000E+01
       23  1    3    3    0    0 -.26534701E+02 0.15223536E+02 0.76349070E+01 0.96485178E+02 0.91188000E+02 0.0000E+00 0.9000E+01
#aMCatNLO 1  0  0  1  2 0.43890969D+02 0.00000000D+00  -5  7  0 0.00000000D+00 0.00000000D+00 0.00000000D+00 0.00000000D+00 0.00000000D+00
  <mgrwgt>
 0.4900400162D-04    9    2    0
 0.231133895319227D+03 0.000000000000000D+00 0.000000000000000D+00 0.231133895319227D+03
 0.231133895319227D+03 0.000000000000000D+00 0.000000000000000D+00 -.231133895319227D+03
 0.142890341866438D+03 -.194368054559408D+02 0.466391912722489D+02 0.977210053460673D+02
 0.412820450844399D+02 0.392717642374202D+02 -.928219796061985D+00 -.126915006222438D+02
 0.942734493417719D+02 0.669974253779305D+01 -.609345074574204D+02 0.716211037449473D+02
 0.183821954345804D+03 -.265347013192725D+02 0.152235359812335D+02 -.156650608468771D+03
 0.000000000000000D+00 -.000000000000000D+00 0.000000000000000D+00 0.000000000000000D+00
 0.325501387480688D+03 0.000000000000000D+00 0.000000000000000D+00 0.325501387480688D+03
 0.237333728394444D+03 0.000000000000000D+00 0.000000000000000D+00 -.237333728394444D+03
 0.139277722222060D+03 -.917929743837845D+01 0.380706997053784D+02 0.977210053460673D+02
 0.443858781914931D+02 0.423860054350888D+02 -.352966542922520D+01 -.126915006222438D+02
 0.988947031112123D+02 0.137218833279809D+02 -.668003721527328D+02 0.716211037449473D+02
 0.181788471464970D+03 -.132438567788989D+02 0.412118157256085D+01 -.156650608468771D+03
 0.984883408853969D+02 -.336847345457923D+02 0.281381563040187D+02 0.881676590862446D+02
0.761538366889D-05 0.000000000000D+00 0.000000000000D+00 0.247466648115D-07 0.000000000000D+00  7 -4 4 23 -11 11 23 21 0 0.13626165D+00 0.92795501D-02 0.22652959D+05 0.22652959D+05 0.22652959D+05 0.11788270D+01  1  2  2  1  7  1       -4 0.450568091799D-04 0.100000000000D+01
-.328417565946D-06 0.000000000000D+00 -.292450784651D-07 0.247466648115D-07 0.000000000000D+00  7 -4 4 23 -11 11 23 21 2 0.13626165D+00 0.92795501D-02 0.22652959D+05 0.22652959D+05 0.22652959D+05 0.11788270D+01  1  2  3  1  7  1       -4 -.270019542021D-05 0.100000000000D+01
0.464464597946D-06 0.000000000000D+00 0.000000000000D+00 0.247466648115D-07 0.000000000000D+00  7 -4 4 23 -11 11 23 21 2 0.13626165D+00 0.92795501D-02 0.22652959D+05 0.22652959D+05 0.22652959D+05 0.11788270D+01  1  2 15  1  7  1       -4 0.381875182775D-05 0.100000000000D+01
0.209718320177D-04 0.000000000000D+00 0.000000000000D+00 0.247466648115D-07 0.000000000000D+00  7 -4 4 23 -11 11 23 21 2 0.19315413D+00 0.92795501D-02 0.29945828D+05 0.29945828D+05 0.29945828D+05 0.11674088D+01  1  2 12  1  7  1       -4 0.535029896488D-04 0.100000000000D+01
-.218088360460D-04 0.000000000000D+00 0.000000000000D+00 0.247466648115D-07 0.000000000000D+00  7 -4 4 23 -11 11 23 21 2 0.13626165D+00 0.92795501D-02 0.22652959D+05 0.22652959D+05 0.22652959D+05 0.11788270D+01  1  2  4  1  7  1       -4 -.179308676872D-03 0.100000000000D+01
-.234309045619D-04 0.000000000000D+00 -.310107120009D-05 0.247466648115D-07 0.000000000000D+00  7 -4 4 23 -11 11 23 21 2 0.19393088D+00 0.92795501D-02 0.22652959D+05 0.22652959D+05 0.22652959D+05 0.11788270D+01  1  2  5  1  7  1       -4 -.594174050874D-04 0.100000000000D+01
0.232461271640D-04 0.000000000000D+00 0.291748250544D-05 0.247466648115D-07 0.000000000000D+00  7 -4 4 23 -11 11 23 21 2 0.13626165D+00 0.92795501D-02 0.22652959D+05 0.22652959D+05 0.22652959D+05 0.11788270D+01  1  2  6  1  7  1       -4 0.191125848963D-03 0.100000000000D+01
0.903922300468D-06 0.000000000000D+00 0.000000000000D+00 0.247466648115D-07 0.000000000000D+00  7 21 4 23 -11 11 23 4 2 0.19315413D+00 0.92795501D-02 0.29945828D+05 0.29945828D+05 0.29945828D+05 0.11674088D+01  1  2 12  3  7  1       -4 0.706339109889D-04 0.100000000000D+01
-.929514786354D-06 0.000000000000D+00 -.134769284574D-06 0.247466648115D-07 0.000000000000D+00  7 21 4 23 -11 11 23 4 2 0.19393088D+00 0.92795501D-02 0.22652959D+05 0.22652959D+05 0.22652959D+05 0.11788270D+01  1  2  5  3  7  1       -4 -.737080316127D-04 0.100000000000D+01
  </mgrwgt>
  </event>
  <event>
  9     66 0.27870365E-05 0.17765122E+03 0.75467711E-02 0.10526519E+00
       -2 -1    0    0    0  502 0.00000000E+00 0.00000000E+00 0.76831016E+02 0.76831682E+02 0.32000000E+00 0.0000E+00 0.9000E+01
        2 -1    0    0  501    0 0.00000000E+00 0.00000000E+00 -.14423645E+04 0.14423645E+04 0.32000000E+00 0.0000E+00 0.9000E+01
       25  2    1    2    0    0 0.42093218E+02 0.28991256E+02 -.95955959E+03 0.10044135E+04 0.29236889E+03 0.0000E+00 0.0000E+00
       23  2    3    3    0    0 0.57321496E+01 -.29561639E+02 -.10413083E+03 0.14138155E+03 0.90767634E+02 0.0000E+00 0.0000E+00
       23  1    1    2    0    0 -.11483084E+03 -.16998020E+02 -.41503476E+03 0.44050443E+03 0.91188000E+02 0.0000E+00 0.9000E+01
      -11  1    4    4    0    0 0.21692437E+02 0.28105953E+02 -.33510605E+02 0.48820764E+02 0.51099893E-03 0.0000E+00 0.9000E+01
       11  1    4    4    0    0 -.15960287E+02 -.57667592E+02 -.70620230E+02 0.92560784E+02 0.51099893E-03 0.0000E+00 0.9000E+01
       23  1    3    3    0    0 0.36361068E+02 0.58552895E+02 -.85542875E+03 0.86303196E+03 0.91188000E+02 0.0000E+00 0.9000E+01
       21  1    1    2  501  502 0.72737622E+02 -.11993236E+02 0.90608640E+01 0.74278268E+02 0.75000000E+00 0.0000E+00 0.9000E+01
#aMCatNLO 2  0  0  1  2 0.73719735D+02 0.00000000D+00  -5  7  0 0.00000000D+00 0.00000000D+00 0.00000000D+00 0.00000000D+00 0.00000000D+00
  <mgrwgt>
 0.1789373489D-02    2    2    0
 0.219569839452333D+03 0.000000000000000D+00 0.000000000000000D+00 0.219569839452333D+03
 0.219569839452333D+03 0.000000000000000D+00 0.000000000000000D+00 -.219569839452333D+03
 0.131711326161741D+03 -.918106387517066D+02 -.207936721074284D+02 0.130786814158386D+02
 0.585674365630984D+02 0.310303126122153D+02 0.265662905778314D+02 0.419701862003848D+02
 0.824322621273131D+02 -.240822483209921D+01 -.599021036167422D+02 0.565775244675233D+02
 0.166428654052514D+03 0.631885509715906D+02 0.541294851463393D+02 -.111626392083747D+03
 0.000000000000000D+00 0.000000000000000D+00 -.000000000000000D+00 0.000000000000000D+00
 0.486490123609150D+03 0.000000000000000D+00 0.000000000000000D+00 0.486490123609150D+03
 0.227791601600254D+03 0.000000000000000D+00 0.000000000000000D+00 -.227791601600254D+03
 0.148193649926318D+03 -.114830840588816D+03 -.169980197838770D+02 0.130786814158386D+02
 0.549727469754122D+02 0.216924366722870D+02 0.281059525998771D+02 0.419701862003848D+02
 0.823486378823170D+02 -.159602867858987D+02 -.576675916950903D+02 0.565775244675233D+02
 0.159769432686082D+03 0.363610686575969D+02 0.585528953449413D+02 -.111626392083747D+03
 0.268997257739275D+03 0.727376220448303D+02 -.119932364658511D+02 0.258698522008896D+03
-.629677148357D-04 0.000000000000D+00 0.000000000000D+00 0.771013530998D-09 0.000000000000D+00  7 -2 2 23 -11 11 23 21 2 0.11794063D-01 0.21389261D+00 0.46435945D+05 0.46435945D+05 0.46435945D+05 0.11501310D+01  1  2 13  1  7  1       -2 -.747699150944D-02 0.100000000000D+01
0.835029004882D-04 0.000000000000D+00 0.000000000000D+00 0.771013530998D-09 0.133703079757D-11  7 -2 2 23 -11 11 23 21 2 0.11820184D-01 0.22190179D+00 0.46435945D+05 0.46435945D+05 0.46435945D+05 0.11501310D+01  1  2  1  1  7  1       -2 0.926636499890D-02 0.100000000000D+01
  </mgrwgt>
  </event>
  <event>
  8     66 0.27870365E-05 0.37130799E+03 0.75467711E-02 0.96686655E-01
       -2 -1    0    0    0  501 0.00000000E+00 0.00000000E+00 0.11287973E+03 0.11288019E+03 0.32000000E+00 0.0000E+00 0.9000E+01
        2 -1    0    0  501    0 0.00000000E+00 0.00000000E+00 -.14804790E+04 0.14804790E+04 0.32000000E+00 0.0000E+00 0.9000E+01
       25  2    1    2    0    0 -.10407118E+03 -.31759237E+03 -.95022694E+03 0.10509474E+04 0.29977220E+03 0.0000E+00 0.0000E+00
       23  2    3    3    0    0 -.31623412E+02 -.24663632E+03 -.82256249E+03 0.86414022E+03 0.91102998E+02 0.0000E+00 0.0000E+00
       23  1    1    2    0    0 0.10407118E+03 0.31759237E+03 -.41737232E+03 0.54241186E+03 0.91188000E+02 0.0000E+00 0.9000E+01
      -13  1    4    4    0    0 -.48861892E+02 -.23232571E+03 -.78769924E+03 0.82269850E+03 0.10565837E+00 0.0000E+00 0.9000E+01
       13  1    4    4    0    0 0.17238480E+02 -.14310609E+02 -.34863252E+02 0.41441721E+02 0.10565837E+00 0.0000E+00 0.9000E+01
       23  1    3    3    0    0 -.72447772E+02 -.70956048E+02 -.12766445E+03 0.18680713E+03 0.91188000E+02 0.0000E+00 0.9000E+01
#aMCatNLO 1  0  0  2  1 0.85703402D+02 0.00000000D+00  -5  7  0 0.00000000D+00 0.00000000D+00 0.00000000D+00 0.00000000D+00 0.00000000D+00
  <mgrwgt>
 0.2102828530D-03    4    2    0
 0.408798802338717D+03 0.000000000000000D+00 0.000000000000000D+00 0.408798802338717D+03
 0.408798802338717D+03 0.000000000000000D+00 0.000000000000000D+00 -.408798802338717D+03
 0.358928232020980D+03 0.104071184400585D+03 0.317592369006653D+03 0.939068694180969D+02
 0.285712220770710D+03 -.488619812839578D+02 -.232326004629361D+03 -.158961024957991D+03
 0.224466177066257D+02 0.172385691256193D+02 -.143103161191294D+02 0.137740100886818D+01
 0.150510534179119D+03 -.724477722422461D+02 -.709560482581634D+02 0.636767545310262D+02
 0.000000000000000D+00 0.000000000000000D+00 0.000000000000000D+00 0.000000000000000D+00
 0.463729482483504D+03 0.000000000000000D+00 0.000000000000000D+00 0.463729482483504D+03
 0.445888426397241D+03 0.000000000000000D+00 0.000000000000000D+00 -.445888426397241D+03
 0.327171377165207D+03 0.102551884937789D+03 0.281763144261235D+03 0.939068694180969D+02
 0.311825970079507D+03 -.501851702789720D+02 -.263530409714707D+03 -.158961024957991D+03
 0.239917565744775D+02 0.171357359565667D+02 -.167354026906013D+02 0.137740100886818D+01
 0.159088092247018D+03 -.731333476609079D+02 -.871237863221051D+02 0.636767545310262D+02
 0.875407128145352D+02 0.363089704552449D+01 0.856264544661784D+02 0.178410560862637D+02
0.135493882240D-04 0.000000000000D+00 0.000000000000D+00 0.869126880127D-06 0.000000000000D+00  7 -2 2 23 -13 13 23 21 0 0.17366150D-01 0.22776604D+00 0.13786963D+06 0.13786963D+06 0.13786963D+06 0.11104536D+01  1  2  2  2  7  2        2 0.578143278145D-03 0.100000000000D+01
-.744275425837D-06 0.000000000000D+00 -.520332184160D-07 0.869126880127D-06 0.000000000000D+00  7 -2 2 23 -13 13 23 21 2 0.17366150D-01 0.22776604D+00 0.13786963D+06 0.13786963D+06 0.13786963D+06 0.11104536D+01  1  2  3  2  7  2        2 -.391606867714D-04 0.100000000000D+01
0.841292192082D-06 0.000000000000D+00 0.000000000000D+00 0.869126880127D-06 0.000000000000D+00  7 -2 2 23 -13 13 23 21 2 0.17366150D-01 0.22776604D+00 0.13786963D+06 0.13786963D+06 0.13786963D+06 0.11104536D+01  1  2 15  2  7  2        2 0.442653067315D-04 0.100000000000D+01
-.708845377013D-05 0.000000000000D+00 0.000000000000D+00 0.869126880127D-06 0.000000000000D+00  7 -2 2 23 -13 13 23 21 2 0.17366150D-01 0.22776604D+00 0.13786963D+06 0.13786963D+06 0.13786963D+06 0.11104536D+01  1  2  4  2  7  2        2 -.372965045129D-03 0.100000000000D+01
  </mgrwgt>
  </event>
  <event>
  8     66 0.27870365E-05 0.23553944E+03 0.75467711E-02 0.95921875E-01
       -2 -1    0    0    0  501 0.00000000E+00 0.00000000E+00 0.13471461E+03 0.13471500E+03 0.32000000E+00 0.0000E+00 0.9000E+01
        2 -1    0    0  501    0 0.00000000E+00 0.00000000E+00 -.24430893E+04 0.24430893E+04 0.32000000E+00 0.0000E+00 0.9000E+01
       25  2    1    2    0    0 0.69841377E+02 0.28076049E+03 -.22710859E+03 0.47454777E+03 0.29985498E+03 0.0000E+00 0.0000E+00
       23  2    3    3    0    0 0.83622816E+02 0.26772138E+03 -.88573936E+02 0.30761351E+03 0.90073414E+02 0.0000E+00 0.0000E+00
       23  1    1    2    0    0 -.69841377E+02 -.28076049E+03 -.20812661E+04 0.21032566E+04 0.91188000E+02 0.0000E+00 0.9000E+01
      -11  1    4    4    0    0 -.16217453E+02 0.78207478E+02 -.32176983E+02 0.86109081E+02 0.51099893E-03 0.0000E+00 0.9000E+01
       11  1    4    4    0    0 0.99840269E+02 0.18951390E+03 -.56396952E+02 0.22150443E+03 0.51099893E-03 0.0000E+00 0.9000E+01
       23  1    3    3    0    0 -.13781438E+02 0.13039114E+02 -.13853465E+03 0.16693426E+03 0.91188000E+02 0.0000E+00 0.9000E+01
#aMCatNLO 1  0  0  2  1 0.18410402D+03 0.00000000D+00  -5  7  0 0.00000000D+00 0.00000000D+00 0.00000000D+00 0.00000000D+00 0.00000000D+00
  <mgrwgt>
 0.4753176292D-03    9    2    0
 0.573690119352688D+03 0.000000000000000D+00 0.000000000000000D+00 0.573690119352688D+03
 0.573690119352688D+03 0.000000000000000D+00 0.000000000000000D+00 -.573690119352688D+03
 0.538131830052163D+03 -.698413774309440D+02 -.280760489232793D+03 -.444484358392510D+03
 0.128724394224709D+03 -.162174534651572D+02 0.782074784960860D+02 0.100948274769349D+03
 0.384188054902588D+03 0.998402692331511D+02 0.189513896962155D+03 0.318930815424762D+03
 0.963359595259154D+02 -.137814383370499D+02 0.130391137745515D+02 0.246052681984001D+02
 0.000000000000000D+00 -.000000000000000D+00 0.000000000000000D+00 -.000000000000000D+00
 0.657023162169608D+03 0.000000000000000D+00 0.000000000000000D+00 0.657023162169608D+03
 0.692530302356509D+03 0.000000000000000D+00 0.000000000000000D+00 -.692530302356509D+03
 0.584286265283528D+03 -.418095926610080D+02 -.365733238250083D+03 -.444484358392510D+03
 0.117638575845306D+03 -.100646715552938D+02 0.595565507269175D+02 0.100948274769349D+03
 0.365243262599086D+03 0.118556910990226D+03 0.132778140907972D+03 0.318930815424762D+03
 0.948885658398748D+02 -.900570925707294D+01 -.143755375903647D+01 0.246052681984001D+02
 0.187496794958322D+03 -.576769375168512D+02 0.174836100374231D+03 -.355071401869006D+02
0.365855311290D-04 0.000000000000D+00 0.000000000000D+00 0.145403299866D-05 0.000000000000D+00  7 -2 2 23 -11 11 23 21 0 0.20725356D-01 0.37585993D+00 0.11921957D+06 0.11921957D+06 0.11921957D+06 0.11155102D+01  1  2  2  2  7  2        2 0.350758009874D-03 0.100000000000D+01
-.139546844136D-05 0.000000000000D+00 -.140498072727D-06 0.145403299866D-05 0.000000000000D+00  7 -2 2 23 -11 11 23 21 2 0.20725356D-01 0.37585993D+00 0.11921957D+06 0.11921957D+06 0.11921957D+06 0.11155102D+01  1  2  3  2  7  2        2 -.166481247925D-04 0.100000000000D+01
0.222162033535D-05 0.000000000000D+00 0.000000000000D+00 0.145403299866D-05 0.000000000000D+00  7 -2 2 23 -11 11 23 21 2 0.20725356D-01 0.37585993D+00 0.11921957D+06 0.11921957D+06 0.11921957D+06 0.11155102D+01  1  2 15  2  7  2        2 0.265042271744D-04 0.100000000000D+01
0.115905249603D-04 0.000000000000D+00 0.000000000000D+00 0.145403299866D-05 0.000000000000D+00  7 -2 2 23 -11 11 23 21 2 0.20725356D-01 0.47625684D+00 0.19953838D+06 0.19953838D+06 0.19953838D+06 0.10979025D+01  1  2 12  2  7  2        2 0.528413530149D-04 0.100000000000D+01
-.192293793766D-04 0.000000000000D+00 0.000000000000D+00 0.145403299866D-05 0.000000000000D+00  7 -2 2 23 -11 11 23 21 2 0.20725356D-01 0.37585993D+00 0.11921957D+06 0.11921957D+06 0.11921957D+06 0.11155102D+01  1  2  4  2  7  2        2 -.229409062976D-03 0.100000000000D+01
-.362957086063D-04 0.000000000000D+00 -.154737793238D-04 0.145403299866D-05 0.000000000000D+00  7 -2 2 23 -11 11 23 21 2 0.20725356D-01 0.47578245D+00 0.11921957D+06 0.11921957D+06 0.11921957D+06 0.11155102D+01  1  2  5  2  7  2        2 -.177011792571D-03 0.100000000000D+01
0.392675883008D-04 0.000000000000D+00 0.150535359114D-04 0.145403299866D-05 0.000000000000D+00  7 -2 2 23 -11 11 23 21 2 0.20725356D-01 0.37585993D+00 0.11921957D+06 0.11921957D+06 0.11921957D+06 0.11155102D+01  1  2  6  2  7  2        2 0.468467570429D-03 0.100000000000D+01
0.376739428272D-06 0.000000000000D+00 0.000000000000D+00 0.145403299866D-05 0.000000000000D+00  7 -2 21 23 -11 11 23 -2 2 0.20725356D-01 0.47625684D+00 0.19953838D+06 0.19953838D+06 0.19953838D+06 0.10979025D+01  1  2 12  4  7  2        2 0.104600402774D-06 0.100000000000D+01
-.940688146663D-06 0.000000000000D+00 -.501384200376D-06 0.145403299866D-05 0.000000000000D+00  7 -2 21 23 -11 11 23 -2 2 0.20725356D-01 0.47578245D+00 0.11921957D+06 0.11921957D+06 0.11921957D+06 0.11155102D+01  1  2  5  4  7  2        2 -.289151396536D-06 0.100000000000D+01
  </mgrwgt>
  </event>
  <event>
  8     66 0.27870365E-05 0.42640500E+03 0.75467711E-02 0.87231659E-01
       -2 -1    0    0    0  501 0.00000000E+00 0.00000000E+00 0.34616031E+03 0.34616046E+03 0.32000000E+00 0.0000E+00 0.9000E+01
        2 -1    0    0  501    0 0.00000000E+00 0.00000000E+00 -.21664899E+04 0.21664899E+04 0.32000000E+00 0.0000E+00 0.9000E+01
       25  2    1    2    0    0 -.70032989E+03 -.32299100E+03 -.14083920E+04 0.16335639E+04 0.30029635E+03 0.0000E+00 0.0000E+00
       23  2    3    3    0    0 -.40353418E+03 -.29120804E+03 -.74671257E+03 0.90196787E+03 0.91238267E+02 0.0000E+00 0.0000E+00
       23  1    1    2    0    0 0.70032989E+03 0.32299100E+03 -.41193752E+03 0.87908641E+03 0.91188000E+02 0.0000E+00 0.9000E+01
      -11  1    4    4    0    0 -.22430135E+03 -.20282832E+03 -.39529227E+03 0.49770111E+03 0.51099893E-03 0.0000E+00 0.9000E+01
       11  1    4    4    0    0 -.17923283E+03 -.88379726E+02 -.35142030E+03 0.40426676E+03 0.51099893E-03 0.0000E+00 0.9000E+01
       23  1    3    3    0    0 -.29679571E+03 -.31782954E+02 -.66167945E+03 0.73159606E+03 0.91188000E+02 0.0000E+00 0.9000E+01
#aMCatNLO 1  0  0  2  1 0.39618837D+03 0.00000000D+00  -5  7  0 0.00000000D+00 0.00000000D+00 0.00000000D+00 0.00000000D+00 0.00000000D+00
  <mgrwgt>
 0.4074656603D-03    7    2    0
 0.865998277035671D+03 0.000000000000000D+00 0.000000000000000D+00 0.865998277035671D+03
 0.865998277035671D+03 0.000000000000000D+00 0.000000000000000D+00 -.865998277035671D+03
 0.842365825871994D+03 0.700329887162583D+03 0.322990995681900D+03 0.326312425611201D+03
 0.306574901453532D+03 -.224301346947429D+03 -.202828315221257D+03 -.503760905918531D+02
 0.217136833962676D+03 -.179232830963885D+03 -.883797260101944D+02 -.849295060527804D+02
 0.365918992783139D+03 -.296795709251270D+03 -.317829544504479D+02 -.191006828966568D+03
 0.000000000000000D+00 -.000000000000000D+00 0.000000000000000D+00 -.000000000000000D+00
 0.920058659923028D+03 0.000000000000000D+00 0.000000000000000D+00 0.920058659923028D+03
 0.212655267564940D+04 0.000000000000000D+00 0.000000000000000D+00 -.212655267564940D+04
 0.935369037983515D+03 0.850851954473924D+03 0.190187114005770D+03 0.326312425611201D+03
 0.306714892789659D+03 -.172373666635065D+03 -.248643507871082D+03 -.503760905918531D+02
 0.205376900399871D+03 -.143458294469868D+03 -.119943186414593D+03 -.849295060527804D+02
 0.329271362553886D+03 -.237933450549041D+03 -.837164455292776D+02 -.191006828966568D+03
 0.126987914184550D+04 -.297086542819950D+03 0.262116025809183D+03 -.120649401572637D+04
0.180001262968D-03 0.000000000000D+00 0.000000000000D+00 0.389586502965D-05 0.000000000000D+00  7 -2 2 23 -11 11 23 21 0 0.53255446D-01 0.33330614D+00 0.63278222D+06 0.63278222D+06 0.63278222D+06 0.10613557D+01  1  2  2  2  7  2        2 0.405597709293D-03 0.100000000000D+01
-.991234368338D-05 0.000000000000D+00 -.691252245218D-06 0.389586502965D-05 0.000000000000D+00  7 -2 2 23 -11 11 23 21 2 0.53255446D-01 0.33330614D+00 0.63278222D+06 0.63278222D+06 0.63278222D+06 0.10613557D+01  1  2  3  2  7  2        2 -.251604391137D-04 0.100000000000D+01
0.107702981621D-04 0.000000000000D+00 0.000000000000D+00 0.389586502965D-05 0.000000000000D+00  7 -2 2 23 -11 11 23 21 2 0.53255446D-01 0.33330614D+00 0.63278222D+06 0.63278222D+06 0.63278222D+06 0.10613557D+01  1  2 15  2  7  2        2 0.273381795265D-04 0.100000000000D+01
0.220676786590D-03 0.000000000000D+00 0.000000000000D+00 0.389586502965D-05 0.000000000000D+00  7 -2 2 23 -11 11 23 21 2 0.53255446D-01 0.81256701D+00 0.10307784D+07 0.10307784D+07 0.10307784D+07 0.10469887D+01  1  2 12  2  7  2        2 0.113501274626D-05 0.100000000000D+01
-.317991299482D-03 0.000000000000D+00 -.401266693240D-04 0.389586502965D-05 0.000000000000D+00  7 -2 2 23 -11 11 23 21 2 0.53255446D-01 0.82132610D+00 0.63278222D+06 0.63278222D+06 0.63278222D+06 0.10613557D+01  1  2  5  2  7  2        2 -.144473596244D-05 0.100000000000D+01
0.215637250184D-04 0.000000000000D+00 0.000000000000D+00 0.389586502965D-05 0.000000000000D+00  7 -2 21 23 -11 11 23 -2 2 0.53255446D-01 0.81256701D+00 0.10307784D+07 0.10307784D+07 0.10307784D+07 0.10469887D+01  1  2 12  4  7  2        2 0.529198044319D-09 0.100000000000D+01
-.289999283630D-04 0.000000000000D+00 -.397457655007D-05 0.389586502965D-05 0.000000000000D+00  7 -2 21 23 -11 11 23 -2 2 0.53255446D-01 0.82132610D+00 0.63278222D+06 0.63278222D+06 0.63278222D+06 0.10613557D+01  1  2  5  4  7  2        2 -.595385774144D-09 0.100000000000D+01
  </mgrwgt>
  </event>
  <event>
  8     66 0.27870365E-05 0.12564594E+03 0.75467711E-02 0.10560443E+00
       -2 -1    0    0    0  501 0.00000000E+00 0.00000000E+00 0.23366541E+03 0.23366563E+03 0.32000000E+00 0.0000E+00 0.9000E+01
        2 -1    0    0  501    0 0.00000000E+00 0.00000000E+00 -.40310310E+04 0.40310310E+04 0.32000000E+00 0.0000E+00 0.9000E+01
       25  2    1    2    0    0 0.12044526E+03 0.12858443E+02 0.11938722E+03 0.34501040E+03 0.30017739E+03 0.0000E+00 0.0000E+00
       23  2    3    3    0    0 -.17741808E+02 -.44732965E+02 0.13412742E+03 0.16909860E+03 0.91040435E+02 0.0000E+00 0.0000E+00
       23  1    1    2    0    0 -.12044526E+03 -.12858443E+02 -.39167528E+04 0.39196862E+04 0.91188000E+02 0.0000E+00 0.9000E+01
      -13  1    4    4    0    0 -.13952553E+02 0.10845982E+02 -.57108644E+01 0.18572404E+02 0.10565837E+00 0.0000E+00 0.9000E+01
       13  1    4    4    0    0 -.37892545E+01 -.55578947E+02 0.13983829E+03 0.15052619E+03 0.10565837E+00 0.0000E+00 0.9000E+01
       23  1    3    3    0    0 0.13818707E+03 0.57591408E+02 -.14740198E+02 0.17591180E+03 0.91188000E+02 0.0000E+00 0.9000E+01
#aMCatNLO 1  0  0  1  2 0.32108654D+02 0.00000000D+00  -5  7  0 0.00000000D+00 0.00000000D+00 0.00000000D+00 0.00000000D+00 0.00000000D+00
  <mgrwgt>
 0.4254473652D-03    6    2    0
 0.970522023569184D+03 0.000000000000000D+00 0.000000000000000D+00 0.970522023569184D+03
 0.970522023569184D+03 0.000000000000000D+00 0.000000000000000D+00 -.970522023569184D+03
 0.949453152734977D+03 -.120445259984956D+03 -.128584428095798D+02 -.937269245035842D+03
 0.296324684853838D+02 -.139525667125023D+02 0.108460712459700D+02 0.237859582358538D+02
 0.604297026188417D+03 -.378924084394772D+01 -.555790360803176D+02 0.601723780702054D+03
 0.357661399729591D+03 0.138187067541406D+03 0.575914076439273D+02 0.311759506097934D+03
 0.000000000000000D+00 -.000000000000000D+00 -.000000000000000D+00 -.000000000000000D+00
 0.983014284994155D+03 0.000000000000000D+00 0.000000000000000D+00 0.983014284994155D+03
 0.991508532287688D+03 0.000000000000000D+00 0.000000000000000D+00 -.991508532287688D+03
 0.948022473543424D+03 -.109336981742899D+03 -.177362134834224D+01 -.937269245035842D+03
 0.295998794562476D+02 -.136058063152915D+02 0.111920994070541D+02 0.237859582358538D+02
 0.603685913653581D+03 0.328258154026995D+01 -.485221469003325D+02 0.601723780702054D+03
 0.360001332193118D+03 0.142388437614226D+03 0.617839058992804D+02 0.311759506097934D+03
 0.332132184354728D+02 -.227282310963060D+02 -.226802370576597D+02 -.849424729353375D+01
0.746874775500D-03 0.000000000000D+00 0.000000000000D+00 0.109058954967D-04 0.000000000000D+00  7 -2 2 23 -13 13 23 21 0 0.35948542D-01 0.62015863D+00 0.40058087D+05 0.40058087D+05 0.40058087D+05 0.11558616D+01  1  2  2  1  7  1       -2 0.264318596878D-03 0.100000000000D+01
0.842564274532D-04 0.000000000000D+00 -.286819579457D-05 0.109058954967D-04 0.000000000000D+00  7 -2 2 23 -13 13 23 21 2 0.35948542D-01 0.62015863D+00 0.40058087D+05 0.40058087D+05 0.40058087D+05 0.11558616D+01  1  2  3  1  7  1       -2 0.398377386131D-04 0.100000000000D+01
0.450108978008D-04 0.000000000000D+00 0.000000000000D+00 0.109058954967D-04 0.000000000000D+00  7 -2 2 23 -13 13 23 21 2 0.35948542D-01 0.62015863D+00 0.40058087D+05 0.40058087D+05 0.40058087D+05 0.11558616D+01  1  2 15  1  7  1       -2 0.212818468042D-04 0.100000000000D+01
0.365808628970D-03 0.000000000000D+00 0.000000000000D+00 0.109058954967D-04 0.000000000000D+00  7 -2 2 23 -13 13 23 21 2 0.36793352D-01 0.62015863D+00 0.44260142D+05 0.44260142D+05 0.44260142D+05 0.11519828D+01  1  2 12  1  7  1       -2 0.163171142724D-03 0.100000000000D+01
-.216715796360D-03 0.000000000000D+00 0.000000000000D+00 0.109058954967D-04 0.000000000000D+00  7 -2 2 23 -13 13 23 21 2 0.35948542D-01 0.62015863D+00 0.40058087D+05 0.40058087D+05 0.40058087D+05 0.11558616D+01  1  2  4  1  7  1       -2 -.102466571509D-03 0.100000000000D+01
0.754710906180D-05 0.000000000000D+00 0.000000000000D+00 0.109058954967D-04 0.000000000000D+00  7 21 2 23 -13 13 23 2 2 0.36793352D-01 0.62015863D+00 0.44260142D+05 0.44260142D+05 0.44260142D+05 0.11519828D+01  1  2 12  3  7  1       -2 0.393046116858D-04 0.100000000000D+01
  </mgrwgt>
  </event>
  <event>
  8     66 0.27870365E-05 0.37709682E+03 0.75467711E-02 0.94739783E-01
       -2 -1    0    0    0  501 0.00000000E+00 0.00000000E+00 0.19596353E+03 0.19596379E+03 0.32000000E+00 0.0000E+00 0.9000E+01
        2 -1    0    0  501    0 0.00000000E+00 0.00000000E+00 -.19278786E+04 0.19278786E+04 0.32000000E+00 0.0000E+00 0.9000E+01
       25  2    1    2    0    0 -.47047677E+03 0.65343250E+01 -.34461716E+03 0.65608841E+03 0.30049945E+03 0.0000E+00 0.0000E+00
       23  2    3    3    0    0 -.18094835E+03 0.40034829E+02 -.15599790E+02 0.20718233E+03 0.91302073E+02 0.0000E+00 0.0000E+00
       23  1    1    2    0    0 0.47047677E+03 -.65343250E+01 -.13872979E+04 0.14677540E+04 0.91188000E+02 0.0000E+00 0.9000E+01
      -11  1    4    4    0    0 -.11842997E+03 -.71701143E+01 0.21374805E+02 0.12055683E+03 0.51099893E-03 0.0000E+00 0.9000E+01
       11  1    4    4    0    0 -.62518387E+02 0.47204944E+02 -.36974596E+02 0.86625493E+02 0.51099893E-03 0.0000E+00 0.9000E+01
       23  1    3    3    0    0 -.28952842E+03 -.33500504E+02 -.32901737E+03 0.44890608E+03 0.91188000E+02 0.0000E+00 0.9000E+01
#aMCatNLO 1  0  0  1  2 0.81994648D+01 0.00000000D+00  -5  7  0 0.00000000D+00 0.00000000D+00 0.00000000D+00 0.00000000D+00 0.00000000D+00
  <mgrwgt>
 0.3781295750D-03   11    2    0
 0.614649654820560D+03 0.000000000000000D+00 0.000000000000000D+00 0.614649654820560D+03
 0.614649654820560D+03 0.000000000000000D+00 0.000000000000000D+00 -.614649654820560D+03
 0.581303556854972D+03 0.470476770079769D+03 -.653432501477369D+01 -.328949061831998D+03
 0.238398459114132D+03 -.118429966069545D+03 -.717011428747550D+01 0.206777072969572D+03
 0.975694341430609D+02 -.625183869101937D+02 0.472049435258493D+02 0.581630388121683D+02
 0.312027859528954D+03 -.289528417100030D+03 -.335005042236001D+02 0.640089500502576D+02
 0.000000000000000D+00 0.000000000000000D+00 -.000000000000000D+00 0.000000000000000D+00
 0.619485864734057D+03 0.000000000000000D+00 0.000000000000000D+00 0.619485864734057D+03
 0.618148589219394D+03 0.000000000000000D+00 0.000000000000000D+00 -.618148589219394D+03
 0.580152447070643D+03 0.469090197056849D+03 -.291757486127007D+01 -.328949061831998D+03
 0.238641878480050D+03 -.118999467850686D+03 -.568462046903579D+01 0.206777072969572D+03
 0.980148716885461D+02 -.627518799751536D+02 0.478139890391951D+02 0.581630388121683D+02
 0.312517457440913D+03 -.290274013734921D+03 -.315556829274115D+02 0.640089500502576D+02
 0.830779927329766D+01 0.293516450391246D+01 -.765611078147775D+01 0.133727551466311D+01
0.344112596825D-04 0.000000000000D+00 0.000000000000D+00 0.134824474253D-05 0.000000000000D+00  7 -2 2 23 -11 11 23 21 0 0.30148257D-01 0.29659673D+00 0.24091102D+06 0.24091102D+06 0.24091102D+06 0.10916711D+01  1  2  2  1  7  1       -2 0.323743773445D-03 0.100000000000D+01
-.179410506045D-05 0.000000000000D+00 -.132148297873D-06 0.134824474253D-05 0.000000000000D+00  7 -2 2 23 -11 11 23 21 2 0.30148257D-01 0.29659673D+00 0.24091102D+06 0.24091102D+06 0.24091102D+06 0.10916711D+01  1  2  3  1  7  1       -2 -.201155710384D-04 0.100000000000D+01
0.210434460848D-05 0.000000000000D+00 0.000000000000D+00 0.134824474253D-05 0.000000000000D+00  7 -2 2 23 -11 11 23 21 2 0.30148257D-01 0.29659673D+00 0.24091102D+06 0.24091102D+06 0.24091102D+06 0.10916711D+01  1  2 15  1  7  1       -2 0.235939881082D-04 0.100000000000D+01
0.110935731334D-04 0.000000000000D+00 0.000000000000D+00 0.134824474253D-05 0.000000000000D+00  7 -2 2 23 -11 11 23 21 2 0.30470700D-01 0.29659673D+00 0.24502454D+06 0.24502454D+06 0.24502454D+06 0.10911165D+01  1  2 12  1  7  1       -2 0.121839759992D-03 0.100000000000D+01
-.105769044373D-04 0.000000000000D+00 0.000000000000D+00 0.134824474253D-05 0.000000000000D+00  7 -2 2 23 -11 11 23 21 2 0.30148257D-01 0.29659673D+00 0.24091102D+06 0.24091102D+06 0.24091102D+06 0.10916711D+01  1  2  4  1  7  1       -2 -.118588636342D-03 0.100000000000D+01
-.270845711714D-02 0.000000000000D+00 -.315722064957D-03 0.134824474253D-05 0.000000000000D+00  7 -2 2 23 -11 11 23 21 2 0.30574577D-01 0.29659673D+00 0.24091102D+06 0.24091102D+06 0.24091102D+06 0.10916711D+01  1  2  5  1  7  1       -2 -.296184146318D-01 0.100000000000D+01
0.271265409409D-02 0.000000000000D+00 0.315690941999D-03 0.134824474253D-05 0.000000000000D+00  7 -2 2 23 -11 11 23 21 2 0.30148257D-01 0.29659673D+00 0.24091102D+06 0.24091102D+06 0.24091102D+06 0.10916711D+01  1  2  6  1  7  1       -2 0.304143761338D-01 0.100000000000D+01
0.119531462160D-05 0.000000000000D+00 0.000000000000D+00 0.134824474253D-05 0.127336834379D-06  7 -2 2 23 -11 11 23 21 2 0.30385471D-01 0.29828513D+00 0.24502454D+06 0.24502454D+06 0.24502454D+06 0.10911165D+01  1  2 11  1  7  1       -2 0.130132142114D-04 0.100000000000D+01
0.927837211935D-06 0.000000000000D+00 0.000000000000D+00 0.134824474253D-05 0.000000000000D+00  7 21 2 23 -11 11 23 2 2 0.30470700D-01 0.29659673D+00 0.24502454D+06 0.24502454D+06 0.24502454D+06 0.10911165D+01  1  2 12  3  7  1       -2 0.117775423224D-03 0.100000000000D+01
-.696009903438D-05 0.000000000000D+00 -.814005281834D-06 0.134824474253D-05 0.000000000000D+00  7 21 2 23 -11 11 23 2 2 0.30574577D-01 0.29659673D+00 0.24091102D+06 0.24091102D+06 0.24091102D+06 0.10916711D+01  1  2  5  3  7  1       -2 -.879448809421D-03 0.100000000000D+01
0.281924664011D-08 0.000000000000D+00 0.000000000000D+00 0.134824474253D-05 0.185806891467D-09  7 21 2 23 -11 11 23 2 2 0.30385471D-01 0.29828513D+00 0.24502454D+06 0.24502454D+06 0.24502454D+06 0.10911165D+01  1  2 11  3  7  1       -2 0.354930826776D-06 0.100000000000D+01
  </mgrwgt>
  </event>
  <event>
  8     66 0.27870365E-05 0.11640840E+03 0.75467711E-02 0.10266609E+00
       -2 -1    0    0    0  501 0.00000000E+00 0.00000000E+00 0.34233364E+02 0.34234860E+02 0.32000000E+00 0.0000E+00 0.9000E+01
        2 -1    0    0  501    0 0.00000000E+00 0.00000000E+00 -.24396314E+04 0.24396314E+04 0.32000000E+00 0.0000E+00 0.9000E+01
       25  2    1    2    0    0 0.87468589E+02 -.10059280E+03 -.86723189E+03 0.92724415E+03 0.29986814E+03 0.0000E+00 0.0000E+00
       23  2    3    3    0    0 0.12784877E+03 -.14048781E+03 -.67197917E+03 0.70439657E+03 0.92392552E+02 0.0000E+00 0.0000E+00
       23  1    1    2    0    0 -.87468589E+02 0.10059280E+03 -.15381662E+04 0.15466221E+04 0.91188000E+02 0.0000E+00 0.9000E+01
      -11  1    4    4    0    0 0.60416637E+02 -.58407517E+02 -.15204664E+03 0.17372331E+03 0.51099893E-03 0.0000E+00 0.9000E+01
       11  1    4    4    0    0 0.67432130E+02 -.82080295E+02 -.51993253E+03 0.53067325E+03 0.51099893E-03 0.0000E+00 0.9000E+01
       23  1    3    3    0    0 -.40380178E+02 0.39895011E+02 -.19525272E+03 0.22284758E+03 0.91188000E+02 0.0000E+00 0.9000E+01
#aMCatNLO 1  0  0  2  1 0.59477597D+02 0.00000000D+00  -5  7  0 0.00000000D+00 0.00000000D+00 0.00000000D+00 0.00000000D+00 0.00000000D+00
  <mgrwgt>
 0.1009248545D-02    9    2    0
 0.288995962084623D+03 0.000000000000000D+00 0.000000000000000D+00 0.288995962084623D+03
 0.288995962084623D+03 0.000000000000000D+00 0.000000000000000D+00 -.288995962084623D+03
 0.218401853851458D+03 -.874685885765955D+02 0.100592800675861D+03 -.147018546062591D+03
 0.110789700477716D+03 0.604166371779134D+02 -.584075169471809D+02 0.721993742917422D+02
 0.107562027060167D+03 0.674321297545183D+02 -.820802945142088D+02 -.168915006592864D+02
 0.141238342779906D+03 -.403801783558362D+02 0.398950107855291D+02 0.917106724301355D+02
 0.000000000000000D+00 0.000000000000000D+00 0.000000000000000D+00 -.000000000000000D+00
 0.309568485064858D+03 0.000000000000000D+00 0.000000000000000D+00 0.309568485064858D+03
 0.336955737681997D+03 0.000000000000000D+00 0.000000000000000D+00 -.336955737681997D+03
 0.213782819661397D+03 -.965269510259588D+02 0.803488486392387D+02 -.147018546062591D+03
 0.114321632005644D+03 0.556984225672032D+02 -.689519515303237D+02 0.721993742917422D+02
 0.113005623350251D+03 0.628091483197947D+02 -.924118985931908D+02 -.168915006592864D+02
 0.139934027402637D+03 -.462734027017112D+02 0.267246224658020D+02 0.917106724301355D+02
 0.654801203269251D+02 0.242927828406721D+02 0.542903790184738D+02 -.273872526171392D+02
0.680418886415D-05 0.000000000000D+00 0.000000000000D+00 0.550182834067D-06 0.000000000000D+00  7 -2 2 23 -11 11 23 21 0 0.52667881D-02 0.37532803D+00 0.52711902D+05 0.52711902D+05 0.52711902D+05 0.11452832D+01  1  2  2  2  7  2        2 0.565103978279D-03 0.100000000000D+01
-.353673152774D-06 0.000000000000D+00 -.261298768224D-07 0.550182834067D-06 0.000000000000D+00  7 -2 2 23 -11 11 23 21 2 0.52667881D-02 0.37532803D+00 0.52711902D+05 0.52711902D+05 0.52711902D+05 0.11452832D+01  1  2  3  2  7  2        2 -.385283003578D-04 0.100000000000D+01
0.429019732097D-06 0.000000000000D+00 0.000000000000D+00 0.550182834067D-06 0.000000000000D+00  7 -2 2 23 -11 11 23 21 2 0.52667881D-02 0.37532803D+00 0.52711902D+05 0.52711902D+05 0.52711902D+05 0.11452832D+01  1  2 15  2  7  2        2 0.467363750061D-04 0.100000000000D+01
0.651851886282D-05 0.000000000000D+00 0.000000000000D+00 0.550182834067D-06 0.000000000000D+00  7 -2 2 23 -11 11 23 21 2 0.52667881D-02 0.44928828D+00 0.67794679D+05 0.67794679D+05 0.67794679D+05 0.11358434D+01  1  2 12  2  7  2        2 0.364546667144D-03 0.100000000000D+01
-.657017500732D-05 0.000000000000D+00 0.000000000000D+00 0.550182834067D-06 0.000000000000D+00  7 -2 2 23 -11 11 23 21 2 0.52667881D-02 0.37532803D+00 0.52711902D+05 0.52711902D+05 0.52711902D+05 0.11452832D+01  1  2  4  2  7  2        2 -.715739020901D-03 0.100000000000D+01
-.144916680541D-04 0.000000000000D+00 -.369728017165D-05 0.550182834067D-06 0.000000000000D+00  7 -2 2 23 -11 11 23 21 2 0.52667881D-02 0.44769612D+00 0.52711902D+05 0.52711902D+05 0.52711902D+05 0.11452832D+01  1  2  5  2  7  2        2 -.842472468138D-03 0.100000000000D+01
0.149670430404D-04 0.000000000000D+00 0.364054705729D-05 0.550182834067D-06 0.000000000000D+00  7 -2 2 23 -11 11 23 21 2 0.52667881D-02 0.37532803D+00 0.52711902D+05 0.52711902D+05 0.52711902D+05 0.11452832D+01  1  2  6  2  7  2        2 0.163047357484D-02 0.100000000000D+01
0.171817248209D-06 0.000000000000D+00 0.000000000000D+00 0.550182834067D-06 0.000000000000D+00  7 -2 21 23 -11 11 23 -2 2 0.52667881D-02 0.44928828D+00 0.67794679D+05 0.67794679D+05 0.67794679D+05 0.11358434D+01  1  2 12  4  7  2        2 0.772525499886D-06 0.100000000000D+01
-.341852630255D-06 0.000000000000D+00 -.959427591889D-07 0.550182834067D-06 0.000000000000D+00  7 -2 21 23 -11 11 23 -2 2 0.52667881D-02 0.44769612D+00 0.52711902D+05 0.52711902D+05 0.52711902D+05 0.11452832D+01  1  2  5  4  7  2        2 -.164478598227D-05 0.100000000000D+01
  </mgrwgt>
  </event>
  <event>
  8     66 0.27870365E-05 0.54743763E+03 0.75467711E-02 0.88105125E-01
       -2 -1    0    0    0  501 0.00000000E+00 0.00000000E+00 0.43846180E+03 0.43846192E+03 0.32000000E+00 0.0000E+00 0.9000E+01
        2 -1    0    0  501    0 0.00000000E+00 0.00000000E+00 -.15993152E+04 0.15993153E+04 0.32000000E+00 0.0000E+00 0.9000E+01
       25  2    1    2    0    0 -.44882153E+03 0.62443627E+03 -.29576141E+03 0.87671694E+03 0.29966041E+03 0.0000E+00 0.0000E+00
       23  2    3    3    0    0 -.16518406E+03 0.19984146E+03 -.22205413E+03 0.35280952E+03 0.89129913E+02 0.0000E+00 0.0000E+00
       23  1    1    2    0    0 0.44882153E+03 -.62443627E+03 -.86509202E+03 0.11610602E+04 0.91188000E+02 0.0000E+00 0.9000E+01
      -13  1    4    4    0    0 -.16141523E+03 0.14268726E+03 -.18952046E+03 0.28693649E+03 0.10565837E+00 0.0000E+00 0.9000E+01
       13  1    4    4    0    0 -.37688270E+01 0.57154192E+02 -.32533668E+02 0.65873032E+02 0.10565837E+00 0.0000E+00 0.9000E+01
       23  1    3    3    0    0 -.28363748E+03 0.42459481E+03 -.73707282E+02 0.52390742E+03 0.91188000E+02 0.0000E+00 0.9000E+01
#aMCatNLO 1  0  0  2  1 0.27398273D+03 0.00000000D+00  -5  7  0 0.00000000D+00 0.00000000D+00 0.00000000D+00 0.00000000D+00 0.00000000D+00
  <mgrwgt>
 0.6024654255D-03    9    2    0
 0.837400019177473D+03 0.000000000000000D+00 0.000000000000000D+00 0.837400019177473D+03
 0.837400019177473D+03 0.000000000000000D+00 0.000000000000000D+00 -.837400019177473D+03
 0.813074395292643D+03 0.448821534794755D+03 -.624436269989541D+03 -.247817060676878D+03
 0.217761835670656D+03 -.161415453982679D+03 0.142687384432557D+03 -.317108595596997D+02
 0.575993332528084D+02 -.376860545697262D+01 0.571540714746802D+02 0.607395406180389D+01
 0.586364474138838D+03 -.283637475355103D+03 0.424594814082303D+03 0.273453966174774D+03
 0.000000000000000D+00 -.000000000000000D+00 0.000000000000000D+00 -.000000000000000D+00
 0.982701285974568D+03 0.000000000000000D+00 0.000000000000000D+00 0.982701285974568D+03
 0.988403439129673D+03 0.000000000000000D+00 0.000000000000000D+00 -.988403439129673D+03
 0.946980567978198D+03 0.506550969549647D+03 -.755281248588958D+03 -.247817060676878D+03
 0.188641149436230D+03 -.148085521053016D+03 0.112474810962562D+03 -.317108595596997D+02
 0.495618135979130D+02 -.253742248450077D+00 0.491875600537445D+02 0.607395406180389D+01
 0.511879137968268D+03 -.247615314528778D+03 0.342949828600683D+03 0.273453966174774D+03
 0.274042056123631D+03 -.110596391719404D+03 0.250669048971969D+03 -.570215315510559D+01
0.133081396405D-03 0.000000000000D+00 0.000000000000D+00 0.824217534483D-06 0.000000000000D+00  7 -2 2 23 -13 13 23 21 0 0.67455673D-01 0.24604851D+00 0.61293503D+06 0.61293503D+06 0.61293503D+06 0.10623152D+01  1  2  2  2  7  2        2 0.377903696919D-03 0.100000000000D+01
-.735270205547D-05 0.000000000000D+00 -.511067603331D-06 0.824217534483D-06 0.000000000000D+00  7 -2 2 23 -13 13 23 21 2 0.67455673D-01 0.24604851D+00 0.61293503D+06 0.61293503D+06 0.61293503D+06 0.10623152D+01  1  2  3  2  7  2        2 -.235622928457D-04 0.100000000000D+01
0.821222761953D-05 0.000000000000D+00 0.000000000000D+00 0.824217534483D-06 0.000000000000D+00  7 -2 2 23 -13 13 23 21 2 0.67455673D-01 0.24604851D+00 0.61293503D+06 0.61293503D+06 0.61293503D+06 0.10623152D+01  1  2 15  2  7  2        2 0.263167078752D-04 0.100000000000D+01
0.676696594911D-04 0.000000000000D+00 0.000000000000D+00 0.824217534483D-06 0.000000000000D+00  7 -2 2 23 -13 13 23 21 2 0.67455673D-01 0.30823999D+00 0.86102014D+06 0.86102014D+06 0.86102014D+06 0.10522175D+01  1  2 12  2  7  2        2 0.124744685369D-03 0.100000000000D+01
-.638171953143D-04 0.000000000000D+00 0.000000000000D+00 0.824217534483D-06 0.000000000000D+00  7 -2 2 23 -13 13 23 21 2 0.67455673D-01 0.24604851D+00 0.61293503D+06 0.61293503D+06 0.61293503D+06 0.10623152D+01  1  2  4  2  7  2        2 -.204507055127D-03 0.100000000000D+01
-.186097167707D-03 0.000000000000D+00 -.641278034650D-04 0.824217534483D-06 0.000000000000D+00  7 -2 2 23 -13 13 23 21 2 0.67455673D-01 0.31691120D+00 0.61293503D+06 0.61293503D+06 0.61293503D+06 0.10623152D+01  1  2  5  2  7  2        2 -.331839581033D-03 0.100000000000D+01
0.197953933037D-03 0.000000000000D+00 0.621273440679D-04 0.824217534483D-06 0.000000000000D+00  7 -2 2 23 -13 13 23 21 2 0.67455673D-01 0.24604851D+00 0.61293503D+06 0.61293503D+06 0.61293503D+06 0.10623152D+01  1  2  6  2  7  2        2 0.634358431091D-03 0.100000000000D+01
0.211996985771D-05 0.000000000000D+00 0.000000000000D+00 0.824217534483D-06 0.000000000000D+00  7 -2 21 23 -13 13 23 -2 2 0.67455673D-01 0.30823999D+00 0.86102014D+06 0.86102014D+06 0.86102014D+06 0.10522175D+01  1  2 12  4  7  2        2 0.732480865031D-06 0.100000000000D+01
-.525892225229D-05 0.000000000000D+00 -.219004952280D-05 0.824217534483D-06 0.000000000000D+00  7 -2 21 23 -13 13 23 -2 2 0.67455673D-01 0.31691120D+00 0.61293503D+06 0.61293503D+06 0.61293503D+06 0.10623152D+01  1  2  5  4  7  2        2 -.168164757783D-05 0.100000000000D+01
  </mgrwgt>
  </event>
  <event>
  8     66 0.27870365E-05 0.15373704E+03 0.75467711E-02 0.10007481E+00
       -2 -1    0    0    0  501 0.00000000E+00 0.00000000E+00 0.32846390E+03 0.32846406E+03 0.32000000E+00 0.0000E+00 0.9000E+01
        2 -1    0    0  501    0 0.00000000E+00 0.00000000E+00 -.21613685E+03 0.21613709E+03 0.32000000E+00 0.0000E+00 0.9000E+01
       25  2    1    2    0    0 0.49955990E+01 0.49416591E+02 0.23461712E+03 0.38417338E+03 0.30012836E+03 0.0000E+00 0.0000E+00
       23  2    3    3    0    0 0.31649944E+02 0.64253059E+02 -.14790877E+02 0.11687172E+03 0.91159499E+02 0.0000E+00 0.0000E+00
       23  1    1    2    0    0 -.49955990E+01 -.49416591E+02 -.12229008E+03 0.16042777E+03 0.91188000E+02 0.0000E+00 0.9000E+01
      -13  1    4    4    0    0 -.19374349E+02 -.63340364E+01 0.14461730E+02 0.24992763E+02 0.10565837E+00 0.0000E+00 0.9000E+01
       13  1    4    4    0    0 0.51024293E+02 0.70587095E+02 -.29252606E+02 0.91878957E+02 0.10565837E+00 0.0000E+00 0.9000E+01
       23  1    3    3    0    0 -.26654345E+02 -.14836468E+02 0.24940800E+03 0.26730166E+03 0.91188000E+02 0.0000E+00 0.9000E+01
#aMCatNLO 1  0  0  2  1 0.23601839D+03 0.00000000D+00  -5  7  0 0.00000000D+00 0.00000000D+00 0.00000000D+00 0.00000000D+00 0.00000000D+00
  <mgrwgt>
 0.4203513153D-03    5    2    0
 0.266445607540506D+03 0.000000000000000D+00 0.000000000000000D+00 0.266445607540506D+03
 0.266445607540506D+03 0.000000000000000D+00 0.000000000000000D+00 -.266445607540506D+03
 0.189730341484554D+03 -.499559899918282D+01 -.494165913309678D+02 -.158793562929084D+03
 0.224934997074775D+02 -.193744433452510D+02 -.633413948036635D+01 0.951142214367625D+01
 0.100064136907610D+03 0.510243874079750D+02 0.705871983094402D+02 -.492624686706790D+02
 0.220603236981370D+03 -.266543450635411D+02 -.148364674981061D+02 0.198544609456087D+03
 0.000000000000000D+00 0.000000000000000D+00 0.000000000000000D+00 -.000000000000000D+00
 0.388839371055932D+03 0.000000000000000D+00 0.000000000000000D+00 0.388839371055932D+03
 0.434344542078495D+03 0.000000000000000D+00 0.000000000000000D+00 -.434344542078495D+03
 0.215547879645623D+03 -.875426919417364D+02 -.725707829336667D+02 -.158793562929084D+03
 0.336207225739935D+02 -.308037915820018D+02 -.954003455836583D+01 0.951142214367625D+01
 0.792369679253835D+02 0.145043273759369D+02 0.603434400233387D+02 -.492624686706790D+02
 0.254413205862433D+03 -.123405723282984D+03 -.419749150104512D+02 0.198544609456087D+03
 0.240365137126993D+03 0.227247879430785D+03 0.637422924791451D+02 -.455051710225633D+02
0.495885789799D-05 0.000000000000D+00 0.000000000000D+00 0.499805934257D-06 0.000000000000D+00  7 -2 2 23 -13 13 23 21 0 0.50532938D-01 0.33251854D-01 0.23635078D+05 0.23635078D+05 0.23635078D+05 0.11770685D+01  1  2  2  2  7  2        2 0.354247383901D-03 0.100000000000D+01
-.174194321711D-06 0.000000000000D+00 -.190433200256D-07 0.499805934257D-06 0.000000000000D+00  7 -2 2 23 -13 13 23 21 2 0.50532938D-01 0.33251854D-01 0.23635078D+05 0.23635078D+05 0.23635078D+05 0.11770685D+01  1  2  3  2  7  2        2 -.172409994802D-04 0.100000000000D+01
0.303334731418D-06 0.000000000000D+00 0.000000000000D+00 0.499805934257D-06 0.000000000000D+00  7 -2 2 23 -13 13 23 21 2 0.50532938D-01 0.33251854D-01 0.23635078D+05 0.23635078D+05 0.23635078D+05 0.11770685D+01  1  2 15  2  7  2        2 0.300227578909D-04 0.100000000000D+01
0.917043333533D-06 0.000000000000D+00 -.160705300871D-05 0.499805934257D-06 0.000000000000D+00  7 -2 2 23 -13 13 23 21 2 0.50532938D-01 0.75825207D-01 0.23635078D+05 0.23635078D+05 0.23635078D+05 0.11770685D+01  1  2  5  2  7  2        2 0.374269396120D-04 0.100000000000D+01
0.183860532531D-06 0.000000000000D+00 -.144039102398D-06 0.499805934257D-06 0.000000000000D+00  7 -2 21 23 -13 13 23 -2 2 0.50532938D-01 0.75825207D-01 0.23635078D+05 0.23635078D+05 0.23635078D+05 0.11770685D+01  1  2  5  4  7  2        2 0.158952333328D-04 0.100000000000D+01
  </mgrwgt>
  </event>
  <event>
  8     66 0.27870365E-05 0.23694125E+03 0.75467711E-02 0.98304260E-01
       -2 -1    0    0    0  501 0.00000000E+00 0.00000000E+00 0.13352079E+03 0.13352118E+03 0.32000000E+00 0.0000E+00 0.9000E+01
        2 -1    0    0  501    0 0.00000000E+00 0.00000000E+00 -.11112272E+04 0.11112272E+04 0.32000000E+00 0.0000E+00 0.9000E+01
       25  2    1    2    0    0 -.96925825E+02 -.29753535E+03 -.65906333E+03 0.78892985E+03 0.30020648E+03 0.0000E+00 0.0000E+00
       23  2    3    3    0    0 -.55063014E+02 -.21325733E+03 -.19815805E+03 0.30975951E+03 0.90408625E+02 0.0000E+00 0.0000E+00
       23  1    1    2    0    0 0.96925825E+02 0.29753535E+03 -.31864304E+03 0.45581854E+03 0.91188000E+02 0.0000E+00 0.9000E+01
      -11  1    4    4    0    0 -.75738669E+02 -.18627912E+03 -.15025873E+03 0.25102578E+03 0.51099893E-03 0.0000E+00 0.9000E+01
       11  1    4    4    0    0 0.20675655E+02 -.26978210E+02 -.47899322E+02 0.58733734E+02 0.51099893E-03 0.0000E+00 0.9000E+01
       23  1    3    3    0    0 -.41862810E+02 -.84278022E+02 -.46090528E+03 0.47917034E+03 0.91188000E+02 0.0000E+00 0.9000E+01
#aMCatNLO 1  0  0  1  2 0.38004972D+02 0.00000000D+00  -5  7  0 0.00000000D+00 0.00000000D+00 0.00000000D+00 0.00000000D+00 0.00000000D+00
  <mgrwgt>
 0.3631464016D-03    9    2    0
 0.385191122461753D+03 0.000000000000000D+00 0.000000000000000D+00 0.385191122461753D+03
 0.385191122461753D+03 0.000000000000000D+00 0.000000000000000D+00 -.385191122461753D+03
 0.332094960843725D+03 0.969258245927333D+02 0.297535353023091D+03 0.636389024279869D+02
 0.214899838819206D+03 -.757386693429879D+02 -.186279121736933D+03 0.758002869096874D+02
 0.341093647544938D+02 0.206756551826337D+02 -.269782096230337D+02 -.285346320452737D+01
 0.189278080506080D+03 -.418628104323791D+02 -.842780216631236D+02 -.136585726133147D+03
 0.000000000000000D+00 -.000000000000000D+00 0.000000000000000D+00 0.000000000000000D+00
 0.411251482151819D+03 0.000000000000000D+00 0.000000000000000D+00 0.411251482151819D+03
 0.399769263119541D+03 0.000000000000000D+00 0.000000000000000D+00 -.399769263119541D+03
 0.325085695062566D+03 0.108027582845270D+03 0.285736923117543D+03 0.636389024279869D+02
 0.219293360001584D+03 -.684038400462300D+02 -.194074235570112D+03 0.758002869096874D+02
 0.358190924129409D+02 0.218569571875978D+02 -.282336421937859D+02 -.285346320452737D+01
 0.191120970125367D+03 -.354367261256508D+02 -.911073637849219D+02 -.136585726133147D+03
 0.397016276689018D+02 -.260439738609871D+02 0.276783184312760D+02 0.114822190322784D+02
0.524283830499D-05 0.000000000000D+00 0.000000000000D+00 0.512736660313D-06 0.000000000000D+00  7 -2 2 23 -11 11 23 21 0 0.20541694D-01 0.17095806D+00 0.11973478D+06 0.11973478D+06 0.11973478D+06 0.11153591D+01  1  2  2  1  7  1       -2 0.273930510453D-03 0.100000000000D+01
-.287197366599D-06 0.000000000000D+00 -.201338795622D-07 0.512736660313D-06 0.000000000000D+00  7 -2 2 23 -11 11 23 21 2 0.20541694D-01 0.17095806D+00 0.11973478D+06 0.11973478D+06 0.11973478D+06 0.11153591D+01  1  2  3  1  7  1       -2 -.186674005805D-04 0.100000000000D+01
0.331269636542D-06 0.000000000000D+00 0.000000000000D+00 0.512736660313D-06 0.000000000000D+00  7 -2 2 23 -11 11 23 21 2 0.20541694D-01 0.17095806D+00 0.11973478D+06 0.11973478D+06 0.11973478D+06 0.11153591D+01  1  2 15  1  7  1       -2 0.215320324093D-04 0.100000000000D+01
0.115311593338D-04 0.000000000000D+00 0.000000000000D+00 0.512736660313D-06 0.000000000000D+00  7 -2 2 23 -11 11 23 21 2 0.22299388D-01 0.17095806D+00 0.13394391D+06 0.13394391D+06 0.13394391D+06 0.11114530D+01  1  2 12  1  7  1       -2 0.647600702140D-03 0.100000000000D+01
-.105687383618D-04 0.000000000000D+00 0.000000000000D+00 0.512736660313D-06 0.000000000000D+00  7 -2 2 23 -11 11 23 21 2 0.20541694D-01 0.17095806D+00 0.11973478D+06 0.11973478D+06 0.11973478D+06 0.11153591D+01  1  2  4  1  7  1       -2 -.686952234161D-03 0.100000000000D+01
-.352412312881D-04 0.000000000000D+00 -.700720949163D-05 0.512736660313D-06 0.000000000000D+00  7 -2 2 23 -11 11 23 21 2 0.22752398D-01 0.17095806D+00 0.11973478D+06 0.11973478D+06 0.11973478D+06 0.11153591D+01  1  2  5  1  7  1       -2 -.193040107646D-02 0.100000000000D+01
0.358066999390D-04 0.000000000000D+00 0.697076362338D-05 0.512736660313D-06 0.000000000000D+00  7 -2 2 23 -11 11 23 21 2 0.20541694D-01 0.17095806D+00 0.11973478D+06 0.11973478D+06 0.11973478D+06 0.11153591D+01  1  2  6  1  7  1       -2 0.232738210361D-02 0.100000000000D+01
0.157708088499D-06 0.000000000000D+00 0.000000000000D+00 0.512736660313D-06 0.000000000000D+00  7 21 2 23 -11 11 23 2 2 0.22299388D-01 0.17095806D+00 0.13394391D+06 0.13394391D+06 0.13394391D+06 0.11114530D+01  1  2 12  3  7  1       -2 0.110515785664D-03 0.100000000000D+01
-.559237321329D-06 0.000000000000D+00 -.115983272307D-06 0.512736660313D-06 0.000000000000D+00  7 21 2 23 -11 11 23 2 2 0.22752398D-01 0.17095806D+00 0.11973478D+06 0.11973478D+06 0.11973478D+06 0.11153591D+01  1  2  5  3  7  1       -2 -.381794021454D-03 0.100000000000D+01
  </mgrwgt>
  </event>
  <event>
  8     66 0.27870365E-05 0.39638297E+03 0.75467711E-02 0.88909058E-01
       -2 -1    0    0    0  501 0.00000000E+00 0.00000000E+00 0.22063296E+03 0.22063320E+03 0.32000000E+00 0.0000E+00 0.9000E+01
        2 -1    0    0  501    0 0.00000000E+00 0.00000000E+00 -.87410362E+03 0.87410368E+03 0.32000000E+00 0.0000E+00 0.9000E+01
       25  2    1    2    0    0 -.20681258E+03 -.30085290E+03 -.50211581E+03 0.68914169E+03 0.29918569E+03 0.0000E+00 0.0000E+00
       23  2    3    3    0    0 -.13672624E+02 0.79273831E+00 -.16410255E+03 0.18828109E+03 0.91282812E+02 0.0000E+00 0.0000E+00
       23  1    1    2    0    0 0.20681258E+03 0.30085290E+03 -.15135485E+03 0.40559518E+03 0.91188000E+02 0.0000E+00 0.9000E+01
      -13  1    4    4    0    0 -.23258986E+02 -.15506515E+02 -.16684764E+03 0.16917322E+03 0.10565837E+00 0.0000E+00 0.9000E+01
       13  1    4    4    0    0 0.95863615E+01 0.16299253E+02 0.27450874E+01 0.19107869E+02 0.10565837E+00 0.0000E+00 0.9000E+01
       23  1    3    3    0    0 -.19313995E+03 -.30164564E+03 -.33801325E+03 0.50086060E+03 0.91188000E+02 0.0000E+00 0.9000E+01
#aMCatNLO 1  0  0  1  2 0.66454291D+03 0.00000000D+00  -5  7  0 0.00000000D+00 0.00000000D+00 0.00000000D+00 0.00000000D+00 0.00000000D+00
  <mgrwgt>
 0.5146297257D-03    3    2    0
 0.439153995642363D+03 0.000000000000000D+00 0.000000000000000D+00 0.439153995642363D+03
 0.439153995642363D+03 0.000000000000000D+00 0.000000000000000D+00 -.439153995642363D+03
 0.392930558526482D+03 0.206812575470409D+03 0.300852902255104D+03 0.113116145230954D+03
 0.867237893459734D+02 -.232590296872678D+02 -.155065576707279D+02 -.820949440936283D+02
 0.258586411933903D+02 0.958640545328596D+01 0.162992960588382D+02 0.176381150591568D+02
 0.372795002218879D+03 -.193139951236428D+03 -.301645640643215D+03 -.486593161964827D+02
 0.000000000000000D+00 0.000000000000000D+00 -.000000000000000D+00 -.000000000000000D+00
 0.633183017154513D+03 0.000000000000000D+00 0.000000000000000D+00 0.633183017154513D+03
 0.188905426796660D+04 0.000000000000000D+00 0.000000000000000D+00 -.188905426796660D+04
 0.547444534757227D+03 -.127420278867196D+02 0.527657697475343D+03 0.113116145230954D+03
 0.112560288425190D+03 -.697869917344704D+02 0.325578634016266D+02 -.820949440936283D+02
 0.362421614987120D+02 -.491261435338853D+01 0.312771064434284D+02 0.176381150591568D+02
 0.405134967795764D+03 -.374767588150732D+03 -.114020246473373D+03 -.486593161964827D+02
 0.142085533264422D+04 0.462209222125310D+03 -.477472420847025D+03 -.125587125081209D+04
0.166802928590D-04 0.000000000000D+00 0.000000000000D+00 0.245452914182D-06 0.000000000000D+00  7 -2 2 23 -13 13 23 21 0 0.33943555D-01 0.13447750D+00 0.15711946D+06 0.15711946D+06 0.15711946D+06 0.11059662D+01  1  2  2  1  7  1       -2 0.509723082521D-03 0.100000000000D+01
-.914852518584D-06 0.000000000000D+00 -.640567166005D-07 0.245452914182D-06 0.000000000000D+00  7 -2 2 23 -13 13 23 21 2 0.33943555D-01 0.13447750D+00 0.15711946D+06 0.15711946D+06 0.15711946D+06 0.11059662D+01  1  2  3  1  7  1       -2 -.341952198024D-04 0.100000000000D+01
0.104612393378D-05 0.000000000000D+00 0.000000000000D+00 0.245452914182D-06 0.000000000000D+00  7 -2 2 23 -13 13 23 21 2 0.33943555D-01 0.13447750D+00 0.15711946D+06 0.15711946D+06 0.15711946D+06 0.11059662D+01  1  2 15  1  7  1       -2 0.391018630100D-04 0.100000000000D+01
  </mgrwgt>
  </event>
  <event>
  8     66 0.27870365E-05 0.17282301E+03 0.75467711E-02 0.10141246E+00
       -2 -1    0    0    0  501 0.00000000E+00 0.00000000E+00 0.10765326E+03 0.10765374E+03 0.32000000E+00 0.0000E+00 0.9000E+01
        2 -1    0    0  501    0 0.00000000E+00 0.00000000E+00 -.73431469E+03 0.73431475E+03 0.32000000E+00 0.0000E+00 0.9000E+01
       25  2    1    2    0    0 -.16191101E+03 -.63134536E+02 -.49928788E+03 0.60800180E+03 0.30029428E+03 0.0000E+00 0.0000E+00
       23  2    3    3    0    0 -.82333051E+02 0.52852146E+02 -.37130626E+03 0.39709872E+03 0.10122734E+03 0.0000E+00 0.0000E+00
       23  1    1    2    0    0 0.16191101E+03 0.63134536E+02 -.12737354E+03 0.23396670E+03 0.91188000E+02 0.0000E+00 0.9000E+01
      -11  1    4    4    0    0 -.15301936E+02 0.63086371E+02 -.24824752E+03 0.25659476E+03 0.51099893E-03 0.0000E+00 0.9000E+01
       11  1    4    4    0    0 -.67031115E+02 -.10234225E+02 -.12305873E+03 0.14050396E+03 0.51099893E-03 0.0000E+00 0.9000E+01
       23  1    3    3    0    0 -.79577957E+02 -.11598668E+03 -.12798163E+03 0.21090308E+03 0.91188000E+02 0.0000E+00 0.9000E+01
#aMCatNLO 1  0  0  1  2 0.71761724D+02 0.00000000D+00  -5  7  0 0.00000000D+00 0.00000000D+00 0.00000000D+00 0.00000000D+00 0.00000000D+00
  <mgrwgt>
 0.4058582560D-03    9    2    0
 0.281161166893786D+03 0.000000000000000D+00 0.000000000000000D+00 0.281161166893786D+03
 0.281161166893786D+03 0.000000000000000D+00 0.000000000000000D+00 -.281161166893786D+03
 0.208372484601707D+03 0.161911008155199D+03 0.631345362445906D+02 0.700192599677846D+02
 0.107549631248427D+03 -.153019359470958D+02 0.630863709956564D+02 -.857489576178166D+02
 0.732386761062165D+02 -.670311148850082D+02 -.102342243652676D+02 -.276765960100854D+02
 0.173161541831221D+03 -.795779573230949D+02 -.115986682874979D+03 0.434062936601173D+02
 0.000000000000000D+00 -.000000000000000D+00 -.000000000000000D+00 0.000000000000000D+00
 0.370787424805012D+03 0.000000000000000D+00 0.000000000000000D+00 0.370787424805012D+03
 0.298180916721239D+03 0.000000000000000D+00 0.000000000000000D+00 -.298180916721239D+03
 0.230898644649638D+03 0.189820101821391D+03 0.637539405458243D+02 0.700192599677846D+02
 0.106648204474412D+03 -.169287525040750D+01 0.633884055522816D+02 -.857489576178166D+02
 0.652514877613396D+02 -.582321415452094D+02 -.100389431426562D+02 -.276765960100854D+02
 0.164084501168018D+03 -.581510280854284D+02 -.115511141379767D+03 0.434062936601173D+02
 0.102085503472843D+03 -.717440569403458D+02 -.159226157568260D+01 0.726065080837727D+02
0.256205963986D-05 0.000000000000D+00 0.000000000000D+00 0.412444793826D-08 0.000000000000D+00  7 -2 2 23 -11 11 23 21 0 0.16562082D-01 0.11297153D+00 0.61655978D+05 0.61655978D+05 0.61655978D+05 0.11393756D+01  1  2  2  1  7  1       -2 0.332262866026D-03 0.100000000000D+01
-.139664267464D-06 0.000000000000D+00 -.983898362286D-08 0.412444793826D-08 0.000000000000D+00  7 -2 2 23 -11 11 23 21 2 0.16562082D-01 0.11297153D+00 0.61655978D+05 0.61655978D+05 0.61655978D+05 0.11393756D+01  1  2  3  1  7  1       -2 -.235131991945D-04 0.100000000000D+01
0.164350887347D-06 0.000000000000D+00 0.000000000000D+00 0.412444793826D-08 0.000000000000D+00  7 -2 2 23 -11 11 23 21 2 0.16562082D-01 0.11297153D+00 0.61655978D+05 0.61655978D+05 0.61655978D+05 0.11393756D+01  1  2 15  1  7  1       -2 0.276693188756D-04 0.100000000000D+01
0.353468971590D-05 0.000000000000D+00 0.000000000000D+00 0.412444793826D-08 0.000000000000D+00  7 -2 2 23 -11 11 23 21 2 0.22224025D-01 0.11297153D+00 0.81947390D+05 0.81947390D+05 0.81947390D+05 0.11288873D+01  1  2 12  1  7  1       -2 0.360688307708D-03 0.100000000000D+01
-.376250313871D-05 0.000000000000D+00 0.000000000000D+00 0.412444793826D-08 0.000000000000D+00  7 -2 2 23 -11 11 23 21 2 0.16562082D-01 0.11297153D+00 0.61655978D+05 0.61655978D+05 0.61655978D+05 0.11393756D+01  1  2  4  1  7  1       -2 -.633436793654D-03 0.100000000000D+01
-.511149857189D-05 0.000000000000D+00 -.124744063977D-05 0.412444793826D-08 0.000000000000D+00  7 -2 2 23 -11 11 23 21 2 0.23036234D-01 0.11297153D+00 0.61655978D+05 0.61655978D+05 0.61655978D+05 0.11393756D+01  1  2  5  1  7  1       -2 -.501073124773D-03 0.100000000000D+01
0.529708023084D-05 0.000000000000D+00 0.118248669510D-05 0.412444793826D-08 0.000000000000D+00  7 -2 2 23 -11 11 23 21 2 0.16562082D-01 0.11297153D+00 0.61655978D+05 0.61655978D+05 0.61655978D+05 0.11393756D+01  1  2  6  1  7  1       -2 0.891790755634D-03 0.100000000000D+01
0.134672132305D-06 0.000000000000D+00 0.000000000000D+00 0.412444793826D-08 0.000000000000D+00  7 21 2 23 -11 11 23 2 2 0.22224025D-01 0.11297153D+00 0.81947390D+05 0.81947390D+05 0.81947390D+05 0.11288873D+01  1  2 12  3  7  1       -2 0.173682870204D-03 0.100000000000D+01
-.179284596327D-06 0.000000000000D+00 -.516449645886D-07 0.412444793826D-08 0.000000000000D+00  7 21 2 23 -11 11 23 2 2 0.23036234D-01 0.11297153D+00 0.61655978D+05 0.61655978D+05 0.61655978D+05 0.11393756D+01  1  2  5  3  7  1       -2 -.222212744838D-03 0.100000000000D+01
  </mgrwgt>
  </event>
  <event>
  8     66 0.27870365E-05 0.22223298E+03 0.75467711E-02 0.10138624E+00
       -2 -1    0    0    0  501 0.00000000E+00 0.00000000E+00 0.17836052E+04 0.17836052E+04 0.32000000E+00 0.0000E+00 0.9000E+01
        2 -1    0    0  501    0 0.00000000E+00 0.00000000E+00 -.47647244E+02 0.47648319E+02 0.32000000E+00 0.0000E+00 0.9000E+01
       25  2    1    2    0    0 -.29700828E+02 -.10887153E+03 0.55240345E+03 0.63883933E+03 0.30038470E+03 0.0000E+00 0.0000E+00
       23  2    3    3    0    0 0.88854190E+02 0.11766874E+02 0.25907480E+03 0.28817444E+03 0.88832592E+02 0.0000E+00 0.0000E+00
       23  1    1    2    0    0 0.29700828E+02 0.10887153E+03 0.11835545E+04 0.11924142E+04 0.91188000E+02 0.0000E+00 0.9000E+01
      -11  1    4    4    0    0 0.58707528E+02 0.35717530E+02 0.82120838E+02 0.10708010E+03 0.51099893E-03 0.0000E+00 0.9000E+01
       11  1    4    4    0    0 0.30146662E+02 -.23950656E+02 0.17695396E+03 0.18109434E+03 0.51099893E-03 0.0000E+00 0.9000E+01
       23  1    3    3    0    0 -.11855502E+03 -.12063840E+03 0.29332865E+03 0.35066489E+03 0.91188000E+02 0.0000E+00 0.9000E+01
#aMCatNLO 1  0  0  1  1 0.11120352D+03 0.00000000D+00  -5  7  0 0.00000000D+00 0.00000000D+00 0.00000000D+00 0.00000000D+00 0.00000000D+00
  <mgrwgt>
 0.3202007811D-03    3    2    0
 0.291521664140711D+03 0.000000000000000D+00 0.000000000000000D+00 0.291521664140711D+03
 0.291521664140711D+03 0.000000000000000D+00 0.000000000000000D+00 -.291521664140711D+03
 0.221273268855495D+03 0.297008284412209D+02 0.108871526425782D+03 0.167067231046730D+03
 0.918156291116549D+02 0.587075279433984D+02 0.357175299652340D+02 -.608916575987768D+02
 0.419265812711645D+02 0.301466617431551D+02 -.239506561836474D+02 0.165946699636982D+02
 0.228027849043108D+03 -.118555018127774D+03 -.120638400207369D+03 -.122770243411652D+03
 0.000000000000000D+00 -.000000000000000D+00 -.000000000000000D+00 -.000000000000000D+00
 0.306861670335655D+03 0.000000000000000D+00 0.000000000000000D+00 0.306861670335655D+03
 0.603328940247833D+03 0.000000000000000D+00 0.000000000000000D+00 -.603328940247833D+03
 0.242818764606851D+03 0.635968612985690D+02 0.136710206804563D+03 0.167067231046730D+03
 0.106447379154403D+03 0.731881243726156D+02 0.476103876746784D+02 -.608916575987768D+02
 0.442264481405405D+02 0.364390471002422D+02 -.187827444839721D+02 0.165946699636982D+02
 0.200060898737918D+03 -.872885683410988D+02 -.949593862102552D+02 -.122770243411652D+03
 0.316637119943776D+03 -.859354644303280D+02 -.705784637850144D+02 -.296467269912178D+03
0.586677360996D-04 0.000000000000D+00 0.000000000000D+00 0.628043449835D-07 0.000000000000D+00  7 -2 2 23 -11 11 23 21 0 0.27440088D+00 0.73304301D-02 0.49387496D+05 0.49387496D+05 0.49387496D+05 0.11477665D+01  1  2  2  1  7  1       -2 0.315286977451D-03 0.100000000000D+01
-.296744847029D-05 0.000000000000D+00 -.225299554192D-06 0.628043449835D-07 0.000000000000D+00  7 -2 2 23 -11 11 23 21 2 0.27440088D+00 0.73304301D-02 0.49387496D+05 0.49387496D+05 0.49387496D+05 0.11477665D+01  1  2  3  1  7  1       -2 -.210085947618D-04 0.100000000000D+01
0.366151959401D-05 0.000000000000D+00 0.000000000000D+00 0.628043449835D-07 0.000000000000D+00  7 -2 2 23 -11 11 23 21 2 0.27440088D+00 0.73304301D-02 0.49387496D+05 0.49387496D+05 0.49387496D+05 0.11477665D+01  1  2 15  1  7  1       -2 0.259223983611D-04 0.100000000000D+01
  </mgrwgt>
  </event>
  <event>
  8     66 0.27870365E-05 0.17861440E+03 0.75467711E-02 0.10192200E+00
       -2 -1    0    0    0  501 0.00000000E+00 0.00000000E+00 0.19257076E+03 0.19257102E+03 0.32000000E+00 0.0000E+00 0.9000E+01
        2 -1    0    0  501    0 0.00000000E+00 0.00000000E+00 -.15619728E+04 0.15619728E+04 0.32000000E+00 0.0000E+00 0.9000E+01
       25  2    1    2    0    0 0.72778618E+02 -.13053751E+03 0.37011052E+02 0.33727542E+03 0.30008020E+03 0.0000E+00 0.0000E+00
       23  2    3    3    0    0 -.29830185E+02 0.36993634E+02 0.52325577E+02 0.12014634E+03 0.97153533E+02 0.0000E+00 0.0000E+00
       23  1    1    2    0    0 -.72778618E+02 0.13053751E+03 -.14064131E+04 0.14172684E+04 0.91188000E+02 0.0000E+00 0.9000E+01
      -11  1    4    4    0    0 -.19185472E+02 -.25116409E+02 0.47357120E+02 0.56935166E+02 0.51099893E-03 0.0000E+00 0.9000E+01
       11  1    4    4    0    0 -.10644714E+02 0.62110043E+02 0.49684568E+01 0.63211177E+02 0.51099893E-03 0.0000E+00 0.9000E+01
       23  1    3    3    0    0 0.10260880E+03 -.16753115E+03 -.15314525E+02 0.21712908E+03 0.91188000E+02 0.0000E+00 0.9000E+01
#aMCatNLO 1  0  0  2  1 0.60030717D+02 0.00000000D+00  -5  7  0 0.00000000D+00 0.00000000D+00 0.00000000D+00 0.00000000D+00 0.00000000D+00
  <mgrwgt>
 0.5870992467D-03    6    2    0
 0.548443744973344D+03 0.000000000000000D+00 0.000000000000000D+00 0.548443744973344D+03
 0.548443744973344D+03 0.000000000000000D+00 0.000000000000000D+00 -.548443744973344D+03
 0.511187019361656D+03 -.727786176828092D+02 0.130537512122891D+03 -.480270911212411D+03
 0.150194236770855D+03 -.191854715512007D+02 -.251164094001555D+02 0.146831169781425D+03
 0.107313280803170D+03 -.106447136618095D+02 0.621100429931526D+02 0.868629545156438D+02
 0.328192953011008D+03 0.102608802895819D+03 -.167531145715888D+03 0.246576786915343D+03
 0.000000000000000D+00 -.000000000000000D+00 -.000000000000000D+00 0.000000000000000D+00
 0.583589884932145D+03 0.000000000000000D+00 0.000000000000000D+00 0.583589884932145D+03
 0.575510971068161D+03 0.000000000000000D+00 0.000000000000000D+00 -.575510971068161D+03
 0.516802120413093D+03 -.611259876085209D+02 0.156117410308882D+03 -.480270911212411D+03
 0.148732823741567D+03 -.157970248054414D+02 -.176780781210713D+02 0.146831169781425D+03
 0.110325702889094D+03 -.817769677555555D+01 0.675256479142032D+02 0.868629545156438D+02
 0.322668302335391D+03 0.109986551497230D+03 -.151335483718315D+03 0.246576786915343D+03
 0.605719066211603D+02 -.248858423077121D+02 -.546294963836990D+02 0.807891386398374D+01
0.283041036059D-04 0.000000000000D+00 0.000000000000D+00 0.112218908635D-06 0.000000000000D+00  7 -2 2 23 -11 11 23 21 0 0.29626293D-01 0.24030353D+00 0.59118703D+05 0.59118703D+05 0.59118703D+05 0.11409504D+01  1  2  2  2  7  2        2 0.455063976434D-03 0.100000000000D+01
-.307415595703D-06 0.000000000000D+00 -.108695210488D-06 0.112218908635D-06 0.000000000000D+00  7 -2 2 23 -11 11 23 21 2 0.29626293D-01 0.24030353D+00 0.59118703D+05 0.59118703D+05 0.59118703D+05 0.11409504D+01  1  2  3  2  7  2        2 -.643402063513D-05 0.100000000000D+01
0.168437421071D-05 0.000000000000D+00 0.000000000000D+00 0.112218908635D-06 0.000000000000D+00  7 -2 2 23 -11 11 23 21 2 0.29626293D-01 0.24030353D+00 0.59118703D+05 0.59118703D+05 0.59118703D+05 0.11409504D+01  1  2 15  2  7  2        2 0.352529233404D-04 0.100000000000D+01
0.409775000037D-04 0.000000000000D+00 0.000000000000D+00 0.112218908635D-06 0.000000000000D+00  7 -2 2 23 -11 11 23 21 2 0.29626293D-01 0.25944452D+00 0.75826136D+05 0.75826136D+05 0.75826136D+05 0.11317198D+01  1  2 12  2  7  2        2 0.718497982740D-03 0.100000000000D+01
-.295310908143D-04 0.000000000000D+00 0.000000000000D+00 0.112218908635D-06 0.000000000000D+00  7 -2 2 23 -11 11 23 21 2 0.29626293D-01 0.24030353D+00 0.59118703D+05 0.59118703D+05 0.59118703D+05 0.11409504D+01  1  2  4  2  7  2        2 -.618067691856D-03 0.100000000000D+01
0.526811050440D-06 0.000000000000D+00 0.000000000000D+00 0.112218908635D-06 0.000000000000D+00  7 -2 21 23 -11 11 23 -2 2 0.29626293D-01 0.25944452D+00 0.75826136D+05 0.75826136D+05 0.75826136D+05 0.11317198D+01  1  2 12  4  7  2        2 0.278607669206D-05 0.100000000000D+01
  </mgrwgt>
  </event>
  <event>
  8     66 0.27870365E-05 0.20600089E+03 0.75467711E-02 0.88901789E-01
       -2 -1    0    0    0  501 0.00000000E+00 0.00000000E+00 0.71618383E+02 0.71619098E+02 0.32000000E+00 0.0000E+00 0.9000E+01
        2 -1    0    0  501    0 0.00000000E+00 0.00000000E+00 -.14544529E+04 0.14544530E+04 0.32000000E+00 0.0000E+00 0.9000E+01
       25  2    1    2    0    0 0.80442149E+02 0.60027990E+02 -.30437253E+03 0.43911766E+03 0.30017892E+03 0.0000E+00 0.0000E+00
       23  2    3    3    0    0 -.21926434E+02 -.47859456E+02 -.21065036E+03 0.24108199E+03 0.10476477E+03 0.0000E+00 0.0000E+00
       23  1    1    2    0    0 -.80442149E+02 -.60027990E+02 -.10784620E+04 0.10869544E+04 0.91188000E+02 0.0000E+00 0.9000E+01
      -11  1    4    4    0    0 -.33908311E+02 0.15624308E+02 -.26107698E+02 0.45557705E+02 0.51099893E-03 0.0000E+00 0.9000E+01
       11  1    4    4    0    0 0.11981878E+02 -.63483765E+02 -.18454266E+03 0.19552429E+03 0.51099893E-03 0.0000E+00 0.9000E+01
       23  1    3    3    0    0 0.10236858E+03 0.10788745E+03 -.93722165E+02 0.19803566E+03 0.91188000E+02 0.0000E+00 0.9000E+01
#aMCatNLO 1  0  0  2  1 0.81959028D+03 0.00000000D+00  -5  7  0 0.00000000D+00 0.00000000D+00 0.00000000D+00 0.00000000D+00 0.00000000D+00
  <mgrwgt>
 0.5055565300D-03    5    2    0
 0.322747795967408D+03 0.000000000000000D+00 0.000000000000000D+00 0.322747795967408D+03
 0.322747795967408D+03 0.000000000000000D+00 0.000000000000000D+00 -.322747795967408D+03
 0.259391722745991D+03 -.804421485104071D+02 -.600279901809375D+02 -.221121042922196D+03
 0.517768274579553D+02 -.339083112987103D+02 0.156243080666376D+02 0.358740474984275D+02
 0.669132188797769D+02 0.119818772616458D+02 -.634837647037320D+02 -.174248413818026D+02
 0.267413822851094D+03 0.102368582547472D+03 0.107887446818032D+03 0.202671836805571D+03
 0.000000000000000D+00 -.000000000000000D+00 -.000000000000000D+00 -.000000000000000D+00
 0.886569587192950D+03 0.000000000000000D+00 0.000000000000000D+00 0.886569587192950D+03
 0.981794718915298D+03 0.000000000000000D+00 0.000000000000000D+00 -.981794718915298D+03
 0.295332513964882D+03 0.167019285672338D+03 0.460009244615758D+02 -.221121042922196D+03
 0.519216077597711D+02 0.123513647768097D+02 0.354450258370659D+02 0.358740474984275D+02
 0.903845713070030D+02 0.821521243454868D+02 -.334181701876899D+02 -.174248413818026D+02
 0.605621955089833D+03 0.491828194016933D+03 0.274757812043133D+03 0.202671836805571D+03
 0.825103657986758D+03 -.753350968811568D+03 -.322785592154085D+03 -.952251317223478D+02
0.535443797251D-05 0.000000000000D+00 0.000000000000D+00 0.570395894917D-08 0.000000000000D+00  7 -2 2 23 -11 11 23 21 0 0.11018270D-01 0.22376205D+00 0.42436366D+05 0.42436366D+05 0.42436366D+05 0.11536141D+01  1  2  2  2  7  2        2 0.493732445456D-03 0.100000000000D+01
-.224557008693D-06 0.000000000000D+00 -.205624516703D-07 0.570395894917D-08 0.000000000000D+00  7 -2 2 23 -11 11 23 21 2 0.11018270D-01 0.22376205D+00 0.42436366D+05 0.42436366D+05 0.42436366D+05 0.11536141D+01  1  2  3  2  7  2        2 -.275565922716D-04 0.100000000000D+01
0.317820530585D-06 0.000000000000D+00 0.000000000000D+00 0.570395894917D-08 0.000000000000D+00  7 -2 2 23 -11 11 23 21 2 0.11018270D-01 0.22376205D+00 0.42436366D+05 0.42436366D+05 0.42436366D+05 0.11536141D+01  1  2 15  2  7  2        2 0.390014581502D-04 0.100000000000D+01
0.255822435798D-05 0.000000000000D+00 -.154973601695D-05 0.570395894917D-08 0.000000000000D+00  7 -2 2 23 -11 11 23 21 2 0.11018270D-01 0.81089329D+00 0.42436366D+05 0.42436366D+05 0.42436366D+05 0.11536141D+01  1  2  5  2  7  2        2 0.378888856899D-06 0.100000000000D+01
0.429415944297D-06 0.000000000000D+00 -.234763693061D-06 0.570395894917D-08 0.000000000000D+00  7 -2 21 23 -11 11 23 -2 2 0.11018270D-01 0.81089329D+00 0.42436366D+05 0.42436366D+05 0.42436366D+05 0.11536141D+01  1  2  5  4  7  2        2 0.329808213985D-09 0.100000000000D+01
  </mgrwgt>
  </event>
  <event>
  8     66 0.27870365E-05 0.32779283E+03 0.75467711E-02 0.91573440E-01
       -2 -1    0    0    0  501 0.00000000E+00 0.00000000E+00 0.11023035E+03 0.11023082E+03 0.32000000E+00 0.0000E+00 0.9000E+01
        2 -1    0    0  501    0 0.00000000E+00 0.00000000E+00 -.23777799E+04 0.23777799E+04 0.32000000E+00 0.0000E+00 0.9000E+01
       25  2    1    2    0    0 -.31647986E+02 0.43485490E+03 -.84415091E+03 0.99654190E+03 0.30067358E+03 0.0000E+00 0.0000E+00
       23  2    3    3    0    0 0.10981737E+02 0.29208698E+03 -.71959006E+03 0.78199439E+03 0.90939409E+02 0.0000E+00 0.0000E+00
       23  1    1    2    0    0 0.31647986E+02 -.43485490E+03 -.14233986E+04 0.14914689E+04 0.91188000E+02 0.0000E+00 0.9000E+01
      -11  1    4    4    0    0 0.71718884E+01 0.11090691E+03 -.16831477E+03 0.20169690E+03 0.51099893E-03 0.0000E+00 0.9000E+01
       11  1    4    4    0    0 0.38098485E+01 0.18118006E+03 -.55127529E+03 0.58029749E+03 0.51099893E-03 0.0000E+00 0.9000E+01
       23  1    3    3    0    0 -.42629723E+02 0.14276793E+03 -.12456086E+03 0.21454751E+03 0.91188000E+02 0.0000E+00 0.9000E+01
#aMCatNLO 1  0  0  2  1 0.35686050D+03 0.00000000D+00  -5  7  0 0.00000000D+00 0.00000000D+00 0.00000000D+00 0.00000000D+00 0.00000000D+00
  <mgrwgt>
 0.5289596212D-03    8    2    0
 0.511961052819006D+03 0.000000000000000D+00 0.000000000000000D+00 0.511961052819006D+03
 0.511961052819006D+03 0.000000000000000D+00 0.000000000000000D+00 -.511961052819006D+03
 0.471875311697876D+03 0.316479857353048D+02 -.434854902300953D+03 -.155726289976016D+03
 0.117354614389766D+03 0.717188843011632D+01 0.110906913731163D+03 0.376872129713135D+02
 0.189215905180707D+03 0.380984854816121D+01 0.181180063001190D+03 -.544236033195113D+02
 0.245476274369664D+03 -.426297227135824D+02 0.142767925568601D+03 0.172462680324214D+03
 0.000000000000000D+00 0.000000000000000D+00 0.000000000000000D+00 -.000000000000000D+00
 0.663112643719732D+03 0.000000000000000D+00 0.000000000000000D+00 0.663112643719732D+03
 0.805393387584486D+03 0.000000000000000D+00 0.000000000000000D+00 -.805393387584486D+03
 0.628508820120539D+03 -.554759405042228D+02 -.599482967448442D+03 -.155726289976016D+03
 0.889442967792586D+02 -.916201770344739D+01 0.800426095252610D+02 0.376872129713135D+02
 0.143945747318448D+03 -.225685318726912D+02 0.131335870735677D+03 -.544236033195113D+02
 0.222928528529314D+03 -.797161040216920D+02 0.726900553255802D+02 0.172462680324214D+03
 0.384178638556658D+03 0.166922594102053D+03 0.315414431861924D+03 -.142280743864753D+03
0.237365360805D-04 0.000000000000D+00 0.000000000000D+00 0.596189443639D-06 0.000000000000D+00  7 -2 2 23 -11 11 23 21 0 0.16958553D-01 0.36581233D+00 0.20815651D+06 0.20815651D+06 0.20815651D+06 0.10964946D+01  1  2  2  2  7  2        2 0.336602319662D-03 0.100000000000D+01
-.129740889741D-05 0.000000000000D+00 -.911545485227D-07 0.596189443639D-06 0.000000000000D+00  7 -2 2 23 -11 11 23 21 2 0.16958553D-01 0.36581233D+00 0.20815651D+06 0.20815651D+06 0.20815651D+06 0.10964946D+01  1  2  3  2  7  2        2 -.221202284779D-04 0.100000000000D+01
0.146101075330D-05 0.000000000000D+00 0.000000000000D+00 0.596189443639D-06 0.000000000000D+00  7 -2 2 23 -11 11 23 21 2 0.16958553D-01 0.36581233D+00 0.20815651D+06 0.20815651D+06 0.20815651D+06 0.10964946D+01  1  2 15  2  7  2        2 0.249095653160D-04 0.100000000000D+01
0.795740502668D-06 0.000000000000D+00 0.000000000000D+00 0.596189443639D-06 0.000000000000D+00  7 -2 2 23 -11 11 23 21 2 0.16958553D-01 0.60452662D+00 0.43616474D+06 0.43616474D+06 0.43616474D+06 0.10727282D+01  1  2 12  2  7  2        2 0.115907252208D-05 0.100000000000D+01
-.977650402044D-05 0.000000000000D+00 -.588457852328D-05 0.596189443639D-06 0.000000000000D+00  7 -2 2 23 -11 11 23 21 2 0.16958553D-01 0.61177871D+00 0.20815651D+06 0.20815651D+06 0.20815651D+06 0.10964946D+01  1  2  5  2  7  2        2 -.143962721663D-04 0.100000000000D+01
0.118954695619D-04 0.000000000000D+00 0.518389059428D-05 0.596189443639D-06 0.000000000000D+00  7 -2 2 23 -11 11 23 21 2 0.16958553D-01 0.36581233D+00 0.20815651D+06 0.20815651D+06 0.20815651D+06 0.10964946D+01  1  2  6  2  7  2        2 0.202812316985D-03 0.100000000000D+01
0.450313421243D-07 0.000000000000D+00 0.000000000000D+00 0.596189443639D-06 0.000000000000D+00  7 -2 21 23 -11 11 23 -2 2 0.16958553D-01 0.60452662D+00 0.43616474D+06 0.43616474D+06 0.43616474D+06 0.10727282D+01  1  2 12  4  7  2        2 0.133394672485D-08 0.100000000000D+01
-.289895922463D-06 0.000000000000D+00 -.339311902760D-06 0.596189443639D-06 0.000000000000D+00  7 -2 21 23 -11 11 23 -2 2 0.16958553D-01 0.61177871D+00 0.20815651D+06 0.20815651D+06 0.20815651D+06 0.10964946D+01  1  2  5  4  7  2        2 -.848662131638D-08 0.100000000000D+01
  </mgrwgt>
  </event>
  <event>
  8     66 0.27870365E-05 0.10010580E+03 0.75467711E-02 0.11115728E+00
       -2 -1    0    0    0  501 0.00000000E+00 0.00000000E+00 0.52592912E+02 0.52593886E+02 0.32000000E+00 0.0000E+00 0.9000E+01
        2 -1    0    0  501    0 0.00000000E+00 0.00000000E+00 -.11485595E+04 0.11485595E+04 0.32000000E+00 0.0000E+00 0.9000E+01
       25  2    1    2    0    0 0.33824080E+02 -.28204933E+02 -.42317202E+03 0.52078047E+03 0.30033007E+03 0.0000E+00 0.0000E+00
       23  2    3    3    0    0 0.62936320E+02 0.21999624E+02 -.39235704E+03 0.40838459E+03 0.91591280E+02 0.0000E+00 0.0000E+00
       23  1    1    2    0    0 -.33824080E+02 0.28204933E+02 -.67279456E+03 0.68037296E+03 0.91188000E+02 0.0000E+00 0.9000E+01
      -13  1    4    4    0    0 0.51544913E+01 0.11472509E+02 -.96979451E+00 0.12615027E+02 0.10565837E+00 0.0000E+00 0.9000E+01
       13  1    4    4    0    0 0.57781828E+02 0.10527115E+02 -.39138724E+03 0.39576956E+03 0.10565837E+00 0.0000E+00 0.9000E+01
       23  1    3    3    0    0 -.29112240E+02 -.50204558E+02 -.30814986E+02 0.11239588E+03 0.91188000E+02 0.0000E+00 0.9000E+01
#aMCatNLO 1  0  0  1  2 0.93585907D+01 0.00000000D+00  -5  7  0 0.00000000D+00 0.00000000D+00 0.00000000D+00 0.00000000D+00 0.00000000D+00
  <mgrwgt>
 0.2229687290D-03   11    2    0
 0.245777746187304D+03 0.000000000000000D+00 0.000000000000000D+00 0.245777746187304D+03
 0.245777746187304D+03 0.000000000000000D+00 0.000000000000000D+00 -.245777746187304D+03
 0.162488170752805D+03 -.338240809925641D+02 0.282049342681949D+02 -.127073079440643D+03
 0.286634516781903D+02 0.515442169527492D+01 0.114725096460492D+02 0.257566869281850D+02
 0.944606786389105D+02 0.577818972500906D+02 0.105271136502722D+02 -.739814303545001D+02
 0.205943191304702D+03 -.291122379528015D+02 -.502045575645163D+02 0.175297822866958D+03
 0.000000000000000D+00 -.000000000000000D+00 0.000000000000000D+00 0.000000000000000D+00
 0.253857294462157D+03 0.000000000000000D+00 0.000000000000000D+00 0.253857294462157D+03
 0.248547336742443D+03 0.000000000000000D+00 0.000000000000000D+00 -.248547336742443D+03
 0.161680214337909D+03 -.315574603173780D+02 0.261112915065703D+02 -.127073079440643D+03
 0.285925292376262D+02 0.555476175337631D+01 0.111027216731395D+02 0.257566869281850D+02
 0.951499135480768D+02 0.591076751736998D+02 0.930251291152789D+01 -.739814303545001D+02
 0.206221915005449D+03 -.262303346133027D+02 -.528665274885081D+02 0.175297822866958D+03
 0.107600590755390D+02 -.687464199639541D+01 0.635000139727045D+01 0.530995771971391D+01
0.144802935559D-05 0.000000000000D+00 0.000000000000D+00 0.259229966283D-06 0.000000000000D+00  7 -2 2 23 -13 13 23 21 0 0.80912956D-02 0.17670154D+00 0.19693295D+05 0.19693295D+05 0.19693295D+05 0.11846864D+01  1  2  2  1  7  1       -2 0.312385237298D-03 0.100000000000D+01
-.497276094898D-07 0.000000000000D+00 -.556081400036D-08 0.259229966283D-06 0.000000000000D+00  7 -2 2 23 -13 13 23 21 2 0.80912956D-02 0.17670154D+00 0.19693295D+05 0.19693295D+05 0.19693295D+05 0.11846864D+01  1  2  3  1  7  1       -2 -.150562753205D-04 0.100000000000D+01
0.860870965301D-07 0.000000000000D+00 0.000000000000D+00 0.259229966283D-06 0.000000000000D+00  7 -2 2 23 -13 13 23 21 2 0.80912956D-02 0.17670154D+00 0.19693295D+05 0.19693295D+05 0.19693295D+05 0.11846864D+01  1  2 15  1  7  1       -2 0.260650178080D-04 0.100000000000D+01
0.349378644709D-05 0.000000000000D+00 0.000000000000D+00 0.259229966283D-06 0.000000000000D+00  7 -2 2 23 -13 13 23 21 2 0.84018462D-02 0.17670154D+00 0.21052917D+05 0.21052917D+05 0.21052917D+05 0.11818814D+01  1  2 12  1  7  1       -2 0.995836963753D-03 0.100000000000D+01
-.342426025981D-05 0.000000000000D+00 0.000000000000D+00 0.259229966283D-06 0.000000000000D+00  7 -2 2 23 -13 13 23 21 2 0.80912956D-02 0.17670154D+00 0.19693295D+05 0.19693295D+05 0.19693295D+05 0.11846864D+01  1  2  4  1  7  1       -2 -.103678028704D-02 0.100000000000D+01
-.283455645052D-04 0.000000000000D+00 -.443606885803D-05 0.259229966283D-06 0.000000000000D+00  7 -2 2 23 -13 13 23 21 2 0.84526118D-02 0.17670154D+00 0.19693295D+05 0.19693295D+05 0.19693295D+05 0.11846864D+01  1  2  5  1  7  1       -2 -.804160775305D-02 0.100000000000D+01
0.285163747790D-04 0.000000000000D+00 0.443183905733D-05 0.259229966283D-06 0.000000000000D+00  7 -2 2 23 -13 13 23 21 2 0.80912956D-02 0.17670154D+00 0.19693295D+05 0.19693295D+05 0.19693295D+05 0.11846864D+01  1  2  6  1  7  1       -2 0.863404443165D-02 0.100000000000D+01
0.264842360239D-09 0.000000000000D+00 0.000000000000D+00 0.259229966283D-06 0.220586340895D-07  7 -2 2 23 -13 13 23 21 2 0.83572839D-02 0.17869273D+00 0.21052917D+05 0.21052917D+05 0.21052917D+05 0.11818814D+01  1  2 11  1  7  1       -2 0.748380303942D-07 0.100000000000D+01
0.656498763195D-07 0.000000000000D+00 0.000000000000D+00 0.259229966283D-06 0.000000000000D+00  7 21 2 23 -13 13 23 2 2 0.84018462D-02 0.17670154D+00 0.21052917D+05 0.21052917D+05 0.21052917D+05 0.11818814D+01  1  2 12  3  7  1       -2 0.289178923128D-03 0.100000000000D+01
-.214696982931D-06 0.000000000000D+00 -.340701522892D-07 0.259229966283D-06 0.000000000000D+00  7 21 2 23 -13 13 23 2 2 0.84526118D-02 0.17670154D+00 0.19693295D+05 0.19693295D+05 0.19693295D+05 0.11846864D+01  1  2  5  3  7  1       -2 -.941180509296D-03 0.100000000000D+01
0.186286048612D-11 0.000000000000D+00 0.000000000000D+00 0.259229966283D-06 0.128881900391D-09  7 21 2 23 -13 13 23 2 2 0.83572839D-02 0.17869273D+00 0.21052917D+05 0.21052917D+05 0.21052917D+05 0.11818814D+01  1  2 11  3  7  1       -2 0.814202985476D-08 0.100000000000D+01
  </mgrwgt>
  </event>
  <event>
  8     66 0.27870365E-05 0.29331192E+03 0.75467711E-02 0.92535222E-01
       -2 -1    0    0    0  501 0.00000000E+00 0.00000000E+00 0.65353625E+03 0.65353633E+03 0.32000000E+00 0.0000E+00 0.9000E+01
        2 -1    0    0  501    0 0.00000000E+00 0.00000000E+00 -.12072599E+04 0.12072599E+04 0.32000000E+00 0.0000E+00 0.9000E+01
       25  2    1    2    0    0 -.13023038E+03 0.44495505E+03 -.10432689E+04 0.11804179E+04 0.30005241E+03 0.0000E+00 0.0000E+00
       23  2    3    3    0    0 -.11755037E+03 0.84444234E+02 -.23493018E+03 0.29055522E+03 0.91001256E+02 0.0000E+00 0.0000E+00
       23  1    1    2    0    0 0.13023038E+03 -.44495505E+03 0.48954524E+03 0.68037838E+03 0.91188000E+02 0.0000E+00 0.9000E+01
      -13  1    4    4    0    0 -.72075579E+02 -.13241554E+00 -.75059390E+02 0.10406166E+03 0.10565837E+00 0.0000E+00 0.9000E+01
       13  1    4    4    0    0 -.45474793E+02 0.84576650E+02 -.15987079E+03 0.18649356E+03 0.10565837E+00 0.0000E+00 0.9000E+01
       23  1    3    3    0    0 -.12680004E+02 0.36051081E+03 -.80833870E+03 0.88986265E+03 0.91188000E+02 0.0000E+00 0.9000E+01
#aMCatNLO 1  0  0  2  1 0.17929551D+03 0.00000000D+00  -5  7  0 0.00000000D+00 0.00000000D+00 0.00000000D+00 0.00000000D+00 0.00000000D+00
  <mgrwgt>
 0.7801007744D-03    9    2    0
 0.888250081738037D+03 0.000000000000000D+00 0.000000000000000D+00 0.888250081738037D+03
 0.888250081738037D+03 0.000000000000000D+00 0.000000000000000D+00 -.888250081738037D+03
 0.865250872860650D+03 0.130230376004989D+03 -.444955046530796D+03 0.724844036586142D+03
 0.856038490724336D+02 -.720756150264639D+02 -.132529736129193D+00 -.461855727521268D+02
 0.145512186898202D+03 -.454747570321475D+02 0.845767640032660D+02 -.109328011047034D+03
 0.680133254644788D+03 -.126800039463781D+02 0.360510812263659D+03 -.569330452786981D+03
 0.000000000000000D+00 -.000000000000000D+00 0.000000000000000D+00 -.000000000000000D+00
 0.951239831593223D+03 0.000000000000000D+00 0.000000000000000D+00 0.951239831593223D+03
 0.103019566913757D+04 0.000000000000000D+00 0.000000000000000D+00 -.103019566913757D+04
 0.910361555163781D+03 0.194347633638896D+03 -.507220888470386D+03 0.724844036586142D+03
 0.808295339776779D+02 -.660657156072648D+02 -.596889050884558D+01 -.461855727521268D+02
 0.137012071323852D+03 -.352728231155177D+02 0.746694156828180D+02 -.109328011047034D+03
 0.657321891320320D+03 0.356154206711719D+02 0.313609940538735D+03 -.569330452786981D+03
 0.195910448945162D+03 -.128624515587285D+03 0.124910422757678D+03 -.789558375443472D+02
0.296583409463D-03 0.000000000000D+00 0.000000000000D+00 0.812372281424D-05 0.000000000000D+00  7 -2 2 23 -13 13 23 21 0 0.10054405D+00 0.18573230D+00 0.25638407D+06 0.25638407D+06 0.25638407D+06 0.10896362D+01  1  2  2  2  7  2        2 0.588066354309D-03 0.100000000000D+01
-.101485674599D-04 0.000000000000D+00 -.113895838454D-05 0.812372281424D-05 0.000000000000D+00  7 -2 2 23 -13 13 23 21 2 0.10054405D+00 0.18573230D+00 0.25638407D+06 0.25638407D+06 0.25638407D+06 0.10896362D+01  1  2  3  2  7  2        2 -.238917127737D-04 0.100000000000D+01
0.176242548177D-04 0.000000000000D+00 0.000000000000D+00 0.812372281424D-05 0.000000000000D+00  7 -2 2 23 -13 13 23 21 2 0.10054405D+00 0.18573230D+00 0.25638407D+06 0.25638407D+06 0.25638407D+06 0.10896362D+01  1  2 15  2  7  2        2 0.414909429947D-04 0.100000000000D+01
0.312847323073D-03 0.000000000000D+00 0.000000000000D+00 0.812372281424D-05 0.000000000000D+00  7 -2 2 23 -13 13 23 21 2 0.10054405D+00 0.22119473D+00 0.36453027D+06 0.36453027D+06 0.36453027D+06 0.10783468D+01  1  2 12  2  7  2        2 0.524477936261D-03 0.100000000000D+01
-.346605364582D-03 0.000000000000D+00 0.000000000000D+00 0.812372281424D-05 0.000000000000D+00  7 -2 2 23 -13 13 23 21 2 0.10054405D+00 0.18573230D+00 0.25638407D+06 0.25638407D+06 0.25638407D+06 0.10896362D+01  1  2  4  2  7  2        2 -.815976821275D-03 0.100000000000D+01
-.621117727773D-03 0.000000000000D+00 -.199946732725D-03 0.812372281424D-05 0.000000000000D+00  7 -2 2 23 -13 13 23 21 2 0.10054405D+00 0.22381213D+00 0.25638407D+06 0.25638407D+06 0.25638407D+06 0.10896362D+01  1  2  5  2  7  2        2 -.106108215948D-02 0.100000000000D+01
0.650489889023D-03 0.000000000000D+00 0.196519104582D-03 0.812372281424D-05 0.000000000000D+00  7 -2 2 23 -13 13 23 21 2 0.10054405D+00 0.18573230D+00 0.25638407D+06 0.25638407D+06 0.25638407D+06 0.10896362D+01  1  2  6  2  7  2        2 0.153138042903D-02 0.100000000000D+01
0.806109461472D-05 0.000000000000D+00 0.000000000000D+00 0.812372281424D-05 0.000000000000D+00  7 -2 21 23 -13 13 23 -2 2 0.10054405D+00 0.22119473D+00 0.36453027D+06 0.36453027D+06 0.36453027D+06 0.10783468D+01  1  2 12  4  7  2        2 0.505947705749D-05 0.100000000000D+01
-.148004254714D-04 0.000000000000D+00 -.542130331367D-05 0.812372281424D-05 0.000000000000D+00  7 -2 21 23 -13 13 23 -2 2 0.10054405D+00 0.22381213D+00 0.25638407D+06 0.25638407D+06 0.25638407D+06 0.10896362D+01  1  2  5  4  7  2        2 -.942367177201D-05 0.100000000000D+01
  </mgrwgt>
  </event>
  <event>
  9     66 0.27870365E-05 0.22063344E+03 0.75467711E-02 0.10385635E+00
       -2 -1    0    0    0  502 0.00000000E+00 0.00000000E+00 0.15457500E+03 0.15457533E+03 0.32000000E+00 0.0000E+00 0.9000E+01
        2 -1    0    0  501    0 0.00000000E+00 0.00000000E+00 -.64893167E+03 0.64893175E+03 0.32000000E+00 0.0000E+00 0.9000E+01
       25  2    1    2    0    0 0.14717113E+03 -.84665890E+02 -.43084639E+03 0.55257043E+03 0.30145947E+03 0.0000E+00 0.0000E+00
       23  2    3    3    0    0 0.22755246E+02 -.11945766E+02 -.95757154E+01 0.98090767E+02 0.94178563E+02 0.0000E+00 0.0000E+00
       23  1    1    2    0    0 -.15260146E+03 0.51962498E+02 -.69101580E+01 0.18533836E+03 0.91188000E+02 0.0000E+00 0.9000E+01
      -13  1    4    4    0    0 -.19136629E+02 0.25491066E+02 -.24218156E+02 0.40031678E+02 0.10565837E+00 0.0000E+00 0.9000E+01
       13  1    4    4    0    0 0.41891875E+02 -.37436832E+02 0.14642440E+02 0.58059089E+02 0.10565837E+00 0.0000E+00 0.9000E+01
       23  1    3    3    0    0 0.12441588E+03 -.72720125E+02 -.42127068E+03 0.45447966E+03 0.91188000E+02 0.0000E+00 0.9000E+01
       21  1    1    2  501  502 0.54303264E+01 0.32703393E+02 -.56600116E+02 0.65598292E+02 0.75000000E+00 0.0000E+00 0.9000E+01
#aMCatNLO 2  0  0  1  2 0.33151174D+02 0.00000000D+00  -5  7  0 0.00000000D+00 0.00000000D+00 0.00000000D+00 0.00000000D+00 0.00000000D+00
  <mgrwgt>
 0.1473413422D-03    1    2    0
 0.296555046937886D+03 0.000000000000000D+00 0.000000000000000D+00 0.296555046937886D+03
 0.296555046937886D+03 0.000000000000000D+00 0.000000000000000D+00 -.296555046937886D+03
 0.226953674137710D+03 -.150533488619679D+03 0.644165792306624D+02 0.127995671742503D+03
 0.331603837226622D+02 -.188391891988496D+02 0.272828766491405D+02 -.583644336847481D+00
 0.813598433186018D+02 0.426433686011553D+02 -.329115852471758D+02 0.609737220094962D+02
 0.251636192696797D+03 0.126729309217374D+03 -.587878706326271D+02 -.188385749415152D+03
 0.000000000000000D+00 0.000000000000000D+00 0.000000000000000D+00 -.000000000000000D+00
 0.305918655760720D+03 0.000000000000000D+00 0.000000000000000D+00 0.305918655760720D+03
 0.327886172665598D+03 0.000000000000000D+00 0.000000000000000D+00 -.327886172665598D+03
 0.225134294640532D+03 -.152601461187217D+03 0.519624993432924D+02 0.127995671742503D+03
 0.318802816577220D+02 -.191367027826428D+02 0.254911420786230D+02 -.583644336847481D+00
 0.829111100518828D+02 0.418919488583750D+02 -.374369071264094D+02 0.609737220094962D+02
 0.254110157510915D+03 0.124415888709440D+03 -.727201269261412D+02 -.188385749415152D+03
 0.397689845652654D+02 0.543032640204483D+01 0.327033926306352D+02 -.219675169048776D+02
0.136171351118D-05 0.000000000000D+00 0.000000000000D+00 0.697325380624D-08 0.443587071698D-10  7 -2 2 23 -13 13 23 21 2 0.23780531D-01 0.99834537D-01 0.56871450D+05 0.56871450D+05 0.56871450D+05 0.11424086D+01  1  2  1  1  7  1       -2 0.147341342245D-03 0.100000000000D+01
  </mgrwgt>
  </event>
  <event>
  8     66 0.27870365E-05 0.20261340E+03 0.75467711E-02 0.10010715E+00
       -2 -1    0    0    0  501 0.00000000E+00 0.00000000E+00 0.20663628E+03 0.20663653E+03 0.32000000E+00 0.0000E+00 0.9000E+01
        2 -1    0    0  501    0 0.00000000E+00 0.00000000E+00 -.40318852E+03 0.40318865E+03 0.32000000E+00 0.0000E+00 0.9000E+01
       25  2    1    2    0    0 -.12003959E+03 -.80077329E+02 0.25081265E+02 0.33007789E+03 0.29580477E+03 0.0000E+00 0.0000E+00
       23  2    3    3    0    0 -.83452258E+01 0.15048392E+02 0.87071430E+02 0.14654978E+03 0.11661607E+03 0.0000E+00 0.0000E+00
       23  1    1    2    0    0 0.12003959E+03 0.80077329E+02 -.22163350E+03 0.27974729E+03 0.91188000E+02 0.0000E+00 0.9000E+01
      -11  1    4    4    0    0 -.28016357E+02 -.10170495E+02 -.19277100E+02 0.35495941E+02 0.51099893E-03 0.0000E+00 0.9000E+01
       11  1    4    4    0    0 0.19671131E+02 0.25218888E+02 0.10634853E+03 0.11105384E+03 0.51099893E-03 0.0000E+00 0.9000E+01
       23  1    3    3    0    0 -.11169437E+03 -.95125722E+02 -.61990165E+02 0.18352811E+03 0.91188000E+02 0.0000E+00 0.9000E+01
#aMCatNLO 1  0  0  1  2 0.16653596D+03 0.00000000D+00  -5  7  0 0.00000000D+00 0.00000000D+00 0.00000000D+00 0.00000000D+00 0.00000000D+00
  <mgrwgt>
 0.7092750946D-03    3    2    0
 0.288640763393212D+03 0.000000000000000D+00 0.000000000000000D+00 0.288640763393212D+03
 0.288640763393212D+03 0.000000000000000D+00 0.000000000000000D+00 -.288640763393212D+03
 0.220056194735409D+03 0.120039592652771D+03 0.800773294830141D+02 -.138879786131942D+03
 0.309335377716015D+02 -.280163552432050D+02 -.101704944144568D+02 -.827820278316134D+01
 0.153523826827212D+03 0.196711313188208D+02 0.252188882841057D+02 0.150155318487303D+03
 0.172767967452200D+03 -.111694368728387D+03 -.951257233526629D+02 -.299732957220002D+01
 0.000000000000000D+00 -.000000000000000D+00 -.000000000000000D+00 -.000000000000000D+00
 0.323513298209845D+03 0.000000000000000D+00 0.000000000000000D+00 0.323513298209845D+03
 0.600541580595821D+03 0.000000000000000D+00 0.000000000000000D+00 -.600541580595821D+03
 0.260192527910589D+03 0.137338413331402D+03 0.145723935796634D+03 -.138879786131942D+03
 0.272983547435422D+02 -.259188107440824D+02 -.221060625113834D+01 -.827820278316134D+01
 0.168265580889691D+03 0.312621611287654D+02 0.692052261298306D+02 0.150155318487303D+03
 0.145066461825534D+03 -.100245799396900D+03 -.516800031084686D+02 -.299732957220002D+01
 0.323231953436309D+03 -.424359643191848D+02 -.161038552566858D+03 -.277028282385976D+03
0.812074606518D-05 0.000000000000D+00 0.000000000000D+00 0.214006666343D-10 0.000000000000D+00  7 -2 2 23 -11 11 23 21 0 0.31790226D-01 0.62029032D-01 0.41052190D+05 0.41052190D+05 0.41052190D+05 0.11549047D+01  1  2  2  1  7  1       -2 0.693983871515D-03 0.100000000000D+01
-.382457629427D-06 0.000000000000D+00 -.311858031318D-07 0.214006666343D-10 0.000000000000D+00  7 -2 2 23 -11 11 23 21 2 0.31790226D-01 0.62029032D-01 0.41052190D+05 0.41052190D+05 0.41052190D+05 0.11549047D+01  1  2  3  1  7  1       -2 -.435942386648D-04 0.100000000000D+01
0.516609414471D-06 0.000000000000D+00 0.000000000000D+00 0.214006666343D-10 0.000000000000D+00  7 -2 2 23 -11 11 23 21 2 0.31790226D-01 0.62029032D-01 0.41052190D+05 0.41052190D+05 0.41052190D+05 0.11549047D+01  1  2 15  1  7  1       -2 0.588854617560D-04 0.100000000000D+01
  </mgrwgt>
  </event>
  <event>
  8     66 0.27870365E-05 0.16426092E+03 0.75467711E-02 0.98621621E-01
       -2 -1    0    0    0  501 0.00000000E+00 0.00000000E+00 0.75911118E+02 0.75911792E+02 0.32000000E+00 0.0000E+00 0.9000E+01
        2 -1    0    0  501    0 0.00000000E+00 0.00000000E+00 -.73908922E+03 0.73908929E+03 0.32000000E+00 0.0000E+00 0.9000E+01
       25  2    1    2    0    0 -.97872397E+01 -.11087156E+03 -.52200085E+03 0.61342092E+03 0.30234425E+03 0.0000E+00 0.0000E+00
       23  2    3    3    0    0 0.20899002E+02 -.17995246E+03 -.35483004E+03 0.40854255E+03 0.90459951E+02 0.0000E+00 0.0000E+00
       23  1    1    2    0    0 0.97872397E+01 0.11087156E+03 -.14117725E+03 0.20158016E+03 0.91188000E+02 0.0000E+00 0.9000E+01
      -13  1    4    4    0    0 0.21731426E+02 -.18856840E+03 -.31490138E+03 0.36768626E+03 0.10565837E+00 0.0000E+00 0.9000E+01
       13  1    4    4    0    0 -.83242373E+00 0.86159413E+01 -.39928657E+02 0.40856287E+02 0.10565837E+00 0.0000E+00 0.9000E+01
       23  1    3    3    0    0 -.30686242E+02 0.69080896E+02 -.16717081E+03 0.20487837E+03 0.91188000E+02 0.0000E+00 0.9000E+01
#aMCatNLO 1  0  0  2  1 0.21147395D+03 0.00000000D+00  -5  7  0 0.00000000D+00 0.00000000D+00 0.00000000D+00 0.00000000D+00 0.00000000D+00
  <mgrwgt>
 0.3994933455D-03    7    2    0
 0.236865768045433D+03 0.000000000000000D+00 0.000000000000000D+00 0.236865768045433D+03
 0.236865768045433D+03 0.000000000000000D+00 0.000000000000000D+00 -.236865768045433D+03
 0.149161352485314D+03 0.978725068213647D+01 0.110871685789425D+03 0.393133151177046D+02
 0.191731179399263D+03 0.217314328820440D+02 -.188568649173259D+03 -.270269222757277D+02
 0.143921045849517D+02 -.832459895046848D+00 0.861620942508804D+01 -.114978528452207D+02
 0.118446899621338D+03 -.306862236691336D+02 0.690807539587456D+02 -.788539996756146D+00
 0.000000000000000D+00 0.000000000000000D+00 0.000000000000000D+00 -.000000000000000D+00
 0.307972148868399D+03 0.000000000000000D+00 0.000000000000000D+00 0.307972148868399D+03
 0.489549986487543D+03 0.000000000000000D+00 0.000000000000000D+00 -.489549986487543D+03
 0.113665168020216D+03 0.538881639998097D+01 0.550449179246113D+02 0.393133151177046D+02
 0.293122505895806D+03 0.136173465747362D+02 -.291556026875114D+03 -.270269222757277D+02
 0.119557770787884D+02 -.127339494889555D+01 0.301967726942128D+01 -.114978528452207D+02
 0.100046295941776D+03 -.343427342828039D+02 0.226707916563047D+02 -.788539996756146D+00
 0.278732388419356D+03 0.166099662569824D+02 0.210820640024777D+03 -.181577837619144D+03
0.201048061023D-05 0.000000000000D+00 0.000000000000D+00 0.952088423755D-08 0.000000000000D+00  7 -2 2 23 -13 13 23 21 0 0.11678691D-01 0.11370609D+00 0.53085242D+05 0.53085242D+05 0.53085242D+05 0.11450151D+01  1  2  2  2  7  2        2 0.448498070626D-03 0.100000000000D+01
-.111589419058D-06 0.000000000000D+00 -.772077491500D-08 0.952088423755D-08 0.000000000000D+00  7 -2 2 23 -13 13 23 21 2 0.11678691D-01 0.11370609D+00 0.53085242D+05 0.53085242D+05 0.53085242D+05 0.11450151D+01  1  2  3  2  7  2        2 -.326366925882D-04 0.100000000000D+01
0.131469829055D-06 0.000000000000D+00 0.000000000000D+00 0.952088423755D-08 0.000000000000D+00  7 -2 2 23 -13 13 23 21 2 0.11678691D-01 0.11370609D+00 0.53085242D+05 0.53085242D+05 0.53085242D+05 0.11450151D+01  1  2 15  2  7  2        2 0.384511401861D-04 0.100000000000D+01
0.109373746321D-07 0.000000000000D+00 0.000000000000D+00 0.952088423755D-08 0.000000000000D+00  7 -2 2 23 -13 13 23 21 2 0.11678691D-01 0.23646412D+00 0.12720573D+06 0.12720573D+06 0.12720573D+06 0.11132456D+01  1  2 12  2  7  2        2 0.101729263481D-05 0.100000000000D+01
-.715042526300D-06 0.000000000000D+00 -.595837383721D-06 0.952088423755D-08 0.000000000000D+00  7 -2 2 23 -13 13 23 21 2 0.11678691D-01 0.26869945D+00 0.53085242D+05 0.53085242D+05 0.53085242D+05 0.11450151D+01  1  2  5  2  7  2        2 -.552080605440D-04 0.100000000000D+01
0.865958603719D-09 0.000000000000D+00 0.000000000000D+00 0.952088423755D-08 0.000000000000D+00  7 -2 21 23 -13 13 23 -2 2 0.11678691D-01 0.23646412D+00 0.12720573D+06 0.12720573D+06 0.12720573D+06 0.11132456D+01  1  2 12  4  7  2        2 0.281221585627D-07 0.100000000000D+01
-.295613164104D-07 0.000000000000D+00 -.559459479275D-07 0.952088423755D-08 0.000000000000D+00  7 -2 21 23 -13 13 23 -2 2 0.11678691D-01 0.26869945D+00 0.53085242D+05 0.53085242D+05 0.53085242D+05 0.11450151D+01  1  2  5  4  7  2        2 -.656527018339D-06 0.100000000000D+01
  </mgrwgt>
  </event>
  <event>
  8     66 0.27870365E-05 0.17931157E+03 0.75467711E-02 0.98373498E-01
       -2 -1    0    0    0  501 0.00000000E+00 0.00000000E+00 0.24599153E+03 0.24599174E+03 0.32000000E+00 0.0000E+00 0.9000E+01
        2 -1    0    0  501    0 0.00000000E+00 0.00000000E+00 -.72132070E+03 0.72132077E+03 0.32000000E+00 0.0000E+00 0.9000E+01
       25  2    1    2    0    0 -.12797272E+03 -.26673702E+03 -.27255606E+02 0.42269262E+03 0.30066680E+03 0.0000E+00 0.0000E+00
       23  2    3    3    0    0 -.92713997E+02 -.28914274E+03 0.32886384E+01 0.31784322E+03 0.93883374E+02 0.0000E+00 0.0000E+00
       23  1    1    2    0    0 0.12797272E+03 0.26673702E+03 -.44807356E+03 0.54461989E+03 0.91188000E+02 0.0000E+00 0.9000E+01
      -13  1    4    4    0    0 -.87338218E+02 -.23366258E+03 -.32564000E+02 0.25156826E+03 0.10565837E+00 0.0000E+00 0.9000E+01
       13  1    4    4    0    0 -.53757789E+01 -.55480164E+02 0.35852638E+02 0.66274961E+02 0.10565837E+00 0.0000E+00 0.9000E+01
       23  1    3    3    0    0 -.35258719E+02 0.22405717E+02 -.30544245E+02 0.10484940E+03 0.91188000E+02 0.0000E+00 0.9000E+01
#aMCatNLO 1  0  0  1  2 0.12870270D+02 0.00000000D+00  -5  7  0 0.00000000D+00 0.00000000D+00 0.00000000D+00 0.00000000D+00 0.00000000D+00
  <mgrwgt>
 0.4344035585D-03    9    2    0
 0.421234989930171D+03 0.000000000000000D+00 0.000000000000000D+00 0.421234989930171D+03
 0.421234989930171D+03 0.000000000000000D+00 0.000000000000000D+00 -.421234989930171D+03
 0.372517959217501D+03 0.127972716223562D+03 0.266737025065536D+03 -.207192475628636D+03
 0.270474553635799D+03 -.873383216123642D+02 -.233662803214457D+03 0.104547578338198D+03
 0.963241644274530D+02 -.537567550921275D+01 -.554799388328540D+02 0.785584059955995D+02
 0.103153302579590D+03 -.352587191019852D+02 0.224057169817752D+02 0.240864912948385D+02
 0.000000000000000D+00 0.000000000000000D+00 -.000000000000000D+00 0.000000000000000D+00
 0.441558370606319D+03 0.000000000000000D+00 0.000000000000000D+00 0.441558370606319D+03
 0.423326683219351D+03 0.000000000000000D+00 0.000000000000000D+00 -.423326683219351D+03
 0.370877352123109D+03 0.122306864765794D+03 0.267108719153620D+03 -.207192475628636D+03
 0.271603830250151D+03 -.914698187508461D+02 -.233391766623972D+03 0.104547578338198D+03
 0.963618683977751D+02 -.684424872096132D+01 -.553835967411500D+02 0.785584059955995D+02
 0.103725231814706D+03 -.368354616880596D+02 0.225091552561532D+02 0.240864912948385D+02
 0.223167712399278D+02 0.128426643940727D+02 -.842511044651214D+00 0.182316873869680D+02
0.792164184690D-05 0.000000000000D+00 0.000000000000D+00 0.773222061914D-07 0.000000000000D+00  7 -2 2 23 -13 13 23 21 0 0.37844872D-01 0.11097244D+00 0.12783318D+06 0.12783318D+06 0.12783318D+06 0.11130744D+01  1  2  2  1  7  1       -2 0.254108416212D-03 0.100000000000D+01
-.425708272541D-06 0.000000000000D+00 -.304211905083D-07 0.773222061914D-07 0.000000000000D+00  7 -2 2 23 -13 13 23 21 2 0.37844872D-01 0.11097244D+00 0.12783318D+06 0.12783318D+06 0.12783318D+06 0.11130744D+01  1  2  3  1  7  1       -2 -.169185948687D-04 0.100000000000D+01
0.493168482525D-06 0.000000000000D+00 0.000000000000D+00 0.773222061914D-07 0.000000000000D+00  7 -2 2 23 -13 13 23 21 2 0.37844872D-01 0.11097244D+00 0.12783318D+06 0.12783318D+06 0.12783318D+06 0.11130744D+01  1  2 15  1  7  1       -2 0.195996138578D-04 0.100000000000D+01
0.577297361754D-04 0.000000000000D+00 0.000000000000D+00 0.773222061914D-07 0.000000000000D+00  7 -2 2 23 -13 13 23 21 2 0.39762099D-01 0.11097244D+00 0.13244022D+06 0.13244022D+06 0.13244022D+06 0.11118443D+01  1  2 12  1  7  1       -2 0.208780817613D-02 0.100000000000D+01
-.588390309809D-04 0.000000000000D+00 0.000000000000D+00 0.773222061914D-07 0.000000000000D+00  7 -2 2 23 -13 13 23 21 2 0.37844872D-01 0.11097244D+00 0.12783318D+06 0.12783318D+06 0.12783318D+06 0.11130744D+01  1  2  4  1  7  1       -2 -.233839413477D-02 0.100000000000D+01
-.207729202870D-03 0.000000000000D+00 -.203662322762D-04 0.773222061914D-07 0.000000000000D+00  7 -2 2 23 -13 13 23 21 2 0.39812572D-01 0.11097244D+00 0.12783318D+06 0.12783318D+06 0.12783318D+06 0.11130744D+01  1  2  5  1  7  1       -2 -.751610755895D-02 0.100000000000D+01
0.208519724234D-03 0.000000000000D+00 0.203400978086D-04 0.773222061914D-07 0.000000000000D+00  7 -2 2 23 -13 13 23 21 2 0.37844872D-01 0.11097244D+00 0.12783318D+06 0.12783318D+06 0.12783318D+06 0.11130744D+01  1  2  6  1  7  1       -2 0.828703824662D-02 0.100000000000D+01
0.966245415078D-06 0.000000000000D+00 0.000000000000D+00 0.773222061914D-07 0.000000000000D+00  7 21 2 23 -13 13 23 2 2 0.39762099D-01 0.11097244D+00 0.13244022D+06 0.13244022D+06 0.13244022D+06 0.11118443D+01  1  2 12  3  7  1       -2 0.389579401085D-03 0.100000000000D+01
-.181407806586D-05 0.000000000000D+00 -.179660370405D-06 0.773222061914D-07 0.000000000000D+00  7 21 2 23 -13 13 23 2 2 0.39812572D-01 0.11097244D+00 0.12783318D+06 0.12783318D+06 0.12783318D+06 0.11130744D+01  1  2  5  3  7  1       -2 -.732310006767D-03 0.100000000000D+01
  </mgrwgt>
  </event>
  <event>
  8     66 0.27870365E-05 0.21985969E+03 0.75467711E-02 0.10478951E+00
       -2 -1    0    0    0  501 0.00000000E+00 0.00000000E+00 0.10453925E+03 0.10453973E+03 0.32000000E+00 0.0000E+00 0.9000E+01
        2 -1    0    0  501    0 0.00000000E+00 0.00000000E+00 -.18547423E+04 0.18547423E+04 0.32000000E+00 0.0000E+00 0.9000E+01
       25  2    1    2    0    0 0.36239566E+02 -.12814476E+03 -.17668372E+04 0.17970281E+04 0.29976995E+03 0.0000E+00 0.0000E+00
       23  2    3    3    0    0 0.98547453E+02 -.75753696E+01 -.44324651E+03 0.46337644E+03 0.92093836E+02 0.0000E+00 0.0000E+00
       23  1    1    2    0    0 -.36239566E+02 0.12814476E+03 0.16634160E+02 0.16225392E+03 0.91188000E+02 0.0000E+00 0.9000E+01
      -13  1    4    4    0    0 -.32039230E+01 -.12538077E+02 -.18953828E+03 0.18997958E+03 0.10565837E+00 0.0000E+00 0.9000E+01
       13  1    4    4    0    0 0.10175138E+03 0.49627075E+01 -.25370822E+03 0.27339686E+03 0.10565837E+00 0.0000E+00 0.9000E+01
       23  1    3    3    0    0 -.62307886E+02 -.12056940E+03 -.13235907E+04 0.13336517E+04 0.91188000E+02 0.0000E+00 0.9000E+01
#aMCatNLO 1  0  0  2  2 0.65545293D+01 0.00000000D+00  -5  7  0 0.00000000D+00 0.00000000D+00 0.00000000D+00 0.00000000D+00 0.00000000D+00
  <mgrwgt>
 0.4310248560D-03    6    2    0
 0.440333811705064D+03 0.000000000000000D+00 0.000000000000000D+00 0.440333811705064D+03
 0.440333811705064D+03 0.000000000000000D+00 0.000000000000000D+00 -.440333811705064D+03
 0.394035542735152D+03 -.362395661521272D+02 0.128144764847359D+03 0.359464004709660D+03
 0.459799252247078D+02 -.320406099022796D+01 -.125381000461778D+02 -.441212371094993D+02
 0.104035536774958D+03 0.101751513576131D+03 0.496273057365902D+01 -.211043526854854D+02
 0.336616618675310D+03 -.623078864337757D+02 -.120569395374841D+03 -.294238414914675D+03
 0.000000000000000D+00 -.000000000000000D+00 0.000000000000000D+00 0.000000000000000D+00
 0.447692559551526D+03 0.000000000000000D+00 0.000000000000000D+00 0.447692559551526D+03
 0.441807980714366D+03 0.000000000000000D+00 0.000000000000000D+00 -.441807980714366D+03
 0.393055804981148D+03 -.353538577870658D+02 0.125352896029743D+03 0.359464004709660D+03
 0.460629358789609D+02 -.310048580513637D+01 -.128645826006426D+02 -.441212371094993D+02
 0.104232215078624D+03 0.101985875814421D+03 0.422399009099190D+01 -.211043526854854D+02
 0.337341058773101D+03 -.615494865932167D+02 -.122959971042482D+03 -.294238414914675D+03
 0.880852555405860D+01 -.198204562900161D+01 0.624766752238900D+01 0.588457883715944D+01
0.152489888008D-04 0.000000000000D+00 0.000000000000D+00 0.129908756387D-05 0.000000000000D+00  7 -2 2 23 -13 13 23 21 0 0.16083001D-01 0.28534501D+00 0.48338283D+05 0.48338283D+05 0.48338283D+05 0.11485888D+01  1  2  2  2  7  2        2 0.477173856900D-03 0.100000000000D+01
-.350288933649D-06 0.000000000000D+00 -.585601321460D-07 0.129908756387D-05 0.000000000000D+00  7 -2 2 23 -13 13 23 21 2 0.16083001D-01 0.28534501D+00 0.48338283D+05 0.48338283D+05 0.48338283D+05 0.11485888D+01  1  2  3  2  7  2        2 -.144607608663D-04 0.100000000000D+01
0.943175678208D-06 0.000000000000D+00 0.000000000000D+00 0.129908756387D-05 0.000000000000D+00  7 -2 2 23 -13 13 23 21 2 0.16083001D-01 0.28534501D+00 0.48338283D+05 0.48338283D+05 0.48338283D+05 0.11485888D+01  1  2 15  2  7  2        2 0.389365367482D-04 0.100000000000D+01
-.457755358467D-05 0.000000000000D+00 0.000000000000D+00 0.129908756387D-05 0.000000000000D+00  7 -2 2 23 -13 13 23 21 2 0.16083001D-01 0.28534501D+00 0.48338283D+05 0.48338283D+05 0.48338283D+05 0.11485888D+01  1  2  4  2  7  2        2 -.188972306522D-03 0.100000000000D+01
0.296801915186D-05 0.000000000000D+00 0.000000000000D+00 0.129908756387D-05 0.212397177320D-06  7 -2 2 23 -13 13 23 21 2 0.16351776D-01 0.28630030D+00 0.49694678D+05 0.49694678D+05 0.49694678D+05 0.11475294D+01  1  2 11  2  7  2        2 0.118119129733D-03 0.100000000000D+01
0.225339865802D-07 0.000000000000D+00 0.000000000000D+00 0.129908756387D-05 0.133898765295D-09  7 -2 21 23 -13 13 23 -2 2 0.16351776D-01 0.28630030D+00 0.49694678D+05 0.49694678D+05 0.49694678D+05 0.11475294D+01  1  2 11  4  7  2        2 0.228400034835D-06 0.100000000000D+01
  </mgrwgt>
  </event>
  <event>
  9     66 0.27870365E-05 0.56695164E+03 0.75467711E-02 0.92863808E-01
       -2 -1    0    0    0  502 0.00000000E+00 0.00000000E+00 0.74766583E+03 0.74766590E+03 0.32000000E+00 0.0000E+00 0.9000E+01
        2 -1    0    0  501    0 0.00000000E+00 0.00000000E+00 -.65127023E+03 0.65127031E+03 0.32000000E+00 0.0000E+00 0.9000E+01
       25  2    1    2    0    0 0.45981528E+03 0.23060466E+03 -.31076143E+03 0.67165568E+03 0.29990013E+03 0.0000E+00 0.0000E+00
       23  2    3    3    0    0 0.28303072E+02 0.88736534E+02 -.91905375E+02 0.15926660E+03 0.90796555E+02 0.0000E+00 0.0000E+00
       23  1    1    2    0    0 -.46163402E+03 -.26753735E+03 0.31104230E+03 0.62429541E+03 0.91188000E+02 0.0000E+00 0.9000E+01
      -13  1    4    4    0    0 0.52806125E+02 0.19025171E+02 -.41925472E+02 0.70058549E+02 0.10565837E+00 0.0000E+00 0.9000E+01
       13  1    4    4    0    0 -.24503053E+02 0.69711363E+02 -.49979903E+02 0.89208047E+02 0.10565837E+00 0.0000E+00 0.9000E+01
       23  1    3    3    0    0 0.43151221E+03 0.14186812E+03 -.21885606E+03 0.51238909E+03 0.91188000E+02 0.0000E+00 0.9000E+01
       21  1    1    2  501  502 0.18187355E+01 0.36932692E+02 0.96114721E+02 0.10298511E+03 0.75000000E+00 0.0000E+00 0.9000E+01
#aMCatNLO 2  0  0  1  2 0.36977446D+02 0.00000000D+00  -5  7  0 0.00000000D+00 0.00000000D+00 0.00000000D+00 0.00000000D+00 0.00000000D+00
  <mgrwgt>
 0.5656272776D-04    2    2    0
 0.647711709199971D+03 0.000000000000000D+00 0.000000000000000D+00 0.647711709199971D+03
 0.647711709199971D+03 0.000000000000000D+00 0.000000000000000D+00 -.647711709199971D+03
 0.616206629480656D+03 -.460763426236972D+03 -.249858473035292D+03 0.310907007587073D+03
 0.707126975351622D+02 0.529050353436849D+02 0.210315258313670D+02 -.419406455504363D+02
 0.912083276068886D+02 -.243765263912862D+02 0.722829100442939D+02 -.499992490090497D+02
 0.517295763777236D+03 0.432234917284573D+03 0.156544037159631D+03 -.218967113027587D+03
 0.000000000000000D+00 0.000000000000000D+00 0.000000000000000D+00 0.000000000000000D+00
 0.747502317776273D+03 0.000000000000000D+00 0.000000000000000D+00 0.747502317776273D+03
 0.651410114555059D+03 0.000000000000000D+00 0.000000000000000D+00 -.651410114555059D+03
 0.624228016417188D+03 -.461634015410147D+03 -.267537349889120D+03 0.310907007587073D+03
 0.700676113352387D+02 0.528062298055583D+02 0.190251019119817D+02 -.419406455504363D+02
 0.892189069102729D+02 -.245031578082948D+02 0.697114316752768D+02 -.499992490090497D+02
 0.512436530947485D+03 0.431512207877818D+03 0.141868124574433D+03 -.218967113027587D+03
 0.102961366721148D+03 0.181873553506510D+01 0.369326917274278D+02 0.960922032212136D+02
-.127984190852D-02 0.000000000000D+00 0.000000000000D+00 0.332526475769D-05 0.000000000000D+00  7 -2 2 23 -13 13 23 21 2 0.11528261D+00 0.99626361D-01 0.34315500D+06 0.34315500D+06 0.34315500D+06 0.10802597D+01  1  2 13  1  7  1       -2 -.487048057549D-02 0.100000000000D+01
0.129626362631D-02 0.000000000000D+00 0.000000000000D+00 0.332526475769D-05 0.152702973490D-07  7 -2 2 23 -13 13 23 21 2 0.11502528D+00 0.10019522D+00 0.34315500D+06 0.34315500D+06 0.34315500D+06 0.10802597D+01  1  2  1  1  7  1       -2 0.492704330325D-02 0.100000000000D+01
  </mgrwgt>
  </event>
  <event>
  8     66 0.27870365E-05 0.20104010E+03 0.75467711E-02 0.99623231E-01
       -2 -1    0    0    0  501 0.00000000E+00 0.00000000E+00 0.72496790E+02 0.72497496E+02 0.32000000E+00 0.0000E+00 0.9000E+01
        2 -1    0    0  501    0 0.00000000E+00 0.00000000E+00 -.12074469E+04 0.12074470E+04 0.32000000E+00 0.0000E+00 0.9000E+01
       25  2    1    2    0    0 -.10826322E+03 0.14770857E+02 -.31919022E+03 0.45186319E+03 0.30059748E+03 0.0000E+00 0.0000E+00
       23  2    3    3    0    0 0.22639531E+02 0.18498270E+02 -.26489157E+03 0.28330158E+03 0.96111936E+02 0.0000E+00 0.0000E+00
       23  1    1    2    0    0 0.10826322E+03 -.14770857E+02 -.81575990E+03 0.82808126E+03 0.91188000E+02 0.0000E+00 0.9000E+01
      -11  1    4    4    0    0 -.97919387E+01 -.35703730E+02 -.10817459E+03 0.11433452E+03 0.51099893E-03 0.0000E+00 0.9000E+01
       11  1    4    4    0    0 0.32431469E+02 0.54202000E+02 -.15671698E+03 0.16896706E+03 0.51099893E-03 0.0000E+00 0.9000E+01
       23  1    3    3    0    0 -.13090275E+03 -.37274134E+01 -.54298646E+02 0.16856161E+03 0.91188000E+02 0.0000E+00 0.9000E+01
#aMCatNLO 1  0  0  1  2 0.21605629D+03 0.00000000D+00  -5  7  0 0.00000000D+00 0.00000000D+00 0.00000000D+00 0.00000000D+00 0.00000000D+00
  <mgrwgt>
 0.6930611722D-03    3    2    0
 0.295865686193091D+03 0.000000000000000D+00 0.000000000000000D+00 0.295865686193091D+03
 0.295865686193091D+03 0.000000000000000D+00 0.000000000000000D+00 -.295865686193091D+03
 0.226540653948634D+03 0.108263217253324D+03 -.147708569923092D+02 -.176256387461979D+03
 0.398306724449118D+02 -.979193862440401D+01 -.357037296157914D+02 -.146916335685390D+02
 0.648985373672912D+02 0.324314694501888D+02 0.542020000011679D+02 -.149051379593934D+02
 0.260461508625346D+03 -.130902748079108D+03 -.372741339306738D+01 0.205853158989911D+03
 0.000000000000000D+00 -.000000000000000D+00 -.000000000000000D+00 -.000000000000000D+00
 0.333906844377813D+03 0.000000000000000D+00 0.000000000000000D+00 0.333906844377813D+03
 0.931258894151827D+03 0.000000000000000D+00 0.000000000000000D+00 -.931258894151827D+03
 0.267865081141476D+03 0.175017556154280D+03 0.417012142217206D+02 -.176256387461979D+03
 0.312534509597526D+02 -.194206787074997D+00 -.275843503404611D+02 -.146916335685390D+02
 0.909116870101525D+02 0.534688640112174D+02 0.719989741509789D+02 -.149051379593934D+02
 0.239911314674758D+03 -.633427368318363D+02 0.534262312866782D+02 0.205853158989911D+03
 0.635224204743502D+03 -.164949476546586D+03 -.139542069318917D+03 -.597352049774014D+03
0.551391497555D-05 0.000000000000D+00 0.000000000000D+00 0.129288822861D-07 0.000000000000D+00  7 -2 2 23 -11 11 23 21 0 0.11153410D-01 0.18576112D+00 0.40417123D+05 0.40417123D+05 0.40417123D+05 0.11555130D+01  1  2  2  1  7  1       -2 0.679664419068D-03 0.100000000000D+01
-.250719496935D-06 0.000000000000D+00 -.211748853533D-07 0.129288822861D-07 0.000000000000D+00  7 -2 2 23 -11 11 23 21 2 0.11153410D-01 0.18576112D+00 0.40417123D+05 0.40417123D+05 0.40417123D+05 0.11555130D+01  1  2  3  1  7  1       -2 -.412640913443D-04 0.100000000000D+01
0.332117804755D-06 0.000000000000D+00 0.000000000000D+00 0.129288822861D-07 0.000000000000D+00  7 -2 2 23 -11 11 23 21 2 0.11153410D-01 0.18576112D+00 0.40417123D+05 0.40417123D+05 0.40417123D+05 0.11555130D+01  1  2 15  1  7  1       -2 0.546608444896D-04 0.100000000000D+01
  </mgrwgt>
  </event>
  <event>
  8     66 0.27870365E-05 0.21624466E+03 0.75467711E-02 0.94939729E-01
       -2 -1    0    0    0  501 0.00000000E+00 0.00000000E+00 0.39397998E+03 0.39398011E+03 0.32000000E+00 0.0000E+00 0.9000E+01
        2 -1    0    0  501    0 0.00000000E+00 0.00000000E+00 -.19159713E+03 0.19159740E+03 0.32000000E+00 0.0000E+00 0.9000E+01
       25  2    1    2    0    0 0.78818325E+02 -.57448137E+02 0.28795029E+03 0.42699108E+03 0.29982228E+03 0.0000E+00 0.0000E+00
       23  2    3    3    0    0 0.75753440E+02 -.12412965E+03 0.24147286E+03 0.30479771E+03 0.11595578E+03 0.0000E+00 0.0000E+00
       23  1    1    2    0    0 -.78818325E+02 0.57448137E+02 -.85567441E+02 0.15858643E+03 0.91188000E+02 0.0000E+00 0.9000E+01
      -13  1    4    4    0    0 0.42249960E+02 -.14188479E+03 0.18995893E+03 0.24083346E+03 0.10565837E+00 0.0000E+00 0.9000E+01
       13  1    4    4    0    0 0.33503481E+02 0.17755130E+02 0.51513938E+02 0.63964247E+02 0.10565837E+00 0.0000E+00 0.9000E+01
       23  1    3    3    0    0 0.30648849E+01 0.66681517E+02 0.46477430E+02 0.12219338E+03 0.91188000E+02 0.0000E+00 0.9000E+01
#aMCatNLO 1  0  0  2  1 0.39525961D+03 0.00000000D+00  -5  7  0 0.00000000D+00 0.00000000D+00 0.00000000D+00 0.00000000D+00 0.00000000D+00
  <mgrwgt>
 0.7594583548D-03    3    2    0
 0.274746338803968D+03 0.000000000000000D+00 0.000000000000000D+00 0.274746338803968D+03
 0.274746338803968D+03 0.000000000000000D+00 0.000000000000000D+00 -.274746338803968D+03
 0.200515918482885D+03 -.788183256325765D+02 0.574481376263661D+02 -.149595338325679D+03
 0.186685542496992D+03 0.422502068230494D+02 -.141884833160404D+03 0.113732607109175D+03
 0.491912875144188D+02 0.335032968011858D+02 0.177547815993833D+02 0.313381492934103D+02
 0.113099929113640D+03 0.306482200834134D+01 0.666819139346550D+02 0.452458192309343D+01
 0.000000000000000D+00 -.000000000000000D+00 -.000000000000000D+00 0.000000000000000D+00
 0.630997087838907D+03 0.000000000000000D+00 0.000000000000000D+00 0.630997087838907D+03
 0.471947131058880D+03 0.000000000000000D+00 0.000000000000000D+00 -.471947131058880D+03
 0.220889792317080D+03 0.362852701842022D+02 0.129544057852021D+03 -.149595338325679D+03
 0.201545667408298D+03 0.148292453340230D+03 -.754645507078780D+02 0.113732607109175D+03
 0.877987662978458D+02 0.709210331555241D+02 0.411916352969958D+02 0.313381492934103D+02
 0.166650079823722D+03 0.794762970624876D+02 0.114542761119633D+03 0.452458192309343D+01
 0.426059913050841D+03 -.334975053742443D+03 -.209813903560772D+03 0.159049956780028D+03
0.131562706625D-04 0.000000000000D+00 0.000000000000D+00 0.119572752754D-08 0.000000000000D+00  7 -2 2 23 -13 13 23 21 0 0.60612336D-01 0.29476512D-01 0.46761754D+05 0.46761754D+05 0.46761754D+05 0.11498620D+01  1  2  2  2  7  2        2 0.748963668371D-03 0.100000000000D+01
-.679955914156D-06 0.000000000000D+00 -.505235434697D-07 0.119572752754D-08 0.000000000000D+00  7 -2 2 23 -13 13 23 21 2 0.60612336D-01 0.29476512D-01 0.46761754D+05 0.46761754D+05 0.46761754D+05 0.11498620D+01  1  2  3  2  7  2        2 -.511799843896D-04 0.100000000000D+01
0.819383938074D-06 0.000000000000D+00 0.000000000000D+00 0.119572752754D-08 0.000000000000D+00  7 -2 2 23 -13 13 23 21 2 0.60612336D-01 0.29476512D-01 0.46761754D+05 0.46761754D+05 0.46761754D+05 0.11498620D+01  1  2 15  2  7  2        2 0.616746707937D-04 0.100000000000D+01
  </mgrwgt>
  </event>
  <event>
  8     66 0.27870365E-05 0.21353451E+03 0.75467711E-02 0.10282844E+00
       -2 -1    0    0    0  501 0.00000000E+00 0.00000000E+00 0.25572134E+03 0.25572154E+03 0.32000000E+00 0.0000E+00 0.9000E+01
        2 -1    0    0  501    0 0.00000000E+00 0.00000000E+00 -.32677252E+03 0.32677267E+03 0.32000000E+00 0.0000E+00 0.9000E+01
       25  2    1    2    0    0 0.56318007E+02 -.49184066E+02 0.14022639E+03 0.34053502E+03 0.30118079E+03 0.0000E+00 0.0000E+00
       23  2    3    3    0    0 0.12596343E+03 0.44558797E+02 0.64507367E+02 0.17414142E+03 0.91168855E+02 0.0000E+00 0.0000E+00
       23  1    1    2    0    0 -.56318007E+02 0.49184066E+02 -.21127756E+03 0.24195919E+03 0.91188000E+02 0.0000E+00 0.9000E+01
      -13  1    4    4    0    0 0.11574314E+03 0.68815995E+02 0.47430686E+02 0.14276483E+03 0.10565837E+00 0.0000E+00 0.9000E+01
       13  1    4    4    0    0 0.10220291E+02 -.24257197E+02 0.17076681E+02 0.31376586E+02 0.10565837E+00 0.0000E+00 0.9000E+01
       23  1    3    3    0    0 -.69645425E+02 -.93742863E+02 0.75719022E+02 0.16639360E+03 0.91188000E+02 0.0000E+00 0.9000E+01
#aMCatNLO 1  0  0  2  2 0.86968034D+02 0.00000000D+00  -5  7  0 0.00000000D+00 0.00000000D+00 0.00000000D+00 0.00000000D+00 0.00000000D+00
  <mgrwgt>
 0.3783455705D-03    4    2    0
 0.289072325629643D+03 0.000000000000000D+00 0.000000000000000D+00 0.289072325629643D+03
 0.289072325629643D+03 0.000000000000000D+00 0.000000000000000D+00 -.289072325629643D+03
 0.217814541985901D+03 -.563180079533418D+02 0.491840672613132D+02 -.183131463338034D+03
 0.149668047429442D+03 0.115743278350660D+03 0.688161164890225D+02 0.653326874493349D+02
 0.337111288380170D+02 0.102201496166128D+02 -.242573224208294D+02 0.210611267105859D+02
 0.176950933005926D+03 -.696454200139315D+02 -.937428613295062D+02 0.967376491781131D+02
 0.000000000000000D+00 -.000000000000000D+00 0.000000000000000D+00 0.000000000000000D+00
 0.356226500309599D+03 0.000000000000000D+00 0.000000000000000D+00 0.356226500309599D+03
 0.321914632544688D+03 0.000000000000000D+00 0.000000000000000D+00 -.321914632544688D+03
 0.209056503980128D+03 -.306070445842165D+02 0.302563459440047D+02 -.183131463338034D+03
 0.159236043356110D+03 0.134348948231096D+03 0.551191215782203D+02 0.653326874493349D+02
 0.374917427484258D+02 0.145087853543509D+02 -.274145009718608D+02 0.210611267105859D+02
 0.178864901036945D+03 -.482141986610570D+02 -.109519951414893D+03 0.967376491781131D+02
 0.934919417326791D+02 -.700364903401737D+02 0.515589848645284D+02 0.343118677649112D+02
0.845704308771D-05 0.000000000000D+00 0.000000000000D+00 0.117353081665D-06 0.000000000000D+00  7 -2 2 23 -13 13 23 21 0 0.39341772D-01 0.50272722D-01 0.45596986D+05 0.45596986D+05 0.45596986D+05 0.11508335D+01  1  2  2  2  7  2        2 0.618428234219D-03 0.100000000000D+01
-.417431737750D-06 0.000000000000D+00 -.324772722474D-07 0.117353081665D-06 0.000000000000D+00  7 -2 2 23 -13 13 23 21 2 0.39341772D-01 0.50272722D-01 0.45596986D+05 0.45596986D+05 0.45596986D+05 0.11508335D+01  1  2  3  2  7  2        2 -.404279025196D-04 0.100000000000D+01
0.515820472489D-06 0.000000000000D+00 0.000000000000D+00 0.117353081665D-06 0.000000000000D+00  7 -2 2 23 -13 13 23 21 2 0.39341772D-01 0.50272722D-01 0.45596986D+05 0.45596986D+05 0.45596986D+05 0.11508335D+01  1  2 15  2  7  2        2 0.499567663249D-04 0.100000000000D+01
-.257732326463D-05 0.000000000000D+00 0.000000000000D+00 0.117353081665D-06 0.000000000000D+00  7 -2 2 23 -13 13 23 21 2 0.39341772D-01 0.50272722D-01 0.45596986D+05 0.45596986D+05 0.45596986D+05 0.11508335D+01  1  2  4  2  7  2        2 -.249611527542D-03 0.100000000000D+01
  </mgrwgt>
  </event>
  <event>
  8     66 0.27870365E-05 0.89740587E+02 0.75467711E-02 0.10339069E+00
       -2 -1    0    0    0  501 0.00000000E+00 0.00000000E+00 0.34382508E+02 0.34383997E+02 0.32000000E+00 0.0000E+00 0.9000E+01
        2 -1    0    0  501    0 0.00000000E+00 0.00000000E+00 -.17355063E+04 0.17355063E+04 0.32000000E+00 0.0000E+00 0.9000E+01
       25  2    1    2    0    0 -.89147231E+02 0.96059091E+02 -.10931580E+04 0.11413108E+04 0.30070139E+03 0.0000E+00 0.0000E+00
       23  2    3    3    0    0 -.28971826E+01 0.16100367E+03 -.56954871E+03 0.59896513E+03 0.91885376E+02 0.0000E+00 0.0000E+00
       23  1    1    2    0    0 0.89147231E+02 -.96059091E+02 -.60796575E+03 0.62857950E+03 0.91188000E+02 0.0000E+00 0.9000E+01
      -13  1    4    4    0    0 -.36223852E+02 0.12179518E+03 -.47037491E+03 0.48723587E+03 0.10565837E+00 0.0000E+00 0.9000E+01
       13  1    4    4    0    0 0.33326669E+02 0.39208499E+02 -.99173798E+02 0.11172926E+03 0.10565837E+00 0.0000E+00 0.9000E+01
       23  1    3    3    0    0 -.86250048E+02 -.64944583E+02 -.52360932E+03 0.54234569E+03 0.91188000E+02 0.0000E+00 0.9000E+01
#aMCatNLO 1  0  0  2  1 0.14007993D+02 0.00000000D+00  -5  7  0 0.00000000D+00 0.00000000D+00 0.00000000D+00 0.00000000D+00 0.00000000D+00
  <mgrwgt>
 0.6980261944D-03    9    2    0
 0.244279352719502D+03 0.000000000000000D+00 0.000000000000000D+00 0.244279352719502D+03
 0.244279352719502D+03 0.000000000000000D+00 0.000000000000000D+00 -.244279352719502D+03
 0.160250486147930D+03 0.891472376498257D+02 -.960590982110240D+02 -.137980664202670D+02
 0.127289016334218D+03 -.362239462468154D+02 0.121795283402595D+03 -.749855576243901D+01
 0.594433706182689D+02 0.333267575364944D+02 0.392083881005213D+02 0.297580887343843D+02
 0.141575832338588D+03 -.862500489395047D+02 -.649445732920919D+02 -.846146655167824D+01
 0.000000000000000D+00 0.000000000000000D+00 0.000000000000000D+00 -.000000000000000D+00
 0.249186617971551D+03 0.000000000000000D+00 0.000000000000000D+00 0.249186617971551D+03
 0.254585114556508D+03 0.000000000000000D+00 0.000000000000000D+00 -.254585114556508D+03
 0.158944925336569D+03 0.848892507103605D+02 -.977326272190761D+02 -.137980664202670D+02
 0.127030564115106D+03 -.396165058295714D+02 0.120461895829076D+03 -.749855576243901D+01
 0.581672549632028D+02 0.317578612126431D+02 0.385917602090038D+02 0.297580887343843D+02
 0.144616738891138D+03 -.900677862459425D+02 -.664450697046641D+02 -.846146655167824D+01
 0.150122492220427D+02 0.130371801525103D+02 0.512404088566054D+01 -.539849658495700D+01
0.125130236151D-05 0.000000000000D+00 0.000000000000D+00 0.488522137018D-07 0.000000000000D+00  7 -2 2 23 -13 13 23 21 0 0.52897334D-02 0.26700108D+00 0.57481140D+05 0.57481140D+05 0.57481140D+05 0.11420068D+01  1  2  2  2  7  2        2 0.246804488152D-03 0.100000000000D+01
-.694872211102D-07 0.000000000000D+00 -.480533054366D-08 0.488522137018D-07 0.000000000000D+00  7 -2 2 23 -13 13 23 21 2 0.52897334D-02 0.26700108D+00 0.57481140D+05 0.57481140D+05 0.57481140D+05 0.11420068D+01  1  2  3  2  7  2        2 -.178744661155D-04 0.100000000000D+01
0.814868132400D-07 0.000000000000D+00 0.000000000000D+00 0.488522137018D-07 0.000000000000D+00  7 -2 2 23 -13 13 23 21 2 0.52897334D-02 0.26700108D+00 0.57481140D+05 0.57481140D+05 0.57481140D+05 0.11420068D+01  1  2 15  2  7  2        2 0.209611675189D-04 0.100000000000D+01
0.316349041246D-05 0.000000000000D+00 0.000000000000D+00 0.488522137018D-07 0.000000000000D+00  7 -2 2 23 -13 13 23 21 2 0.52897334D-02 0.28086252D+00 0.60887974D+05 0.60887974D+05 0.60887974D+05 0.11398446D+01  1  2 12  2  7  2        2 0.726336216568D-03 0.100000000000D+01
-.297315211556D-05 0.000000000000D+00 0.000000000000D+00 0.488522137018D-07 0.000000000000D+00  7 -2 2 23 -13 13 23 21 2 0.52897334D-02 0.26700108D+00 0.57481140D+05 0.57481140D+05 0.57481140D+05 0.11420068D+01  1  2  4  2  7  2        2 -.764795395422D-03 0.100000000000D+01
-.172833050332D-04 0.000000000000D+00 -.255719668604D-05 0.488522137018D-07 0.000000000000D+00  7 -2 2 23 -13 13 23 21 2 0.52897334D-02 0.28097221D+00 0.57481140D+05 0.57481140D+05 0.57481140D+05 0.11420068D+01  1  2  5  2  7  2        2 -.398117535441D-02 0.100000000000D+01
0.173944232632D-04 0.000000000000D+00 0.255387425324D-05 0.488522137018D-07 0.000000000000D+00  7 -2 2 23 -13 13 23 21 2 0.52897334D-02 0.26700108D+00 0.57481140D+05 0.57481140D+05 0.57481140D+05 0.11420068D+01  1  2  6  2  7  2        2 0.447443464062D-02 0.100000000000D+01
0.409133738285D-07 0.000000000000D+00 0.000000000000D+00 0.488522137018D-07 0.000000000000D+00  7 -2 21 23 -13 13 23 -2 2 0.52897334D-02 0.28086252D+00 0.60887974D+05 0.60887974D+05 0.60887974D+05 0.11398446D+01  1  2 12  4  7  2        2 0.245733795566D-05 0.100000000000D+01
-.151006249729D-06 0.000000000000D+00 -.226885157692D-07 0.488522137018D-07 0.000000000000D+00  7 -2 21 23 -13 13 23 -2 2 0.52897334D-02 0.28097221D+00 0.57481140D+05 0.57481140D+05 0.57481140D+05 0.11420068D+01  1  2  5  4  7  2        2 -.912244051021D-05 0.100000000000D+01
  </mgrwgt>
  </event>
  <event>
  8     66 0.27870365E-05 0.14562379E+03 0.75467711E-02 0.95346840E-01
       -2 -1    0    0    0  501 0.00000000E+00 0.00000000E+00 0.37322118E+03 0.37322132E+03 0.32000000E+00 0.0000E+00 0.9000E+01
        2 -1    0    0  501    0 0.00000000E+00 0.00000000E+00 -.43445446E+03 0.43445458E+03 0.32000000E+00 0.0000E+00 0.9000E+01
       25  2    1    2    0    0 -.96003043E+02 0.25097224E+03 0.17453148E+03 0.43875325E+03 0.29973243E+03 0.0000E+00 0.0000E+00
       23  2    3    3    0    0 0.69690797E+02 0.73909545E+02 0.93113586E+02 0.16718416E+03 0.94662428E+02 0.0000E+00 0.0000E+00
       23  1    1    2    0    0 0.96003043E+02 -.25097224E+03 -.23576476E+03 0.36892265E+03 0.91188000E+02 0.0000E+00 0.9000E+01
      -11  1    4    4    0    0 -.11288569E+02 0.17758761E+02 0.59427799E+02 0.63043387E+02 0.51099893E-03 0.0000E+00 0.9000E+01
       11  1    4    4    0    0 0.80979366E+02 0.56150784E+02 0.33685787E+02 0.10414077E+03 0.51099893E-03 0.0000E+00 0.9000E+01
       23  1    3    3    0    0 -.16569384E+03 0.17706269E+03 0.81417892E+02 0.27156909E+03 0.91188000E+02 0.0000E+00 0.9000E+01
#aMCatNLO 1  0  0  1  2 0.24283003D+03 0.00000000D+00  -5  7  0 0.00000000D+00 0.00000000D+00 0.00000000D+00 0.00000000D+00 0.00000000D+00
  <mgrwgt>
 0.3548521761D-03    9    2    0
 0.402675689749966D+03 0.000000000000000D+00 0.000000000000000D+00 0.402675689749966D+03
 0.402675689749966D+03 0.000000000000000D+00 0.000000000000000D+00 -.402675689749966D+03
 0.352061585922961D+03 0.960030430723922D+02 -.250972238096941D+03 -.208394962424822D+03
 0.677438258830850D+02 -.112885692232277D+02 0.177587608341045D+02 0.643927058276573D+02
 0.107002590072523D+03 0.809793657665863D+02 0.561507841200795D+02 0.417011516024436D+02
 0.278543377621363D+03 -.165693839615751D+03 0.177062693142757D+03 0.102301104994721D+03
 0.000000000000000D+00 -.000000000000000D+00 -.000000000000000D+00 0.000000000000000D+00
 0.633295118782012D+03 0.000000000000000D+00 0.000000000000000D+00 0.633295118782012D+03
 0.489884911275863D+03 0.000000000000000D+00 0.000000000000000D+00 -.489884911275863D+03
 0.293162317902193D+03 0.995103870014258D+02 -.155878529017212D+03 -.208394962424822D+03
 0.759818383553959D+02 -.105072972757306D+02 0.389411851388440D+02 0.643927058276573D+02
 0.129579918864274D+03 0.822653941073154D+02 0.910185380033648D+02 0.417011516024436D+02
 0.342440157770049D+03 -.162318262827642D+03 0.268583833800643D+03 0.102301104994721D+03
 0.282015797165962D+03 -.895022100536821D+01 -.242665027925640D+03 0.143410207506149D+03
0.141379228422D-04 0.000000000000D+00 0.000000000000D+00 0.969831059594D-07 0.000000000000D+00  7 -2 2 23 -11 11 23 21 0 0.57418663D-01 0.66839168D-01 0.10970029D+06 0.10970029D+06 0.10970029D+06 0.11184374D+01  1  2  2  1  7  1       -2 0.363208675114D-03 0.100000000000D+01
-.748986156241D-06 0.000000000000D+00 -.542933463147D-07 0.969831059594D-07 0.000000000000D+00  7 -2 2 23 -11 11 23 21 2 0.57418663D-01 0.66839168D-01 0.10970029D+06 0.10970029D+06 0.10970029D+06 0.11184374D+01  1  2  3  1  7  1       -2 -.240695377892D-04 0.100000000000D+01
0.906626996322D-06 0.000000000000D+00 0.000000000000D+00 0.969831059594D-07 0.000000000000D+00  7 -2 2 23 -11 11 23 21 2 0.57418663D-01 0.66839168D-01 0.10970029D+06 0.10970029D+06 0.10970029D+06 0.11184374D+01  1  2 15  1  7  1       -2 0.291355088033D-04 0.100000000000D+01
0.117141539410D-05 0.000000000000D+00 0.000000000000D+00 0.969831059594D-07 0.000000000000D+00  7 -2 2 23 -11 11 23 21 2 0.93634007D-01 0.66839168D-01 0.22035794D+06 0.22035794D+06 0.22035794D+06 0.10946067D+01  1  2 12  1  7  1       -2 0.122061028253D-04 0.100000000000D+01
-.729916426976D-05 0.000000000000D+00 0.000000000000D+00 0.969831059594D-07 0.000000000000D+00  7 -2 2 23 -11 11 23 21 2 0.57418663D-01 0.66839168D-01 0.10970029D+06 0.10970029D+06 0.10970029D+06 0.11184374D+01  1  2  4  1  7  1       -2 -.234567099481D-03 0.100000000000D+01
-.655165995654D-05 0.000000000000D+00 -.460539798283D-05 0.969831059594D-07 0.000000000000D+00  7 -2 2 23 -11 11 23 21 2 0.10505435D+00 0.66839168D-01 0.10970029D+06 0.10970029D+06 0.10970029D+06 0.11184374D+01  1  2  5  1  7  1       -2 -.551597759889D-04 0.100000000000D+01
0.846982058386D-05 0.000000000000D+00 0.387630112422D-05 0.969831059594D-07 0.000000000000D+00  7 -2 2 23 -11 11 23 21 2 0.57418663D-01 0.66839168D-01 0.10970029D+06 0.10970029D+06 0.10970029D+06 0.11184374D+01  1  2  6  1  7  1       -2 0.272187496274D-03 0.100000000000D+01
0.649018154907D-07 0.000000000000D+00 0.000000000000D+00 0.969831059594D-07 0.000000000000D+00  7 21 2 23 -11 11 23 2 2 0.93634007D-01 0.66839168D-01 0.22035794D+06 0.22035794D+06 0.22035794D+06 0.10946067D+01  1  2 12  3  7  1       -2 0.636327510718D-05 0.100000000000D+01
-.181886761864D-06 0.000000000000D+00 -.304101133941D-06 0.969831059594D-07 0.000000000000D+00  7 21 2 23 -11 11 23 2 2 0.10505435D+00 0.66839168D-01 0.10970029D+06 0.10970029D+06 0.10970029D+06 0.11184374D+01  1  2  5  3  7  1       -2 -.144524687774D-04 0.100000000000D+01
  </mgrwgt>
  </event>
  <event>
  9     66 0.27870365E-05 0.20041861E+03 0.75467711E-02 0.10115220E+00
       -4 -1    0    0    0  502 0.00000000E+00 0.00000000E+00 0.58192568E+03 0.58192775E+03 0.15500000E+01 0.0000E+00 0.9000E+01
        4 -1    0    0  501    0 0.00000000E+00 0.00000000E+00 -.31800378E+03 0.31800756E+03 0.15500000E+01 0.0000E+00 0.9000E+01
       25  2    1    2    0    0 -.10871994E+03 -.10574867E+03 -.17600120E+03 0.38017210E+03 0.30091793E+03 0.0000E+00 0.0000E+00
       23  2    3    3    0    0 -.92890290E+02 -.16135437E+03 -.48371120E+02 0.21299776E+03 0.91457329E+02 0.0000E+00 0.0000E+00
       23  1    1    2    0    0 0.29990882E+02 -.39236624E+02 0.11176043E+03 0.15246183E+03 0.91188000E+02 0.0000E+00 0.9000E+01
      -13  1    4    4    0    0 -.71786401E+02 -.17006617E+03 -.43495046E+02 0.18965131E+03 0.10565837E+00 0.0000E+00 0.9000E+01
       13  1    4    4    0    0 -.21103889E+02 0.87117996E+01 -.48760746E+01 0.23346453E+02 0.10565837E+00 0.0000E+00 0.9000E+01
       23  1    3    3    0    0 -.15829649E+02 0.55605701E+02 -.12763008E+03 0.16717434E+03 0.91188000E+02 0.0000E+00 0.9000E+01
       21  1    1    2  501  502 0.78729057E+02 0.14498529E+03 0.32816267E+03 0.36730137E+03 0.75000000E+00 0.0000E+00 0.9000E+01
#aMCatNLO 2  0  0  1  2 0.16498182D+03 0.00000000D+00  -5  7  0 0.00000000D+00 0.00000000D+00 0.00000000D+00 0.00000000D+00 0.00000000D+00
  <mgrwgt>
 0.6338897687D-05    2    2    0
 0.251173760641539D+03 0.000000000000000D+00 0.000000000000000D+00 0.251173760641539D+03
 0.251173760641539D+03 0.000000000000000D+00 0.000000000000000D+00 -.251173760641539D+03
 0.169321720710294D+03 0.556830394451872D+02 0.807734708329391D+01 0.131105870740163D+03
 0.135189023717572D+03 -.472802986962068D+02 -.124936504374929D+03 -.207729478765321D+02
 0.233372087008445D+02 -.175714361997618D+02 0.152171834143587D+02 -.207539604852681D+01
 0.174499568154369D+03 0.916869545078143D+01 0.101641973877276D+03 -.108257526815104D+03
 0.000000000000000D+00 0.000000000000000D+00 0.000000000000000D+00 0.000000000000000D+00
 0.656909458255737D+03 0.000000000000000D+00 0.000000000000000D+00 0.656909458255737D+03
 0.281708183487553D+03 0.000000000000000D+00 0.000000000000000D+00 -.281708183487553D+03
 0.167161498944096D+03 0.299908851864554D+02 -.392366263640666D+02 0.131105870740163D+03
 0.185761653149502D+03 -.717864666649479D+02 -.170066397683720D+03 -.207729478765321D+02
 0.229254916791795D+02 -.211038216655508D+02 0.871203828518431D+01 -.207539604852681D+01
 0.152897071628332D+03 -.158296535953532D+02 0.556056932646966D+02 -.108257526815104D+03
 0.409871926342179D+03 0.787290567393965D+02 0.144985292497906D+03 0.375201274768184D+03
-.309295600237D-06 0.000000000000D+00 0.000000000000D+00 0.101421403520D-06 0.000000000000D+00  7 -4 4 23 -13 13 23 21 2 0.88042355D-01 0.43621161D-01 0.85288423D+05 0.85288423D+05 0.85288423D+05 0.11274378D+01  1  2 13  1  7  1       -4 -.477535945136D-06 0.100000000000D+01
0.593134738060D-05 0.000000000000D+00 0.000000000000D+00 0.101421403520D-06 0.381745663006D-10  7 -4 4 23 -13 13 23 21 2 0.89527374D-01 0.48924052D-01 0.85288423D+05 0.85288423D+05 0.85288423D+05 0.11274378D+01  1  2  1  1  7  1       -4 0.681643363169D-05 0.100000000000D+01
  </mgrwgt>
  </event>
  <event>
  8     66 0.27870365E-05 0.42253722E+03 0.75467711E-02 0.86354876E-01
       -2 -1    0    0    0  501 0.00000000E+00 0.00000000E+00 0.20236394E+03 0.20236419E+03 0.32000000E+00 0.0000E+00 0.9000E+01
        2 -1    0    0  501    0 0.00000000E+00 0.00000000E+00 -.90204505E+03 0.90204510E+03 0.32000000E+00 0.0000E+00 0.9000E+01
       25  2    1    2    0    0 0.25529479E+03 0.26480791E+03 -.36452078E+03 0.59849788E+03 0.30004276E+03 0.0000E+00 0.0000E+00
       23  2    3    3    0    0 -.61097669E+01 0.14416732E+03 -.16056498E+03 0.23408093E+03 0.90505385E+02 0.0000E+00 0.0000E+00
       23  1    1    2    0    0 -.25529479E+03 -.26480791E+03 -.33516033E+03 0.50591141E+03 0.91188000E+02 0.0000E+00 0.9000E+01
      -11  1    4    4    0    0 0.30503687E+02 0.24971241E+02 -.68682942E+02 0.79192072E+02 0.51099893E-03 0.0000E+00 0.9000E+01
       11  1    4    4    0    0 -.36613454E+02 0.11919608E+03 -.91882038E+02 0.15488886E+03 0.51099893E-03 0.0000E+00 0.9000E+01
       23  1    3    3    0    0 0.26140456E+03 0.12064059E+03 -.20395580E+03 0.36441695E+03 0.91188000E+02 0.0000E+00 0.9000E+01
#aMCatNLO 1  0  0  2  2 0.95632592D+03 0.00000000D+00  -5  7  0 0.00000000D+00 0.00000000D+00 0.00000000D+00 0.00000000D+00 0.00000000D+00
  <mgrwgt>
 0.4586422406D-03    5    2    0
 0.427248824481301D+03 0.000000000000000D+00 0.000000000000000D+00 0.427248824481301D+03
 0.427248824481301D+03 0.000000000000000D+00 0.000000000000000D+00 -.427248824481301D+03
 0.379436868986017D+03 -.255294789952372D+03 -.264807907640437D+03 -.189322073773716D+02
 0.461139989003232D+02 0.305036867058669D+02 0.249712414587580D+02 -.239262009507931D+02
 0.124953614563769D+03 -.366134535652390D+02 0.119196077916960D+03 0.807191549702040D+01
 0.303993166512494D+03 0.261404556811744D+03 0.120640588264719D+03 0.347864928311444D+02
 0.000000000000000D+00 0.000000000000000D+00 -.000000000000000D+00 -.000000000000000D+00
 0.869821906160890D+03 0.000000000000000D+00 0.000000000000000D+00 0.869821906160890D+03
 0.164146246959245D+04 0.000000000000000D+00 0.000000000000000D+00 -.164146246959245D+04
 0.822446729242250D+03 -.790174838703447D+03 -.208251451137985D+03 -.189322073773716D+02
 0.381991286819837D+02 -.701859070773571D+01 0.289387236173661D+02 -.239262009507931D+02
 0.242312549282756D+03 -.200059684059134D+03 0.136478344561606D+03 0.807191549702040D+01
 0.179510107916912D+03 0.462287649302847D+02 0.143392568530836D+03 0.347864928311444D+02
 0.122881586062944D+04 0.951024348540032D+03 -.100558185571823D+03 -.771640563431560D+03
0.132794102525D-04 0.000000000000D+00 0.000000000000D+00 0.804664001783D-06 0.000000000000D+00  7 -2 2 23 -11 11 23 21 0 0.31132937D-01 0.13877618D+00 0.17853770D+06 0.17853770D+06 0.17853770D+06 0.11016319D+01  1  2  2  2  7  2        2 0.453288684393D-03 0.100000000000D+01
-.737634713964D-06 0.000000000000D+00 -.509964319185D-07 0.804664001783D-06 0.000000000000D+00  7 -2 2 23 -11 11 23 21 2 0.31132937D-01 0.13877618D+00 0.17853770D+06 0.17853770D+06 0.17853770D+06 0.11016319D+01  1  2  3  2  7  2        2 -.305569835860D-04 0.100000000000D+01
0.836878228037D-06 0.000000000000D+00 0.000000000000D+00 0.804664001783D-06 0.000000000000D+00  7 -2 2 23 -11 11 23 21 2 0.31132937D-01 0.13877618D+00 0.17853770D+06 0.17853770D+06 0.17853770D+06 0.11016319D+01  1  2 15  2  7  2        2 0.346682087943D-04 0.100000000000D+01
0.335071234305D-05 0.000000000000D+00 -.488769727682D-05 0.804664001783D-06 0.000000000000D+00  7 -2 2 23 -11 11 23 21 2 0.31132937D-01 0.64132582D+00 0.17853770D+06 0.17853770D+06 0.17853770D+06 0.11016319D+01  1  2  5  2  7  2        2 0.123898916639D-05 0.100000000000D+01
0.555025829458D-06 0.000000000000D+00 -.906729766814D-06 0.804664001783D-06 0.000000000000D+00  7 -2 21 23 -11 11 23 -2 2 0.31132937D-01 0.64132582D+00 0.17853770D+06 0.17853770D+06 0.17853770D+06 0.11016319D+01  1  2  5  4  7  2        2 0.334184212106D-08 0.100000000000D+01
  </mgrwgt>
  </event>
  <event>
  8     66 0.27870365E-05 0.31141581E+03 0.75467711E-02 0.94653252E-01
       -2 -1    0    0    0  501 0.00000000E+00 0.00000000E+00 0.14615259E+03 0.14615294E+03 0.32000000E+00 0.0000E+00 0.9000E+01
        2 -1    0    0  501    0 0.00000000E+00 0.00000000E+00 -.17758677E+04 0.17758677E+04 0.32000000E+00 0.0000E+00 0.9000E+01
       25  2    1    2    0    0 -.13062404E+03 -.24480057E+03 -.15720094E+04 0.16243041E+04 0.30026689E+03 0.0000E+00 0.0000E+00
       23  2    3    3    0    0 0.19641297E+02 -.59993295E+02 -.88019160E+03 0.88697069E+03 0.89413503E+02 0.0000E+00 0.0000E+00
       23  1    1    2    0    0 0.13062404E+03 0.24480057E+03 -.57705675E+02 0.29771657E+03 0.91188000E+02 0.0000E+00 0.9000E+01
      -13  1    4    4    0    0 -.12880459E+02 -.23759619E+02 -.69376022E+03 0.69428645E+03 0.10565837E+00 0.0000E+00 0.9000E+01
       13  1    4    4    0    0 0.32521756E+02 -.36233677E+02 -.18643138E+03 0.19268424E+03 0.10565837E+00 0.0000E+00 0.9000E+01
       23  1    3    3    0    0 -.15026533E+03 -.18480728E+03 -.69181783E+03 0.73733341E+03 0.91188000E+02 0.0000E+00 0.9000E+01
#aMCatNLO 1  0  0  2  2 0.31781347D+03 0.00000000D+00  -5  7  0 0.00000000D+00 0.00000000D+00 0.00000000D+00 0.00000000D+00 0.00000000D+00
  <mgrwgt>
 0.5392831584D-03    3    2    0
 0.509458567114225D+03 0.000000000000000D+00 0.000000000000000D+00 0.509458567114225D+03
 0.509458567114225D+03 0.000000000000000D+00 0.000000000000000D+00 -.509458567114225D+03
 0.469295852721772D+03 0.130624035916237D+03 0.244800570602789D+03 0.367332802661779D+03
 0.200017831462603D+03 -.128805228568535D+02 -.237596012361990D+02 -.198183516930731D+03
 0.652779835058793D+02 0.325218198506605D+02 -.362336940776862D+02 -.434817867351341D+02
 0.284325466538196D+03 -.150265332910044D+03 -.184807275288904D+03 -.125667498995914D+03
 0.000000000000000D+00 0.000000000000000D+00 0.000000000000000D+00 0.000000000000000D+00
 0.109509573615538D+04 0.000000000000000D+00 0.000000000000000D+00 0.109509573615538D+04
 0.578642849249087D+03 0.000000000000000D+00 0.000000000000000D+00 -.578642849249087D+03
 0.416439699208986D+03 0.164298564982806D+02 0.172926121905742D+03 0.367332802661779D+03
 0.216869676688956D+03 -.666280853197017D+02 -.575886145932481D+02 -.198183516930731D+03
 0.658148881012819D+02 0.156205643144104D+02 -.468714378764290D+02 -.434817867351341D+02
 0.368207703327925D+03 -.234393704762599D+03 -.237758138261976D+03 -.125667498995914D+03
 0.606406618077321D+03 0.268971369269610D+03 0.169292068825911D+03 0.516452886906296D+03
0.269198289946D-04 0.000000000000D+00 0.000000000000D+00 0.500654814106D-06 0.000000000000D+00  7 -2 2 23 -13 13 23 21 0 0.22485043D-01 0.27321044D+00 0.96979806D+05 0.96979806D+05 0.96979806D+05 0.11228166D+01  1  2  2  2  7  2        2 0.524976691034D-03 0.100000000000D+01
-.105499227661D-05 0.000000000000D+00 -.103379231493D-06 0.500654814106D-06 0.000000000000D+00  7 -2 2 23 -13 13 23 21 2 0.22485043D-01 0.27321044D+00 0.96979806D+05 0.96979806D+05 0.96979806D+05 0.11228166D+01  1  2  3  2  7  2        2 -.259378923256D-04 0.100000000000D+01
0.163689046662D-05 0.000000000000D+00 0.000000000000D+00 0.500654814106D-06 0.000000000000D+00  7 -2 2 23 -13 13 23 21 2 0.22485043D-01 0.27321044D+00 0.96979806D+05 0.96979806D+05 0.96979806D+05 0.11228166D+01  1  2 15  2  7  2        2 0.402443597106D-04 0.100000000000D+01
  </mgrwgt>
  </event>
  <event>
  8     66 0.27870365E-05 0.40131167E+03 0.75467711E-02 0.96134586E-01
       -2 -1    0    0    0  501 0.00000000E+00 0.00000000E+00 0.12171077E+03 0.12171119E+03 0.32000000E+00 0.0000E+00 0.9000E+01
        2 -1    0    0  501    0 0.00000000E+00 0.00000000E+00 -.16508169E+04 0.16508169E+04 0.32000000E+00 0.0000E+00 0.9000E+01
       25  2    1    2    0    0 0.20785458E+03 -.31992750E+03 -.66525927E+03 0.82379013E+03 0.30083741E+03 0.0000E+00 0.0000E+00
       23  2    3    3    0    0 0.10426802E+03 -.13772862E+03 -.51496167E+03 0.55023716E+03 0.87945554E+02 0.0000E+00 0.0000E+00
       23  1    1    2    0    0 -.20785458E+03 0.31992750E+03 -.86384685E+03 0.94873798E+03 0.91188000E+02 0.0000E+00 0.9000E+01
      -11  1    4    4    0    0 0.75132146E+02 -.13231525E+03 -.33611375E+03 0.36895069E+03 0.51099893E-03 0.0000E+00 0.9000E+01
       11  1    4    4    0    0 0.29135871E+02 -.54133716E+01 -.17884792E+03 0.18128646E+03 0.51099893E-03 0.0000E+00 0.9000E+01
       23  1    3    3    0    0 0.10358656E+03 -.18219888E+03 -.15029761E+03 0.27355297E+03 0.91188000E+02 0.0000E+00 0.9000E+01
#aMCatNLO 1  0  0  1  2 0.73827213D+02 0.00000000D+00  -5  7  0 0.00000000D+00 0.00000000D+00 0.00000000D+00 0.00000000D+00 0.00000000D+00
  <mgrwgt>
 0.3431196851D-03    4    2    0
 0.448243899841455D+03 0.000000000000000D+00 0.000000000000000D+00 0.448243899841455D+03
 0.448243899841455D+03 0.000000000000000D+00 0.000000000000000D+00 -.448243899841455D+03
 0.402405072831531D+03 -.207854576740434D+03 0.319927496768812D+03 -.897633724625299D+02
 0.156189398110023D+03 0.751321462912286D+02 -.132315247592430D+03 -.352556935855569D+02
 0.533837769300965D+02 0.291358712155870D+02 -.541337160286115D+01 -.444029735008858D+02
 0.284509551811261D+03 0.103586559233618D+03 -.182198877573521D+03 0.169422039548973D+03
 0.000000000000000D+00 -.000000000000000D+00 -.000000000000000D+00 -.000000000000000D+00
 0.465974359980052D+03 0.000000000000000D+00 0.000000000000000D+00 0.465974359980052D+03
 0.533805411684872D+03 0.000000000000000D+00 0.000000000000000D+00 -.533805411684872D+03
 0.424187959496499D+03 -.198232408222801D+03 0.352514713071874D+03 -.897633724625299D+02
 0.148019948828425D+03 0.786733733357352D+02 -.120322240874025D+03 -.352556935855569D+02
 0.538164141919677D+02 0.303837625765798D+02 -.118716151010784D+01 -.444029735008858D+02
 0.273498235456060D+03 0.110082192215323D+03 -.160200240092559D+03 0.169422039548973D+03
 0.100257213691972D+03 -.209069199048371D+02 -.708050705951813D+02 -.678310517048199D+02
0.143139481307D-04 0.000000000000D+00 0.000000000000D+00 0.310140139841D-07 0.000000000000D+00  7 -2 2 23 -11 11 23 21 0 0.18724768D-01 0.25397186D+00 0.16105105D+06 0.16105105D+06 0.16105105D+06 0.11051238D+01  1  2  2  1  7  1       -2 0.434992367923D-03 0.100000000000D+01
-.783392409109D-06 0.000000000000D+00 -.549693297712D-07 0.310140139841D-07 0.000000000000D+00  7 -2 2 23 -11 11 23 21 2 0.18724768D-01 0.25397186D+00 0.16105105D+06 0.16105105D+06 0.16105105D+06 0.11051238D+01  1  2  3  1  7  1       -2 -.290752499910D-04 0.100000000000D+01
0.892982966535D-06 0.000000000000D+00 0.000000000000D+00 0.310140139841D-07 0.000000000000D+00  7 -2 2 23 -11 11 23 21 2 0.18724768D-01 0.25397186D+00 0.16105105D+06 0.16105105D+06 0.16105105D+06 0.11051238D+01  1  2 15  1  7  1       -2 0.331426532703D-04 0.100000000000D+01
-.258497296530D-05 0.000000000000D+00 0.000000000000D+00 0.310140139841D-07 0.000000000000D+00  7 -2 2 23 -11 11 23 21 2 0.18724768D-01 0.25397186D+00 0.16105105D+06 0.16105105D+06 0.16105105D+06 0.11051238D+01  1  2  4  1  7  1       -2 -.959400861080D-04 0.100000000000D+01
  </mgrwgt>
  </event>
  <event>
  9     66 0.27870365E-05 0.25643343E+03 0.75467711E-02 0.97730319E-01
       21 -1    0    0  502  501 0.00000000E+00 0.00000000E+00 0.22902822E+03 0.22902945E+03 0.75000000E+00 0.0000E+00 0.9000E+01
        2 -1    0    0  501    0 0.00000000E+00 0.00000000E+00 -.79390756E+03 0.79390762E+03 0.32000000E+00 0.0000E+00 0.9000E+01
       25  2    1    2    0    0 -.12156850E+03 -.28872492E+03 -.21966503E+03 0.47867131E+03 0.28763259E+03 0.0000E+00 0.0000E+00
       23  2    3    3    0    0 0.22326767E+02 -.16920421E+03 -.27025045E+02 0.19509333E+03 0.90567692E+02 0.0000E+00 0.0000E+00
       23  1    1    2    0    0 -.28851576E+02 0.13495252E+03 -.26951500E+03 0.31622489E+03 0.91188000E+02 0.0000E+00 0.9000E+01
      -11  1    4    4    0    0 0.34201270E+00 0.40224210E+01 -.19928266E+02 0.20333043E+02 0.51099893E-03 0.0000E+00 0.9000E+01
       11  1    4    4    0    0 0.21984754E+02 -.17322663E+03 -.70967785E+01 0.17476029E+03 0.51099893E-03 0.0000E+00 0.9000E+01
       23  1    3    3    0    0 -.14389527E+03 -.11952072E+03 -.19263999E+03 0.28357797E+03 0.91188000E+02 0.0000E+00 0.9000E+01
        2  1    1    2  502    0 0.15042008E+03 0.15377241E+03 -.75699303E+02 0.22804087E+03 0.32000000E+00 0.0000E+00 0.9000E+01
#aMCatNLO 2  0  0  1  2 0.21510963D+03 0.00000000D+00  -5  7  0 0.00000000D+00 0.00000000D+00 0.00000000D+00 0.00000000D+00 0.00000000D+00
  <mgrwgt>
 0.1125890585D-02    2    2    0
 0.294232350980553D+03 0.000000000000000D+00 0.000000000000000D+00 0.294232350980553D+03
 0.294232350980553D+03 0.000000000000000D+00 0.000000000000000D+00 -.294232350980553D+03
 0.231002341003699D+03 0.233639467400143D+02 0.188331738857508D+03 -.950374259795918D+02
 0.120383289468678D+02 0.309975942086196D+01 0.684162806847466D+01 -.940770858064986D+01
 0.190519769605720D+03 0.723341731512660D+02 -.121755101249000D+03 0.127441144553025D+03
 0.154904262404819D+03 -.987978793121422D+02 -.734182656769832D+02 -.229960099927835D+02
 0.000000000000000D+00 0.000000000000000D+00 0.000000000000000D+00 0.000000000000000D+00
 0.469381869959365D+03 0.000000000000000D+00 0.000000000000000D+00 0.469381869959365D+03
 0.387377123979518D+03 0.000000000000000D+00 0.000000000000000D+00 -.387377123979518D+03
 0.190766766897586D+03 -.288515762783439D+02 0.134952518383269D+03 -.950374259795918D+02
 0.102372762167143D+02 0.342012700257862D+00 0.402242102616502D+01 -.940770858064986D+01
 0.216175946126468D+03 0.219847542193039D+02 -.173226628843852D+03 0.127441144553025D+03
 0.209368379892958D+03 -.143895270710731D+03 -.119520716808842D+03 -.229960099927835D+02
 0.230210624805155D+03 0.150420080069513D+03 0.153772406243260D+03 0.820047459798464D+02
-.499745450916D-07 0.000000000000D+00 0.000000000000D+00 0.666711792129D-09 0.000000000000D+00  7 21 2 23 -11 11 23 2 2 0.37056045D-01 0.92771220D-01 0.14717677D+06 0.14717677D+06 0.14717677D+06 0.11082037D+01  1  2 13  3  7  1       -2 -.284738646448D-04 0.100000000000D+01
0.255095082574D-05 0.000000000000D+00 0.000000000000D+00 0.666711792129D-09 0.957303486354D-14  7 21 2 23 -11 11 23 2 2 0.35235201D-01 0.12213969D+00 0.14717677D+06 0.14717677D+06 0.14717677D+06 0.11082037D+01  1  2  1  3  7  1       -2 0.115436444959D-02 0.100000000000D+01
  </mgrwgt>
  </event>
  <event>
  8     66 0.27870365E-05 0.37094147E+03 0.75467711E-02 0.85847753E-01
       -2 -1    0    0    0  501 0.00000000E+00 0.00000000E+00 0.98529159E+02 0.98529678E+02 0.32000000E+00 0.0000E+00 0.9000E+01
        2 -1    0    0  501    0 0.00000000E+00 0.00000000E+00 -.15438178E+04 0.15438179E+04 0.32000000E+00 0.0000E+00 0.9000E+01
       25  2    1    2    0    0 -.16490938E+03 -.27967707E+03 -.82524530E+03 0.93652646E+03 0.30106085E+03 0.0000E+00 0.0000E+00
       23  2    3    3    0    0 -.14567963E+03 -.27390329E+03 -.47922972E+03 0.57813400E+03 0.91281047E+02 0.0000E+00 0.0000E+00
       23  1    1    2    0    0 0.16490938E+03 0.27967707E+03 -.62004337E+03 0.70582108E+03 0.91188000E+02 0.0000E+00 0.9000E+01
      -11  1    4    4    0    0 -.35734726E+02 -.46125317E+02 -.38243350E+02 0.69764385E+02 0.51099893E-03 0.0000E+00 0.9000E+01
       11  1    4    4    0    0 -.10994491E+03 -.22777798E+03 -.44098637E+03 0.50836962E+03 0.51099893E-03 0.0000E+00 0.9000E+01
       23  1    3    3    0    0 -.19229749E+02 -.57737767E+01 -.34601558E+03 0.35839245E+03 0.91188000E+02 0.0000E+00 0.9000E+01
#aMCatNLO 1  0  0  2  2 0.10644484D+04 0.00000000D+00  -5  7  0 0.00000000D+00 0.00000000D+00 0.00000000D+00 0.00000000D+00 0.00000000D+00
  <mgrwgt>
 0.5874595492D-03    3    2    0
 0.390014776522217D+03 0.000000000000000D+00 0.000000000000000D+00 0.390014776522217D+03
 0.390014776522217D+03 0.000000000000000D+00 0.000000000000000D+00 -.390014776522217D+03
 0.337246018451727D+03 0.164909383218174D+03 0.279677070330519D+03 0.229287493813731D+01
 0.760287663917386D+02 -.357347255739507D+02 -.461253174760427D+02 0.487427717198998D+02
 0.253281411980924D+03 -.109944908922710D+03 -.227777976174303D+03 0.134456025140746D+02
 0.113473356220044D+03 -.192297487215140D+02 -.577377668017328D+01 -.644812491721117D+02
 0.000000000000000D+00 0.000000000000000D+00 -.000000000000000D+00 0.000000000000000D+00
 0.134087552261200D+04 0.000000000000000D+00 0.000000000000000D+00 0.134087552261200D+04
 0.107575132697413D+04 0.000000000000000D+00 0.000000000000000D+00 -.107575132697413D+04
 0.947057080454444D+03 0.150282642150218D+03 0.930597513690942D+03 0.229287493813731D+01
 0.667934244904099D+02 -.373613067186746D+02 0.262609314475122D+02 0.487427717198998D+02
 0.121119993849131D+03 -.114208912040992D+03 -.380209559777256D+02 0.134456025140746D+02
 0.184687229030851D+03 -.226254562307845D+02 0.145342280354502D+03 -.644812491721117D+02
 0.109696912176129D+04 0.239130328402322D+02 -.106417976951523D+04 0.265124195637867D+03
0.118608935543D-04 0.000000000000D+00 0.000000000000D+00 0.145556535233D-06 0.000000000000D+00  7 -2 2 23 -11 11 23 21 0 0.15158375D-01 0.23751048D+00 0.13759758D+06 0.13759758D+06 0.13759758D+06 0.11105218D+01  1  2  2  2  7  2        2 0.582767868815D-03 0.100000000000D+01
-.656924338897D-06 0.000000000000D+00 -.455489542935D-07 0.145556535233D-06 0.000000000000D+00  7 -2 2 23 -11 11 23 21 2 0.15158375D-01 0.23751048D+00 0.13759758D+06 0.13759758D+06 0.13759758D+06 0.11105218D+01  1  2  3  2  7  2        2 -.398059276660D-04 0.100000000000D+01
0.734351979523D-06 0.000000000000D+00 0.000000000000D+00 0.145556535233D-06 0.000000000000D+00  7 -2 2 23 -11 11 23 21 2 0.15158375D-01 0.23751048D+00 0.13759758D+06 0.13759758D+06 0.13759758D+06 0.11105218D+01  1  2 15  2  7  2        2 0.444976080920D-04 0.100000000000D+01
  </mgrwgt>
  </event>
  <event>
  8     66 0.27870365E-05 0.75895598E+03 0.75467711E-02 0.87631983E-01
       -2 -1    0    0    0  501 0.00000000E+00 0.00000000E+00 0.43254795E+03 0.43254807E+03 0.32000000E+00 0.0000E+00 0.9000E+01
        2 -1    0    0  501    0 0.00000000E+00 0.00000000E+00 -.16273478E+04 0.16273478E+04 0.32000000E+00 0.0000E+00 0.9000E+01
       25  2    1    2    0    0 -.99749738E+02 0.73871037E+03 -.10021655E+04 0.12846113E+04 0.30041217E+03 0.0000E+00 0.0000E+00
       23  2    3    3    0    0 -.19111957E+02 0.30589175E+03 -.24000798E+03 0.39971936E+03 0.90756303E+02 0.0000E+00 0.0000E+00
       23  1    1    2    0    0 0.99749738E+02 -.73871037E+03 -.19263440E+03 0.77528465E+03 0.91188000E+02 0.0000E+00 0.9000E+01
      -13  1    4    4    0    0 -.51277150E+02 0.16359303E+03 -.15345225E+03 0.23008613E+03 0.10565837E+00 0.0000E+00 0.9000E+01
       13  1    4    4    0    0 0.32165193E+02 0.14229872E+03 -.86555733E+02 0.16963323E+03 0.10565837E+00 0.0000E+00 0.9000E+01
       23  1    3    3    0    0 -.80637781E+02 0.43281863E+03 -.76215748E+03 0.88489191E+03 0.91188000E+02 0.0000E+00 0.9000E+01
#aMCatNLO 1  0  0  2  2 0.38279878D+03 0.00000000D+00  -5  7  0 0.00000000D+00 0.00000000D+00 0.00000000D+00 0.00000000D+00 0.00000000D+00
  <mgrwgt>
 0.2076269277D-03    4    2    0
 0.838991132190971D+03 0.000000000000000D+00 0.000000000000000D+00 0.838991132190971D+03
 0.838991132190971D+03 0.000000000000000D+00 0.000000000000000D+00 -.838991132190971D+03
 0.814577221037452D+03 0.997497377985264D+02 -.738710372265090D+03 0.315559460967653D+03
 0.173189445508442D+03 -.512772629185565D+02 0.163593054914339D+03 -.245466642723024D+02
 0.146610578747766D+03 0.321653061528428D+02 0.142298690652354D+03 0.145305718908265D+02
 0.543605019088281D+03 -.806377810328127D+02 0.432818626698397D+03 -.305543368586177D+03
 0.000000000000000D+00 0.000000000000000D+00 -.000000000000000D+00 0.000000000000000D+00
 0.105238530992066D+04 0.000000000000000D+00 0.000000000000000D+00 0.105238530992066D+04
 0.105150697403263D+04 0.000000000000000D+00 0.000000000000000D+00 -.105150697403263D+04
 0.679246309562287D+03 0.132901347904035D+02 -.594395404273152D+03 0.315559460967653D+03
 0.215665646929331D+03 -.737834400078670D+02 0.201159480311406D+03 -.245466642723024D+02
 0.174453602872925D+03 0.135827352437421D+02 0.173315986969373D+03 0.145305718908265D+02
 0.651726938055680D+03 -.149821271827135D+03 0.548296987830996D+03 -.305543368586177D+03
 0.382799786533067D+03 0.196731841800857D+03 -.328377050838624D+03 0.878335888037530D+00
0.120963561614D-03 0.000000000000D+00 0.000000000000D+00 0.228988460884D-05 0.000000000000D+00  7 -2 2 23 -13 13 23 21 0 0.66545851D-01 0.25036121D+00 0.57601417D+06 0.57601417D+06 0.57601417D+06 0.10641934D+01  1  2  2  2  7  2        2 0.342366189139D-03 0.100000000000D+01
-.663807058168D-05 0.000000000000D+00 -.464531927035D-06 0.228988460884D-05 0.000000000000D+00  7 -2 2 23 -13 13 23 21 2 0.66545851D-01 0.25036121D+00 0.57601417D+06 0.57601417D+06 0.57601417D+06 0.10641934D+01  1  2  3  2  7  2        2 -.212774373157D-04 0.100000000000D+01
0.762935997522D-05 0.000000000000D+00 0.000000000000D+00 0.228988460884D-05 0.000000000000D+00  7 -2 2 23 -13 13 23 21 2 0.66545851D-01 0.25036121D+00 0.57601417D+06 0.57601417D+06 0.57601417D+06 0.10641934D+01  1  2 15  2  7  2        2 0.244548813746D-04 0.100000000000D+01
-.430268369205D-04 0.000000000000D+00 0.000000000000D+00 0.228988460884D-05 0.000000000000D+00  7 -2 2 23 -13 13 23 21 2 0.66545851D-01 0.25036121D+00 0.57601417D+06 0.57601417D+06 0.57601417D+06 0.10641934D+01  1  2  4  2  7  2        2 -.137916705495D-03 0.100000000000D+01
  </mgrwgt>
  </event>
  <event>
  8     66 0.27870365E-05 0.22327301E+03 0.75467711E-02 0.96785802E-01
       -2 -1    0    0    0  501 0.00000000E+00 0.00000000E+00 0.70699108E+02 0.70699832E+02 0.32000000E+00 0.0000E+00 0.9000E+01
        2 -1    0    0  501    0 0.00000000E+00 0.00000000E+00 -.12404191E+04 0.12404191E+04 0.32000000E+00 0.0000E+00 0.9000E+01
       25  2    1    2    0    0 0.15580038E+02 0.11101285E+03 -.11062155E+04 0.11532752E+04 0.30620942E+03 0.0000E+00 0.0000E+00
       23  2    3    3    0    0 -.77233174E+02 -.44421480E+02 -.45245633E+03 0.46881153E+03 0.84435102E+02 0.0000E+00 0.0000E+00
       23  1    1    2    0    0 -.15580038E+02 -.11101285E+03 -.63504405E+02 0.15784376E+03 0.91188000E+02 0.0000E+00 0.9000E+01
      -11  1    4    4    0    0 -.30150652E+01 -.21425085E+02 -.20109725E+02 0.29538550E+02 0.51099893E-03 0.0000E+00 0.9000E+01
       11  1    4    4    0    0 -.74218108E+02 -.22996395E+02 -.43234660E+03 0.43927298E+03 0.51099893E-03 0.0000E+00 0.9000E+01
       23  1    3    3    0    0 0.92813211E+02 0.15543433E+03 -.65375921E+03 0.68446364E+03 0.91188000E+02 0.0000E+00 0.9000E+01
#aMCatNLO 1  0  0  1  2 0.28707059D+03 0.00000000D+00  -5  7  0 0.00000000D+00 0.00000000D+00 0.00000000D+00 0.00000000D+00 0.00000000D+00
  <mgrwgt>
 0.1051983756D-02    3    2    0
 0.296136830505367D+03 0.000000000000000D+00 0.000000000000000D+00 0.296136830505367D+03
 0.296136830505367D+03 0.000000000000000D+00 0.000000000000000D+00 -.296136830505367D+03
 0.224000450699712D+03 -.155800379129576D+02 -.111012850704716D+03 0.171155952180219D+03
 0.256736135234021D+02 -.301506507494523D+01 -.214250846551796D+02 0.138206208782836D+02
 0.118551054854177D+03 -.742181080518280D+02 -.229963945692645D+02 -.895387674756575D+02
 0.224048541933443D+03 0.928132110397308D+02 0.155434329929160D+03 -.954378055828454D+02
 0.000000000000000D+00 0.000000000000000D+00 0.000000000000000D+00 -.000000000000000D+00
 0.388619357133818D+03 0.000000000000000D+00 0.000000000000000D+00 0.388619357133818D+03
 0.675169187178596D+03 0.000000000000000D+00 0.000000000000000D+00 -.675169187178596D+03
 0.287494817324839D+03 -.109071440257833D+03 -.182063394448216D+03 0.171155952180219D+03
 0.359772659164658D+02 -.142836486473576D+02 -.299888559748731D+02 0.138206208782836D+02
 0.167127470510492D+03 -.126434594939986D+03 -.626792925976130D+02 -.895387674756575D+02
 0.167577937877331D+03 0.212314954662859D+02 0.101034463352931D+03 -.954378055828454D+02
 0.405611052683286D+03 0.228558188378891D+03 0.173697079667772D+03 -.286549830044777D+03
0.845070882239D-05 0.000000000000D+00 0.000000000000D+00 0.323200053874D-09 0.000000000000D+00  7 -2 2 23 -11 11 23 21 0 0.10876845D-01 0.19083376D+00 0.49850837D+05 0.49850837D+05 0.49850837D+05 0.11474095D+01  1  2  2  1  7  1       -2 0.103729367342D-02 0.100000000000D+01
-.423952265328D-06 0.000000000000D+00 -.324529470007D-07 0.323200053874D-09 0.000000000000D+00  7 -2 2 23 -11 11 23 21 2 0.10876845D-01 0.19083376D+00 0.49850837D+05 0.49850837D+05 0.49850837D+05 0.11474095D+01  1  2  3  1  7  1       -2 -.685113401064D-04 0.100000000000D+01
0.514855376284D-06 0.000000000000D+00 0.000000000000D+00 0.323200053874D-09 0.000000000000D+00  7 -2 2 23 -11 11 23 21 2 0.10876845D-01 0.19083376D+00 0.49850837D+05 0.49850837D+05 0.49850837D+05 0.11474095D+01  1  2 15  1  7  1       -2 0.832014230728D-04 0.100000000000D+01
  </mgrwgt>
  </event>
  <event>
  8     66 0.27870365E-05 0.10552213E+03 0.75467711E-02 0.10919627E+00
       -2 -1    0    0    0  501 0.00000000E+00 0.00000000E+00 0.58698489E+02 0.58699361E+02 0.32000000E+00 0.0000E+00 0.9000E+01
        2 -1    0    0  501    0 0.00000000E+00 0.00000000E+00 -.12176957E+04 0.12176958E+04 0.32000000E+00 0.0000E+00 0.9000E+01
       25  2    1    2    0    0 0.21227136E+02 -.57809536E+02 -.11169574E+04 0.11586024E+04 0.30161738E+03 0.0000E+00 0.0000E+00
       23  2    3    3    0    0 -.40844019E+02 -.20343896E+02 -.94813815E+03 0.95348850E+03 0.89957016E+02 0.0000E+00 0.0000E+00
       23  1    1    2    0    0 -.21227136E+02 0.57809536E+02 -.42039802E+02 0.11779274E+03 0.91188000E+02 0.0000E+00 0.9000E+01
      -11  1    4    4    0    0 -.15685455E+02 -.54776013E+02 -.46664696E+03 0.47011257E+03 0.51099893E-03 0.0000E+00 0.9000E+01
       11  1    4    4    0    0 -.25158564E+02 0.34432117E+02 -.48149119E+03 0.48337593E+03 0.51099893E-03 0.0000E+00 0.9000E+01
       23  1    3    3    0    0 0.62071154E+02 -.37465640E+02 -.16881927E+03 0.20511387E+03 0.91188000E+02 0.0000E+00 0.9000E+01
#aMCatNLO 1  0  0  2  1 0.38070051D+01 0.00000000D+00  -5  7  0 0.00000000D+00 0.00000000D+00 0.00000000D+00 0.00000000D+00 0.00000000D+00
  <mgrwgt>
 0.1451393844D-03   11    2    0
 0.267352728737676D+03 0.000000000000000D+00 0.000000000000000D+00 0.267352728737676D+03
 0.267352728737676D+03 0.000000000000000D+00 0.000000000000000D+00 -.267352728737676D+03
 0.190059901542403D+03 -.212271359256434D+02 0.578095357775172D+02 0.154967677610172D+03
 0.110727987904454D+03 -.156854548002857D+02 -.547760130314997D+02 -.949433631669439D+02
 0.110213432871149D+03 -.251585637431309D+02 0.344321170360085D+02 -.101629113801335D+03
 0.123704135157345D+03 0.620711544690600D+02 -.374656397820260D+02 0.416047993581070D+02
 0.000000000000000D+00 -.000000000000000D+00 0.000000000000000D+00 -.000000000000000D+00
 0.267443704451157D+03 0.000000000000000D+00 0.000000000000000D+00 0.267443704451157D+03
 0.310392084755220D+03 0.000000000000000D+00 0.000000000000000D+00 -.310392084755220D+03
 0.189747664880864D+03 -.200134488423306D+02 0.572136849476212D+02 0.154967677610172D+03
 0.110802416277212D+03 -.149775473916778D+02 -.551235550155152D+02 -.949433631669439D+02
 0.109947397124693D+03 -.244550328521228D+02 0.340867236714186D+02 -.101629113801335D+03
 0.124221531610744D+03 0.628634087735538D+02 -.378545912599743D+02 0.416047993581070D+02
 0.431167793128649D+02 -.341737968742257D+01 0.167773765644972D+01 -.429483803040629D+02
0.740437000415D-06 0.000000000000D+00 0.000000000000D+00 0.166355384154D-07 0.000000000000D+00  7 -2 2 23 -11 11 23 21 0 0.90306070D-02 0.18733787D+00 0.26594270D+05 0.26594270D+05 0.26594270D+05 0.11722228D+01  1  2  2  2  7  2        2 0.124282182903D-03 0.100000000000D+01
-.289130450627D-07 0.000000000000D+00 -.284347304313D-08 0.166355384154D-07 0.000000000000D+00  7 -2 2 23 -11 11 23 21 2 0.90306070D-02 0.18733787D+00 0.26594270D+05 0.26594270D+05 0.26594270D+05 0.11722228D+01  1  2  3  2  7  2        2 -.666860428284D-05 0.100000000000D+01
0.450655448447D-07 0.000000000000D+00 0.000000000000D+00 0.166355384154D-07 0.000000000000D+00  7 -2 2 23 -11 11 23 21 2 0.90306070D-02 0.18733787D+00 0.26594270D+05 0.26594270D+05 0.26594270D+05 0.11722228D+01  1  2 15  2  7  2        2 0.103940724579D-04 0.100000000000D+01
0.100836088013D-04 0.000000000000D+00 0.000000000000D+00 0.166355384154D-07 0.000000000000D+00  7 -2 2 23 -11 11 23 21 2 0.90306070D-02 0.21752490D+00 0.27129912D+05 0.27129912D+05 0.27129912D+05 0.11714098D+01  1  2 12  2  7  2        2 0.182055884367D-02 0.100000000000D+01
-.132774465144D-03 0.000000000000D+00 0.000000000000D+00 0.166355384154D-07 0.000000000000D+00  7 -2 2 23 -11 11 23 21 2 0.90306070D-02 0.18733787D+00 0.26594270D+05 0.26594270D+05 0.26594270D+05 0.11722228D+01  1  2  4  2  7  2        2 -.306235598842D-01 0.100000000000D+01
-.135248616101D-03 0.000000000000D+00 -.607071797183D-06 0.166355384154D-07 0.000000000000D+00  7 -2 2 23 -11 11 23 21 2 0.90306070D-02 0.21752305D+00 0.26594270D+05 0.26594270D+05 0.26594270D+05 0.11722228D+01  1  2  5  2  7  2        2 -.244546033030D-01 0.100000000000D+01
0.133849632355D-03 0.000000000000D+00 0.600360006750D-06 0.166355384154D-07 0.000000000000D+00  7 -2 2 23 -11 11 23 21 2 0.90306070D-02 0.18733787D+00 0.26594270D+05 0.26594270D+05 0.26594270D+05 0.11722228D+01  1  2  6  2  7  2        2 0.308715401523D-01 0.100000000000D+01
0.124131845469D-03 0.000000000000D+00 0.000000000000D+00 0.166355384154D-07 0.849189618815D-08  7 -2 2 23 -11 11 23 21 2 0.90336800D-02 0.21749616D+00 0.27129912D+05 0.27129912D+05 0.27129912D+05 0.11714098D+01  1  2 11  2  7  2        2 0.224051672636D-01 0.100000000000D+01
0.229270884186D-06 0.000000000000D+00 0.000000000000D+00 0.166355384154D-07 0.000000000000D+00  7 -2 21 23 -11 11 23 -2 2 0.90306070D-02 0.21752490D+00 0.27129912D+05 0.27129912D+05 0.27129912D+05 0.11714098D+01  1  2 12  4  7  2        2 0.182272266865D-04 0.100000000000D+01
-.307082202958D-05 0.000000000000D+00 -.138023493832D-07 0.166355384154D-07 0.000000000000D+00  7 -2 21 23 -11 11 23 -2 2 0.90306070D-02 0.21752305D+00 0.26594270D+05 0.26594270D+05 0.26594270D+05 0.11722228D+01  1  2  5  4  7  2        2 -.244749893592D-03 0.100000000000D+01
0.282466689018D-05 0.000000000000D+00 0.000000000000D+00 0.166355384154D-07 0.193215386992D-09  7 -2 21 23 -11 11 23 -2 2 0.90336800D-02 0.21749616D+00 0.27129912D+05 0.27129912D+05 0.27129912D+05 0.11714098D+01  1  2 11  4  7  2        2 0.224551327932D-03 0.100000000000D+01
  </mgrwgt>
  </event>
  <event>
  8     66 0.27870365E-05 0.27737680E+03 0.75467711E-02 0.95858495E-01
       -2 -1    0    0    0  501 0.00000000E+00 0.00000000E+00 0.15814715E+03 0.15814747E+03 0.32000000E+00 0.0000E+00 0.9000E+01
        2 -1    0    0  501    0 0.00000000E+00 0.00000000E+00 -.49542176E+03 0.49542186E+03 0.32000000E+00 0.0000E+00 0.9000E+01
       25  2    1    2    0    0 -.11562203E+03 0.14217708E+03 -.24990654E+03 0.43101326E+03 0.29956030E+03 0.0000E+00 0.0000E+00
       23  2    3    3    0    0 0.67816383E+02 0.31231944E+02 -.94471787E+02 0.15095311E+03 0.91035299E+02 0.0000E+00 0.0000E+00
       23  1    1    2    0    0 0.11562203E+03 -.14217708E+03 -.87368068E+02 0.22255607E+03 0.91188000E+02 0.0000E+00 0.9000E+01
      -11  1    4    4    0    0 0.44304242E+02 0.63341846E+02 -.54747479E+02 0.94722446E+02 0.51099893E-03 0.0000E+00 0.9000E+01
       11  1    4    4    0    0 0.23512141E+02 -.32109901E+02 -.39724309E+02 0.56230661E+02 0.51099893E-03 0.0000E+00 0.9000E+01
       23  1    3    3    0    0 -.18343841E+03 0.11094513E+03 -.15543475E+03 0.28006015E+03 0.91188000E+02 0.0000E+00 0.9000E+01
#aMCatNLO 1  0  0  2  1 0.27808075D+03 0.00000000D+00  -5  7  0 0.00000000D+00 0.00000000D+00 0.00000000D+00 0.00000000D+00 0.00000000D+00
  <mgrwgt>
 0.3935286232D-03    3    2    0
 0.279910123544719D+03 0.000000000000000D+00 0.000000000000000D+00 0.279910123544719D+03
 0.279910123544719D+03 0.000000000000000D+00 0.000000000000000D+00 -.279910123544719D+03
 0.207189350162238D+03 0.115622031667856D+03 -.142177076373660D+03 0.320842675385685D+02
 0.776012503454509D+02 0.443042424891900D+02 0.633418457394789D+02 -.684826481325368D+01
 0.417145232763703D+02 0.235121405570846D+02 -.321099013446797D+02 -.124993973548197D+02
 0.233315123305378D+03 -.183438414714130D+03 0.110945131978860D+03 -.127366053704951D+02
 0.000000000000000D+00 -.000000000000000D+00 -.000000000000000D+00 0.000000000000000D+00
 0.655339077302349D+03 0.000000000000000D+00 0.000000000000000D+00 0.655339077302349D+03
 0.368936426759475D+03 0.000000000000000D+00 0.000000000000000D+00 -.368936426759475D+03
 0.211759051073070D+03 0.176771675760704D+03 -.651844981006479D+02 0.320842675385685D+02
 0.124973292713630D+03 0.738719915814621D+02 0.100570144777278D+03 -.684826481325368D+01
 0.413512142809985D+02 0.356364028122115D+02 -.168444288382001D+02 -.124993973548197D+02
 0.246998528712885D+03 -.113331908072144D+03 0.199215158405913D+03 -.127366053704951D+02
 0.399193417281240D+03 -.172948162082233D+03 -.217756376244343D+03 0.286402650542874D+03
0.359273743922D-05 0.000000000000D+00 0.000000000000D+00 0.147760658061D-06 0.000000000000D+00  7 -2 2 23 -11 11 23 21 0 0.24330363D-01 0.76218765D-01 0.76937888D+05 0.76937888D+05 0.76937888D+05 0.11311871D+01  1  2  2  2  7  2        2 0.389038315519D-03 0.100000000000D+01
-.199576464696D-06 0.000000000000D+00 -.137970577561D-07 0.147760658061D-06 0.000000000000D+00  7 -2 2 23 -11 11 23 21 2 0.24330363D-01 0.76218765D-01 0.76937888D+05 0.76937888D+05 0.76937888D+05 0.11311871D+01  1  2  3  2  7  2        2 -.276531795029D-04 0.100000000000D+01
0.231983578471D-06 0.000000000000D+00 0.000000000000D+00 0.147760658061D-06 0.000000000000D+00  7 -2 2 23 -11 11 23 21 2 0.24330363D-01 0.76218765D-01 0.76937888D+05 0.76937888D+05 0.76937888D+05 0.11311871D+01  1  2 15  2  7  2        2 0.321434871941D-04 0.100000000000D+01
  </mgrwgt>
  </event>
  <event>
  8     66 0.27870365E-05 0.17168051E+03 0.75467711E-02 0.94072659E-01
       -2 -1    0    0    0  501 0.00000000E+00 0.00000000E+00 0.34434049E+02 0.34435536E+02 0.32000000E+00 0.0000E+00 0.9000E+01
        2 -1    0    0  501    0 0.00000000E+00 0.00000000E+00 -.13668102E+04 0.13668102E+04 0.32000000E+00 0.0000E+00 0.9000E+01
       25  2    1    2    0    0 0.39179845E+02 -.71192481E+02 -.99692542E+03 0.10442502E+04 0.29999109E+03 0.0000E+00 0.0000E+00
       23  2    3    3    0    0 0.43290448E+02 0.36580921E+02 -.76954817E+03 0.77657933E+03 0.87514820E+02 0.0000E+00 0.0000E+00
       23  1    1    2    0    0 -.39179845E+02 0.71192481E+02 -.33545071E+03 0.35699560E+03 0.91188000E+02 0.0000E+00 0.9000E+01
      -13  1    4    4    0    0 -.25918051E+01 -.12518096E+02 -.44319023E+03 0.44337457E+03 0.10565837E+00 0.0000E+00 0.9000E+01
       13  1    4    4    0    0 0.45882253E+02 0.49099017E+02 -.32635793E+03 0.33320475E+03 0.10565837E+00 0.0000E+00 0.9000E+01
       23  1    3    3    0    0 -.41106032E+01 -.10777340E+03 -.22737726E+03 0.26767083E+03 0.91188000E+02 0.0000E+00 0.9000E+01
#aMCatNLO 1  0  0  2  1 0.47411100D+03 0.00000000D+00  -5  7  0 0.00000000D+00 0.00000000D+00 0.00000000D+00 0.00000000D+00 0.00000000D+00
  <mgrwgt>
 0.6231912483D-03    5    2    0
 0.216946714340649D+03 0.000000000000000D+00 0.000000000000000D+00 0.216946714340649D+03
 0.216946714340649D+03 0.000000000000000D+00 0.000000000000000D+00 -.216946714340649D+03
 0.122822917912228D+03 -.391798525601756D+02 0.711924956250857D+02 0.129145476308318D+02
 0.709405753012143D+02 -.259187193551737D+01 -.125181872227127D+02 -.697792405561585D+02
 0.739126692356538D+02 0.458823217320168D+02 0.490990987810679D+02 -.307761876278691D+02
 0.166217266232201D+03 -.411059723632383D+01 -.107773407183441D+03 0.876408805531958D+02
 0.000000000000000D+00 0.000000000000000D+00 -.000000000000000D+00 -.000000000000000D+00
 0.434787273526111D+03 0.000000000000000D+00 0.000000000000000D+00 0.434787273526111D+03
 0.816697921794045D+03 0.000000000000000D+00 0.000000000000000D+00 -.816697921794045D+03
 0.269870730445175D+03 -.100862666495149D+03 0.232755014498059D+03 0.129145476308318D+02
 0.933089336713373D+02 -.283915555903031D+02 0.550575540816200D+02 -.697792405561585D+02
 0.141719181219246D+03 0.120116967150362D+02 0.137814628187917D+03 -.307761876278691D+02
 0.137786727099793D+03 -.518623799163425D+02 0.173003013310855D+02 0.876408805531958D+02
 0.608799622884603D+03 0.169104905286759D+03 -.442927498098682D+03 -.381910648267934D+03
0.199458167203D-05 0.000000000000D+00 0.000000000000D+00 0.110841161702D-07 0.000000000000D+00  7 -2 2 23 -13 13 23 21 0 0.52976633D-02 0.21027861D+00 0.29474198D+05 0.29474198D+05 0.29474198D+05 0.11680491D+01  1  2  2  2  7  2        2 0.614054405498D-03 0.100000000000D+01
-.103431835342D-06 0.000000000000D+00 -.765971880602D-08 0.110841161702D-07 0.000000000000D+00  7 -2 2 23 -13 13 23 21 2 0.52976633D-02 0.21027861D+00 0.29474198D+05 0.29474198D+05 0.29474198D+05 0.11680491D+01  1  2  3  2  7  2        2 -.434441639003D-04 0.100000000000D+01
0.124941287185D-06 0.000000000000D+00 0.000000000000D+00 0.110841161702D-07 0.000000000000D+00  7 -2 2 23 -13 13 23 21 2 0.52976633D-02 0.21027861D+00 0.29474198D+05 0.29474198D+05 0.29474198D+05 0.11680491D+01  1  2 15  2  7  2        2 0.524787145123D-04 0.100000000000D+01
0.528394903156D-06 0.000000000000D+00 -.620039793021D-06 0.110841161702D-07 0.000000000000D+00  7 -2 2 23 -13 13 23 21 2 0.52976633D-02 0.84638160D+00 0.29474198D+05 0.29474198D+05 0.29474198D+05 0.11680491D+01  1  2  5  2  7  2        2 0.102218635634D-06 0.100000000000D+01
0.944841323475D-07 0.000000000000D+00 -.103124845949D-06 0.110841161702D-07 0.000000000000D+00  7 -2 21 23 -13 13 23 -2 2 0.52976633D-02 0.84638160D+00 0.29474198D+05 0.29474198D+05 0.29474198D+05 0.11680491D+01  1  2  5  4  7  2        2 0.735046441799D-10 0.100000000000D+01
  </mgrwgt>
  </event>
  <event>
  8     66 0.27870365E-05 0.27739152E+03 0.75467711E-02 0.95107134E-01
       -2 -1    0    0    0  501 0.00000000E+00 0.00000000E+00 0.83830899E+02 0.83831510E+02 0.32000000E+00 0.0000E+00 0.9000E+01
        2 -1    0    0  501    0 0.00000000E+00 0.00000000E+00 -.26131934E+04 0.26131934E+04 0.32000000E+00 0.0000E+00 0.9000E+01
       25  2    1    2    0    0 0.16089279E+03 -.37463803E+03 -.11643915E+04 0.12695442E+04 0.29949086E+03 0.0000E+00 0.0000E+00
       23  2    3    3    0    0 0.18522400E+03 -.14753085E+03 -.49449276E+03 0.55592719E+03 0.91970989E+02 0.0000E+00 0.0000E+00
       23  1    1    2    0    0 -.16089279E+03 0.37463803E+03 -.13649710E+04 0.14274807E+04 0.91188000E+02 0.0000E+00 0.9000E+01
      -13  1    4    4    0    0 0.19197003E+03 -.15288539E+03 -.47695541E+03 0.53638876E+03 0.10565837E+00 0.0000E+00 0.9000E+01
       13  1    4    4    0    0 -.67460311E+01 0.53545357E+01 -.17537354E+02 0.19538422E+02 0.10565837E+00 0.0000E+00 0.9000E+01
       23  1    3    3    0    0 -.24331205E+02 -.22710718E+03 -.66989875E+03 0.71361703E+03 0.91188000E+02 0.0000E+00 0.9000E+01
#aMCatNLO 1  0  0  1  2 0.40142653D+02 0.00000000D+00  -5  7  0 0.00000000D+00 0.00000000D+00 0.00000000D+00 0.00000000D+00 0.00000000D+00
  <mgrwgt>
 0.4113959819D-03    9    2    0
 0.468046156481469D+03 0.000000000000000D+00 0.000000000000000D+00 0.468046156481469D+03
 0.468046156481469D+03 0.000000000000000D+00 0.000000000000000D+00 -.468046156481469D+03
 0.424578474657263D+03 -.160892792664293D+03 0.374638028573512D+03 -.755743780227497D+02
 0.256663842131870D+03 0.191970290768171D+03 -.152885593842604D+03 0.751646892874015D+02
 0.890615131643963D+01 -.674629334368540D+01 0.535474452957434D+01 0.226578207585347D+01
 0.245943844857366D+03 -.243312047601929D+02 -.227107179260482D+03 -.185609334050525D+01
 0.000000000000000D+00 0.000000000000000D+00 0.000000000000000D+00 0.000000000000000D+00
 0.496716153514055D+03 0.000000000000000D+00 0.000000000000000D+00 0.496716153514055D+03
 0.482741919880756D+03 0.000000000000000D+00 0.000000000000000D+00 -.482741919880756D+03
 0.416793870519293D+03 -.172212190720029D+03 0.360601378134272D+03 -.755743780227497D+02
 0.256835554120837D+03 0.185061929564137D+03 -.161452326000229D+03 0.751646892874015D+02
 0.891719352151014D+01 -.698607961199099D+01 0.505739691340585D+01 0.226578207585347D+01
 0.254406022577430D+03 -.310626588531378D+02 -.235454537272385D+03 -.185609334050525D+01
 0.425054326557397D+02 0.251989996210207D+02 0.312480882249361D+02 0.139742336332993D+02
0.223665603839D-04 0.000000000000D+00 0.000000000000D+00 0.520226766457D-06 0.000000000000D+00  7 -2 2 23 -13 13 23 21 0 0.12897110D-01 0.40202981D+00 0.21057054D+06 0.21057054D+06 0.21057054D+06 0.10961116D+01  1  2  2  1  7  1       -2 0.360685936880D-03 0.100000000000D+01
-.124199565189D-05 0.000000000000D+00 -.858934811247D-07 0.520226766457D-06 0.000000000000D+00  7 -2 2 23 -13 13 23 21 2 0.12897110D-01 0.40202981D+00 0.21057054D+06 0.21057054D+06 0.21057054D+06 0.10961116D+01  1  2  3  1  7  1       -2 -.240635469365D-04 0.100000000000D+01
0.142508088496D-05 0.000000000000D+00 0.000000000000D+00 0.520226766457D-06 0.000000000000D+00  7 -2 2 23 -13 13 23 21 2 0.12897110D-01 0.40202981D+00 0.21057054D+06 0.21057054D+06 0.21057054D+06 0.10961116D+01  1  2 15  1  7  1       -2 0.276108058120D-04 0.100000000000D+01
0.523756072191D-04 0.000000000000D+00 0.000000000000D+00 0.520226766457D-06 0.000000000000D+00  7 -2 2 23 -13 13 23 21 2 0.13880047D-01 0.40202981D+00 0.22974863D+06 0.22974863D+06 0.22974863D+06 0.10932298D+01  1  2 12  1  7  1       -2 0.894527686441D-03 0.100000000000D+01
-.487505042725D-04 0.000000000000D+00 0.000000000000D+00 0.520226766457D-06 0.000000000000D+00  7 -2 2 23 -13 13 23 21 2 0.12897110D-01 0.40202981D+00 0.21057054D+06 0.21057054D+06 0.21057054D+06 0.10961116D+01  1  2  4  1  7  1       -2 -.944536356434D-03 0.100000000000D+01
-.166181266842D-03 0.000000000000D+00 -.310622550652D-04 0.520226766457D-06 0.000000000000D+00  7 -2 2 23 -13 13 23 21 2 0.14238472D-01 0.40202981D+00 0.21057054D+06 0.21057054D+06 0.21057054D+06 0.10961116D+01  1  2  5  1  7  1       -2 -.274900200656D-02 0.100000000000D+01
0.168580260058D-03 0.000000000000D+00 0.309108234560D-04 0.520226766457D-06 0.000000000000D+00  7 -2 2 23 -13 13 23 21 2 0.12897110D-01 0.40202981D+00 0.21057054D+06 0.21057054D+06 0.21057054D+06 0.10961116D+01  1  2  6  1  7  1       -2 0.326622641094D-02 0.100000000000D+01
0.664252617611D-06 0.000000000000D+00 0.000000000000D+00 0.520226766457D-06 0.000000000000D+00  7 21 2 23 -13 13 23 2 2 0.13880047D-01 0.40202981D+00 0.22974863D+06 0.22974863D+06 0.22974863D+06 0.10932298D+01  1  2 12  3  7  1       -2 0.153184169192D-03 0.100000000000D+01
-.257407758003D-05 0.000000000000D+00 -.499914703582D-06 0.520226766457D-06 0.000000000000D+00  7 21 2 23 -13 13 23 2 2 0.14238472D-01 0.40202981D+00 0.21057054D+06 0.21057054D+06 0.21057054D+06 0.10961116D+01  1  2  5  3  7  1       -2 -.573237117413D-03 0.100000000000D+01
  </mgrwgt>
  </event>
  <event>
  8     66 0.27870365E-05 0.47571166E+03 0.75467711E-02 0.94056870E-01
       -2 -1    0    0    0  501 0.00000000E+00 0.00000000E+00 0.19045189E+03 0.19045216E+03 0.32000000E+00 0.0000E+00 0.9000E+01
        2 -1    0    0  501    0 0.00000000E+00 0.00000000E+00 -.24546412E+04 0.24546412E+04 0.32000000E+00 0.0000E+00 0.9000E+01
       25  2    1    2    0    0 0.28279537E+03 -.35589418E+03 -.20734349E+04 0.21437588E+04 0.29989252E+03 0.0000E+00 0.0000E+00
       23  2    3    3    0    0 0.14775140E+03 -.14358440E+03 -.14151785E+04 0.14331752E+04 0.93882603E+02 0.0000E+00 0.0000E+00
       23  1    1    2    0    0 -.28279537E+03 0.35589418E+03 -.19075440E+03 0.50133460E+03 0.91188000E+02 0.0000E+00 0.9000E+01
      -11  1    4    4    0    0 0.52123778E+02 -.10465332E+03 -.58228891E+03 0.59391041E+03 0.51099893E-03 0.0000E+00 0.9000E+01
       11  1    4    4    0    0 0.95627618E+02 -.38931079E+02 -.83288959E+03 0.83926476E+03 0.51099893E-03 0.0000E+00 0.9000E+01
       23  1    3    3    0    0 0.13504397E+03 -.21230978E+03 -.65825642E+03 0.71058362E+03 0.91188000E+02 0.0000E+00 0.9000E+01
#aMCatNLO 1  0  0  1  2 0.10038721D+03 0.00000000D+00  -5  7  0 0.00000000D+00 0.00000000D+00 0.00000000D+00 0.00000000D+00 0.00000000D+00
  <mgrwgt>
 0.4186137069D-03    4    2    0
 0.683733465032228D+03 0.000000000000000D+00 0.000000000000000D+00 0.683733465032228D+03
 0.683733465032228D+03 0.000000000000000D+00 0.000000000000000D+00 -.683733465032228D+03
 0.653889865170339D+03 -.282795370344497D+03 0.355894177944130D+03 0.461110417411790D+03
 0.184674437248272D+03 0.521237782047081D+02 -.104653322909547D+03 -.142952584875624D+03
 0.244330563447347D+03 0.956276184783146D+02 -.389310791035351D+02 -.221443342411774D+03
 0.284572064198498D+03 0.135043973661474D+03 -.212309775931048D+03 -.967144901243918D+02
 0.000000000000000D+00 0.000000000000000D+00 -.000000000000000D+00 -.000000000000000D+00
 0.708510039829754D+03 0.000000000000000D+00 0.000000000000000D+00 0.708510039829754D+03
 0.795414885104965D+03 0.000000000000000D+00 0.000000000000000D+00 -.795414885104965D+03
 0.679236555248173D+03 -.331348000198105D+03 0.361431504382844D+03 0.461110417411790D+03
 0.180499019561732D+03 0.388241155400881D+02 -.103136524047758D+03 -.142952584875624D+03
 0.237689292185125D+03 0.780723954520798D+02 -.369289424346504D+02 -.221443342411774D+03
 0.273721878480485D+03 0.114710838909037D+03 -.209990824208225D+03 -.967144901243918D+02
 0.132778179459203D+03 0.997406502969004D+02 -.113752136922104D+02 -.869048452752109D+02
0.103574300116D-03 0.000000000000D+00 0.000000000000D+00 0.618088085337D-06 0.000000000000D+00  7 -2 2 23 -11 11 23 21 0 0.29300314D-01 0.37763713D+00 0.22630158D+06 0.22630158D+06 0.22630158D+06 0.10937280D+01  1  2  2  1  7  1       -2 0.523570213263D-03 0.100000000000D+01
-.483348565377D-05 0.000000000000D+00 -.397752584184D-06 0.618088085337D-06 0.000000000000D+00  7 -2 2 23 -11 11 23 21 2 0.29300314D-01 0.37763713D+00 0.22630158D+06 0.22630158D+06 0.22630158D+06 0.10937280D+01  1  2  3  1  7  1       -2 -.292281947105D-04 0.100000000000D+01
0.631957356265D-05 0.000000000000D+00 0.000000000000D+00 0.618088085337D-06 0.000000000000D+00  7 -2 2 23 -11 11 23 21 2 0.29300314D-01 0.37763713D+00 0.22630158D+06 0.22630158D+06 0.22630158D+06 0.10937280D+01  1  2 15  1  7  1       -2 0.382146011817D-04 0.100000000000D+01
-.188428139397D-04 0.000000000000D+00 0.000000000000D+00 0.618088085337D-06 0.000000000000D+00  7 -2 2 23 -11 11 23 21 2 0.29300314D-01 0.37763713D+00 0.22630158D+06 0.22630158D+06 0.22630158D+06 0.10937280D+01  1  2  4  1  7  1       -2 -.113942912873D-03 0.100000000000D+01
  </mgrwgt>
  </event>
  <event>
  8     66 0.27870365E-05 0.21740191E+03 0.75467711E-02 0.97722367E-01
       -2 -1    0    0    0  501 0.00000000E+00 0.00000000E+00 0.71327383E+02 0.71328101E+02 0.32000000E+00 0.0000E+00 0.9000E+01
        2 -1    0    0  501    0 0.00000000E+00 0.00000000E+00 -.23216104E+04 0.23216104E+04 0.32000000E+00 0.0000E+00 0.9000E+01
       25  2    1    2    0    0 -.95202464E+02 0.25637108E+03 -.18812471E+04 0.19246518E+04 0.30067335E+03 0.0000E+00 0.0000E+00
       23  2    3    3    0    0 0.76979598E+02 0.92666919E+02 -.76119525E+03 0.77605397E+03 0.91260767E+02 0.0000E+00 0.0000E+00
       23  1    1    2    0    0 0.95202464E+02 -.25637108E+03 -.36903590E+03 0.46828665E+03 0.91188000E+02 0.0000E+00 0.9000E+01
      -11  1    4    4    0    0 0.84772643E+01 -.16144582E+02 -.47718791E+02 0.51084190E+02 0.51099893E-03 0.0000E+00 0.9000E+01
       11  1    4    4    0    0 0.68502334E+02 0.10881150E+03 -.71347646E+03 0.72496978E+03 0.51099893E-03 0.0000E+00 0.9000E+01
       23  1    3    3    0    0 -.17218206E+03 0.16370416E+03 -.11200518E+04 0.11485979E+04 0.91188000E+02 0.0000E+00 0.9000E+01
#aMCatNLO 1  0  0  2  1 0.77234689D+02 0.00000000D+00  -5  7  0 0.00000000D+00 0.00000000D+00 0.00000000D+00 0.00000000D+00 0.00000000D+00
  <mgrwgt>
 0.5776342929D-03    9    2    0
 0.406933995420610D+03 0.000000000000000D+00 0.000000000000000D+00 0.406933995420610D+03
 0.406933995420610D+03 0.000000000000000D+00 0.000000000000000D+00 -.406933995420610D+03
 0.356502468233461D+03 0.952024639654292D+02 -.256371083165076D+03 0.209735826897140D+03
 0.182591561430887D+02 0.847726424895914D+01 -.161445816157472D+02 0.940881694737826D+00
 0.158851481304035D+03 0.685023342389581D+02 0.108811500909898D+03 -.932806549400014D+02
 0.280254885160636D+03 -.172182062453346D+03 0.163704163870925D+03 -.117396053651876D+03
 0.000000000000000D+00 0.000000000000000D+00 -.000000000000000D+00 -.000000000000000D+00
 0.434008187963356D+03 0.000000000000000D+00 0.000000000000000D+00 0.434008187963356D+03
 0.467833106675782D+03 0.000000000000000D+00 0.000000000000000D+00 -.467833106675782D+03
 0.335131174735626D+03 0.708319628511900D+02 -.234502385681044D+03 0.209735826897140D+03
 0.167191944359403D+02 0.724476212818163D+01 -.150386045206778D+02 0.940881694737826D+00
 0.161623259191080D+03 0.572100408409766D+02 0.118944560836068D+03 -.932806549400014D+02
 0.304050868947298D+03 -.192770742857056D+03 0.182179271183391D+03 -.117396053651876D+03
 0.843167973291953D+02 0.574839770367076D+02 -.515828418177370D+02 -.338249187124256D+02
0.100270732186D-04 0.000000000000D+00 0.000000000000D+00 0.399364749076D-06 0.000000000000D+00  7 -2 2 23 -11 11 23 21 0 0.10973500D-01 0.35717088D+00 0.11887831D+06 0.11887831D+06 0.11887831D+06 0.11156106D+01  1  2  2  2  7  2        2 0.312353677953D-03 0.100000000000D+01
-.538458046801D-06 0.000000000000D+00 -.385066013486D-07 0.399364749076D-06 0.000000000000D+00  7 -2 2 23 -11 11 23 21 2 0.10973500D-01 0.35717088D+00 0.11887831D+06 0.11887831D+06 0.11887831D+06 0.11156106D+01  1  2  3  2  7  2        2 -.208761105455D-04 0.100000000000D+01
0.623663599532D-06 0.000000000000D+00 0.000000000000D+00 0.399364749076D-06 0.000000000000D+00  7 -2 2 23 -11 11 23 21 2 0.10973500D-01 0.35717088D+00 0.11887831D+06 0.11887831D+06 0.11887831D+06 0.11156106D+01  1  2 15  2  7  2        2 0.241795443942D-04 0.100000000000D+01
0.106821139856D-04 0.000000000000D+00 0.000000000000D+00 0.399364749076D-06 0.000000000000D+00  7 -2 2 23 -11 11 23 21 2 0.10973500D-01 0.42114966D+00 0.14737016D+06 0.14737016D+06 0.14737016D+06 0.11081586D+01  1  2 12  2  7  2        2 0.233816207872D-03 0.100000000000D+01
-.105050914431D-04 0.000000000000D+00 0.000000000000D+00 0.399364749076D-06 0.000000000000D+00  7 -2 2 23 -11 11 23 21 2 0.10973500D-01 0.35717088D+00 0.11887831D+06 0.11887831D+06 0.11887831D+06 0.11156106D+01  1  2  4  2  7  2        2 -.407284191517D-03 0.100000000000D+01
-.252296760435D-04 0.000000000000D+00 -.603371912606D-05 0.399364749076D-06 0.000000000000D+00  7 -2 2 23 -11 11 23 21 2 0.10973500D-01 0.42013180D+00 0.11887831D+06 0.11887831D+06 0.11887831D+06 0.11156106D+01  1  2  5  2  7  2        2 -.569771200486D-03 0.100000000000D+01
0.259452369511D-04 0.000000000000D+00 0.595506222509D-05 0.399364749076D-06 0.000000000000D+00  7 -2 2 23 -11 11 23 21 2 0.10973500D-01 0.35717088D+00 0.11887831D+06 0.11887831D+06 0.11887831D+06 0.11156106D+01  1  2  6  2  7  2        2 0.100590127298D-02 0.100000000000D+01
0.262751030201D-06 0.000000000000D+00 0.000000000000D+00 0.399364749076D-06 0.000000000000D+00  7 -2 21 23 -11 11 23 -2 2 0.10973500D-01 0.42114966D+00 0.14737016D+06 0.14737016D+06 0.14737016D+06 0.11081586D+01  1  2 12  4  7  2        2 0.541334750934D-06 0.100000000000D+01
-.565069658203D-06 0.000000000000D+00 -.146674019282D-06 0.399364749076D-06 0.000000000000D+00  7 -2 21 23 -11 11 23 -2 2 0.10973500D-01 0.42013180D+00 0.11887831D+06 0.11887831D+06 0.11887831D+06 0.11156106D+01  1  2  5  4  7  2        2 -.122624245729D-05 0.100000000000D+01
  </mgrwgt>
  </event>
  <event>
  8     66 0.27870365E-05 0.22269249E+03 0.75467711E-02 0.82587429E-01
       -2 -1    0    0    0  501 0.00000000E+00 0.00000000E+00 0.37157013E+03 0.37157027E+03 0.32000000E+00 0.0000E+00 0.9000E+01
        2 -1    0    0  501    0 0.00000000E+00 0.00000000E+00 -.18558764E+04 0.18558764E+04 0.32000000E+00 0.0000E+00 0.9000E+01
       25  2    1    2    0    0 -.57266522E+02 -.10426443E+03 -.18257516E+04 0.18545516E+04 0.30305468E+03 0.0000E+00 0.0000E+00
       23  2    3    3    0    0 -.34271734E+02 -.17232269E+03 -.90163834E+03 0.92317558E+03 0.91824796E+02 0.0000E+00 0.0000E+00
       23  1    1    2    0    0 0.57266522E+02 0.10426443E+03 0.34144538E+03 0.37289506E+03 0.91188000E+02 0.0000E+00 0.9000E+01
      -13  1    4    4    0    0 -.38772507E+02 -.16996651E+03 -.90138421E+03 0.91808792E+03 0.10565837E+00 0.0000E+00 0.9000E+01
       13  1    4    4    0    0 0.45007722E+01 -.23561828E+01 -.25412984E+00 0.50876608E+01 0.10565837E+00 0.0000E+00 0.9000E+01
       23  1    3    3    0    0 -.22994787E+02 0.68058264E+02 -.92411327E+03 0.93137601E+03 0.91188000E+02 0.0000E+00 0.9000E+01
#aMCatNLO 1  0  0  2  2 0.16828446D+04 0.00000000D+00  -5  7  0 0.00000000D+00 0.00000000D+00 0.00000000D+00 0.00000000D+00 0.00000000D+00
  <mgrwgt>
 0.7593354697D-03    5    2    0
 0.830414598238222D+03 0.000000000000000D+00 0.000000000000000D+00 0.830414598238222D+03
 0.830414598238222D+03 0.000000000000000D+00 0.000000000000000D+00 -.830414598238222D+03
 0.805268458215603D+03 0.572665219234168D+02 0.104264429675978D+03 0.791196254177225D+03
 0.425728660765934D+03 -.387725639181021D+02 -.169966732655771D+03 -.388397851017605D+03
 0.659572034757076D+01 0.450082944571352D+01 -.235596079370956D+01 0.420660313584016D+01
 0.423236357147338D+03 -.229947874510283D+02 0.680582637735027D+02 -.407005006295460D+03
 0.000000000000000D+00 -.000000000000000D+00 -.000000000000000D+00 -.000000000000000D+00
 0.165045019685144D+04 0.000000000000000D+00 0.000000000000000D+00 0.165045019685144D+04
 0.269416374699068D+04 0.000000000000000D+00 0.000000000000000D+00 -.269416374699068D+04
 0.125478994285985D+04 0.100001820806322D+03 0.964463930154762D+03 0.791196254177225D+03
 0.432117821751733D+03 -.209767937560023D+02 0.188236275260873D+03 -.388397851017605D+03
 0.723182269852500D+01 0.478767771398720D+01 0.341787824643172D+01 0.420660313584016D+01
 0.670246090187307D+03 -.310819275339050D+00 0.524653598395344D+03 -.407005006295460D+03
 0.198022826634471D+04 -.835018854889680D+02 -.168077168205741D+04 -.104371355013924D+04
0.196858571676D-03 0.000000000000D+00 0.000000000000D+00 0.212836391442D-06 0.000000000000D+00  7 -2 2 23 -13 13 23 21 0 0.57164648D-01 0.28551945D+00 0.49591943D+05 0.49591943D+05 0.49591943D+05 0.11476086D+01  1  2  2  2  7  2        2 0.655429635881D-03 0.100000000000D+01
0.120970781005D-04 0.000000000000D+00 -.755988749287D-06 0.212836391442D-06 0.000000000000D+00  7 -2 2 23 -13 13 23 21 2 0.57164648D-01 0.28551945D+00 0.49591943D+05 0.49591943D+05 0.49591943D+05 0.11476086D+01  1  2  3  2  7  2        2 0.530444297451D-04 0.100000000000D+01
0.115977701494D-04 0.000000000000D+00 0.000000000000D+00 0.212836391442D-06 0.000000000000D+00  7 -2 2 23 -13 13 23 21 2 0.57164648D-01 0.28551945D+00 0.49591943D+05 0.49591943D+05 0.49591943D+05 0.11476086D+01  1  2 15  2  7  2        2 0.508550162921D-04 0.100000000000D+01
0.139493807058D-03 0.000000000000D+00 -.504412448860D-04 0.212836391442D-06 0.000000000000D+00  7 -2 2 23 -13 13 23 21 2 0.57164648D-01 0.94719658D+00 0.49591943D+05 0.49591943D+05 0.49591943D+05 0.11476086D+01  1  2  5  2  7  2        2 0.638556669669D-08 0.100000000000D+01
0.213553147106D-04 0.000000000000D+00 -.701168426266D-05 0.212836391442D-06 0.000000000000D+00  7 -2 21 23 -13 13 23 -2 2 0.57164648D-01 0.94719658D+00 0.49591943D+05 0.49591943D+05 0.49591943D+05 0.11476086D+01  1  2  5  4  7  2        2 0.224001975222D-11 0.100000000000D+01
  </mgrwgt>
  </event>
  <event>
  9     66 0.27870365E-05 0.65401547E+03 0.75467711E-02 0.88067768E-01
       21 -1    0    0  502  501 0.00000000E+00 0.00000000E+00 0.76575327E+03 0.76575363E+03 0.75000000E+00 0.0000E+00 0.9000E+01
        2 -1    0    0  501    0 0.00000000E+00 0.00000000E+00 -.15538241E+04 0.15538242E+04 0.32000000E+00 0.0000E+00 0.9000E+01
       25  2    1    2    0    0 -.29393696E+03 0.31622086E+03 -.80280863E+03 0.95874256E+03 0.29713804E+03 0.0000E+00 0.0000E+00
       23  2    3    3    0    0 0.20317384E+01 0.20246310E+02 -.15490683E+03 0.18202485E+03 0.93396344E+02 0.0000E+00 0.0000E+00
       23  1    1    2    0    0 0.31837826E+03 -.79480264E+03 -.10355395E+03 0.86724542E+03 0.91188000E+02 0.0000E+00 0.9000E+01
      -11  1    4    4    0    0 0.46970173E+02 0.74838527E+01 -.63120398E+02 0.79034106E+02 0.51099893E-03 0.0000E+00 0.9000E+01
       11  1    4    4    0    0 -.44938434E+02 0.12762457E+02 -.91786434E+02 0.10299074E+03 0.51099893E-03 0.0000E+00 0.9000E+01
       23  1    3    3    0    0 -.29596870E+03 0.29597455E+03 -.64790180E+03 0.77671771E+03 0.91188000E+02 0.0000E+00 0.9000E+01
        2  1    1    2  502    0 -.24441303E+02 0.47858178E+03 0.11829170E+03 0.49358983E+03 0.32000000E+00 0.0000E+00 0.9000E+01
#aMCatNLO 2  0  0  1  2 0.47920548D+03 0.00000000D+00  -5  7  0 0.00000000D+00 0.00000000D+00 0.00000000D+00 0.00000000D+00 0.00000000D+00
  <mgrwgt>
 0.8260220729D-04    2    2    0
 0.755496703268973D+03 0.000000000000000D+00 0.000000000000000D+00 0.755496703268973D+03
 0.755496703268973D+03 0.000000000000000D+00 0.000000000000000D+00 -.755496703268973D+03
 0.729032072130085D+03 0.305204433148527D+03 -.536847680997497D+03 0.376586420685055D+03
 0.592583544724375D+02 0.460685992832269D+02 0.251374389627315D+02 -.275199181913294D+02
 0.741725925845189D+02 -.460462001000470D+02 0.344534644241971D+02 -.468431396922328D+02
 0.648530387350905D+03 -.305226832331707D+03 0.477256777610569D+03 -.302223362801493D+03
 0.000000000000000D+00 -.000000000000000D+00 0.000000000000000D+00 0.000000000000000D+00
 0.131993238718814D+04 0.000000000000000D+00 0.000000000000000D+00 0.131993238718814D+04
 0.901444872461679D+03 0.000000000000000D+00 0.000000000000000D+00 -.901444872461679D+03
 0.939791752591068D+03 0.318378264089552D+03 -.794802639404987D+03 0.376586420685055D+03
 0.549504420544835D+02 0.469701728077271D+02 0.748385269349547D+01 -.275199181913294D+02
 0.661560499334178D+02 -.449384343878552D+02 0.127624574959240D+02 -.468431396922328D+02
 0.524263882591348D+03 -.295968699021317D+03 0.295974551984358D+03 -.302223362801493D+03
 0.636215132479505D+03 -.244413034881069D+02 0.478581777231210D+03 0.418487514726465D+03
-.103953493630D-05 0.000000000000D+00 0.000000000000D+00 0.368159667242D-07 0.000000000000D+00  7 21 2 23 -11 11 23 2 2 0.12022415D+00 0.20034659D+00 0.86760785D+06 0.86760785D+06 0.86760785D+06 0.10519944D+01  1  2 13  3  7  1       -2 -.103866067717D-04 0.100000000000D+01
0.122110810442D-04 0.000000000000D+00 0.000000000000D+00 0.368159667242D-07 0.999641733652D-13  7 21 2 23 -11 11 23 2 2 0.11780822D+00 0.23904989D+00 0.86760785D+06 0.86760785D+06 0.86760785D+06 0.10519944D+01  1  2  1  3  7  1       -2 0.929888140588D-04 0.100000000000D+01
  </mgrwgt>
  </event>
  <event>
  8     66 0.27870365E-05 0.72128686E+03 0.75467711E-02 0.84321837E-01
       -2 -1    0    0    0  501 0.00000000E+00 0.00000000E+00 0.24334575E+03 0.24334596E+03 0.32000000E+00 0.0000E+00 0.9000E+01
        2 -1    0    0  501    0 0.00000000E+00 0.00000000E+00 -.24926316E+04 0.24926316E+04 0.32000000E+00 0.0000E+00 0.9000E+01
       25  2    1    2    0    0 0.26545320E+03 0.66039345E+03 -.15615135E+04 0.17420304E+04 0.29960088E+03 0.0000E+00 0.0000E+00
       23  2    3    3    0    0 0.50299322E+02 0.79260314E+02 -.15801435E+03 0.20510751E+03 0.91040318E+02 0.0000E+00 0.0000E+00
       23  1    1    2    0    0 -.26545320E+03 -.66039345E+03 -.68777237E+03 0.99394718E+03 0.91188000E+02 0.0000E+00 0.9000E+01
      -11  1    4    4    0    0 0.52616130E+02 0.62351985E+02 -.16696826E+03 0.18583495E+03 0.51099893E-03 0.0000E+00 0.9000E+01
       11  1    4    4    0    0 -.23168084E+01 0.16908328E+02 0.89539163E+01 0.19272566E+02 0.51099893E-03 0.0000E+00 0.9000E+01
       23  1    3    3    0    0 0.21515387E+03 0.58113313E+03 -.14034991E+04 0.15369229E+04 0.91188000E+02 0.0000E+00 0.9000E+01
#aMCatNLO 1  0  0  2  2 0.10446384D+04 0.00000000D+00  -5  7  0 0.00000000D+00 0.00000000D+00 0.00000000D+00 0.00000000D+00 0.00000000D+00
  <mgrwgt>
 0.5186599116D-03    5    2    0
 0.778827082138729D+03 0.000000000000000D+00 0.000000000000000D+00 0.778827082138729D+03
 0.778827082138729D+03 0.000000000000000D+00 0.000000000000000D+00 -.778827082138729D+03
 0.752683463375365D+03 -.265453196042121D+03 -.660393447150318D+03 0.227227287900636D+03
 0.853083467577409D+02 0.526161302778711D+02 0.623519852715209D+02 -.249256252443364D+02
 0.467813886672364D+02 -.231680841571348D+01 0.169083283402327D+02 0.435573088831117D+02
 0.672880965477115D+03 0.215153874179963D+03 0.581133133538564D+03 -.245858971539411D+03
 0.000000000000000D+00 0.000000000000000D+00 0.000000000000000D+00 -.000000000000000D+00
 0.121060421606558D+04 0.000000000000000D+00 0.000000000000000D+00 0.121060421606558D+04
 0.193764934853490D+04 0.000000000000000D+00 0.000000000000000D+00 -.193764934853490D+04
 0.138259010605084D+04 -.467839676486358D+03 -.127778478107392D+04 0.227227287900636D+03
 0.519890752353100D+02 0.396027429493764D+02 0.226539157958893D+02 -.249256252443364D+02
 0.460364069948106D+02 -.111143073664835D+02 -.992893668105387D+01 0.435573088831117D+02
 0.394899222636409D+03 0.113947041830864D+03 0.272396003029448D+03 -.245858971539411D+03
 0.127273875368311D+04 0.325404199072601D+03 0.992663798929637D+03 -.727045132469325D+03
0.175033533698D-03 0.000000000000D+00 0.000000000000D+00 0.276036252210D-05 0.000000000000D+00  7 -2 2 23 -11 11 23 21 0 0.37437826D-01 0.38348180D+00 0.52025473D+06 0.52025473D+06 0.52025473D+06 0.10672937D+01  1  2  2  2  7  2        2 0.514996506683D-03 0.100000000000D+01
-.965443681010D-05 0.000000000000D+00 -.672174856789D-06 0.276036252210D-05 0.000000000000D+00  7 -2 2 23 -11 11 23 21 2 0.37437826D-01 0.38348180D+00 0.52025473D+06 0.52025473D+06 0.52025473D+06 0.10672937D+01  1  2  3  2  7  2        2 -.323577141705D-04 0.100000000000D+01
0.107475665632D-04 0.000000000000D+00 0.000000000000D+00 0.276036252210D-05 0.000000000000D+00  7 -2 2 23 -11 11 23 21 2 0.37437826D-01 0.38348180D+00 0.52025473D+06 0.52025473D+06 0.52025473D+06 0.10672937D+01  1  2 15  2  7  2        2 0.360214369541D-04 0.100000000000D+01
-.210410602904D-04 0.000000000000D+00 -.361146888664D-04 0.276036252210D-05 0.000000000000D+00  7 -2 2 23 -11 11 23 21 2 0.37437826D-01 0.96228720D+00 0.52025473D+06 0.52025473D+06 0.52025473D+06 0.10672937D+01  1  2  5  2  7  2        2 -.317853159921D-09 0.100000000000D+01
0.952774874301D-07 0.000000000000D+00 -.365960941568D-05 0.276036252210D-05 0.000000000000D+00  7 -2 21 23 -11 11 23 -2 2 0.37437826D-01 0.96228720D+00 0.52025473D+06 0.52025473D+06 0.52025473D+06 0.10672937D+01  1  2  5  4  7  2        2 0.532016474351D-14 0.100000000000D+01
  </mgrwgt>
  </event>
  <event>
  7     66 0.27870365E-05 0.17987700E+03 0.75467711E-02 0.97075270E-01
       -2 -1    0    0    0  501 0.00000000E+00 0.00000000E+00 0.15131636E+03 0.15131670E+03 0.32000000E+00 0.0000E+00 0.9000E+01
        2 -1    0    0  501    0 0.00000000E+00 0.00000000E+00 -.31861946E+03 0.31861962E+03 0.32000000E+00 0.0000E+00 0.9000E+01
       25  2    1    2    0    0 0.40038078E+02 0.46422130E+02 -.50512831E+02 0.30958272E+03 0.29921873E+03 0.0000E+00 0.0000E+00
       23  1    1    2    0    0 -.40038078E+02 -.46422130E+02 -.11679027E+03 0.16035361E+03 0.91188000E+02 0.0000E+00 0.9000E+01
      -13  1    3    3    0    0 0.48545299E+01 0.11277483E+03 0.63493349E+02 0.12951118E+03 0.10565837E+00 0.0000E+00 0.9000E+01
       13  1    3    3    0    0 0.17025813E+01 -.34834162E+02 -.15447410E+02 0.38143823E+02 0.10565837E+00 0.0000E+00 0.9000E+01
       23  1    3    3    0    0 0.33480966E+02 -.31518539E+02 -.98558770E+02 0.14192771E+03 0.91188000E+02 0.0000E+00 0.9000E+01
#aMCatNLO 1  0  0  1  1 0.32439674D+03 0.00000000D+00  -5  7  0 0.00000000D+00 0.00000000D+00 0.00000000D+00 0.00000000D+00 0.00000000D+00
  <mgrwgt>
 0.6334755328D-03    3    2    0
 0.219573349718354D+03 0.000000000000000D+00 0.000000000000000D+00 0.219573349718354D+03
 0.219573349718354D+03 0.000000000000000D+00 0.000000000000000D+00 -.219573349718354D+03
 0.127102441126288D+03 -.400380854024010D+02 -.464221391943803D+02 -.638883080554576D+02
 0.162781994088270D+03 0.485284384562390D+01 0.112773318747241D+03 0.117288559052862D+03
 0.349268924290435D+02 0.170166088711137D+01 -.348283154223082D+02 -.199514656590915D+01
 0.114335371793108D+03 0.334835806696658D+02 -.315228641305526D+02 -.514051044314950D+02
 0.000000000000000D+00 0.000000000000000D+00 -.000000000000000D+00 -.000000000000000D+00
 0.330160913634912D+03 0.000000000000000D+00 0.000000000000000D+00 0.330160913634912D+03
 0.733113536426205D+03 0.000000000000000D+00 0.000000000000000D+00 -.733113536426205D+03
 0.184436716716503D+03 -.142222546515083D+03 -.373186613604986D+02 -.638883080554576D+02
 0.206200623073701D+03 -.116173001366648D+03 0.123555350449711D+03 0.117288559052862D+03
 0.398878647014602D+02 -.228374875576389D+02 -.326421553007338D+02 -.199514656590915D+01
 0.115444635890472D+03 -.418839796145636D+02 -.248084683508985D+02 -.514051044314950D+02
 0.517304609678981D+03 0.323117015053934D+03 -.287860654375799D+02 -.402952622791293D+03
0.334507038244D-05 0.000000000000D+00 0.000000000000D+00 0.437945832591D-10 0.000000000000D+00  7 -2 2 23 -13 13 23 21 0 0.23279479D-01 0.49018417D-01 0.32355736D+05 0.32355736D+05 0.32355736D+05 0.11643021D+01  1  2  2  1  7  1       -2 0.625460925932D-03 0.100000000000D+01
-.176852175007D-06 0.000000000000D+00 -.128459510458D-07 0.437945832591D-10 0.000000000000D+00  7 -2 2 23 -13 13 23 21 2 0.23279479D-01 0.49018417D-01 0.32355736D+05 0.32355736D+05 0.32355736D+05 0.11643021D+01  1  2  3  1  7  1       -2 -.448266916617D-04 0.100000000000D+01
0.208471743568D-06 0.000000000000D+00 0.000000000000D+00 0.437945832591D-10 0.000000000000D+00  7 -2 2 23 -13 13 23 21 2 0.23279479D-01 0.49018417D-01 0.32355736D+05 0.32355736D+05 0.32355736D+05 0.11643021D+01  1  2 15  1  7  1       -2 0.528412984955D-04 0.100000000000D+01
  </mgrwgt>
  </event>
  <event>
  8     66 0.27870365E-05 0.14991038E+03 0.75467711E-02 0.10012695E+00
       -2 -1    0    0    0  501 0.00000000E+00 0.00000000E+00 0.13247183E+03 0.13247222E+03 0.32000000E+00 0.0000E+00 0.9000E+01
        2 -1    0    0  501    0 0.00000000E+00 0.00000000E+00 -.10138670E+04 0.10138671E+04 0.32000000E+00 0.0000E+00 0.9000E+01
       25  2    1    2    0    0 -.16777235E+03 0.18115829E+03 -.76560146E+03 0.85878177E+03 0.30065705E+03 0.0000E+00 0.0000E+00
       23  2    3    3    0    0 -.39571299E+02 -.16393488E+02 -.40263825E+03 0.41660561E+03 0.98020642E+02 0.0000E+00 0.0000E+00
       23  1    1    2    0    0 0.16777235E+03 -.18115829E+03 -.11579373E+03 0.28755752E+03 0.91188000E+02 0.0000E+00 0.9000E+01
      -11  1    4    4    0    0 0.30621471E+01 0.22583941E+02 -.22231211E+02 0.31837680E+02 0.51099893E-03 0.0000E+00 0.9000E+01
       11  1    4    4    0    0 -.42633446E+02 -.38977429E+02 -.38040703E+03 0.38476793E+03 0.51099893E-03 0.0000E+00 0.9000E+01
       23  1    3    3    0    0 -.12820105E+03 0.19755178E+03 -.36296321E+03 0.44217616E+03 0.91188000E+02 0.0000E+00 0.9000E+01
#aMCatNLO 1  0  0  1  2 0.39829090D+02 0.00000000D+00  -5  7  0 0.00000000D+00 0.00000000D+00 0.00000000D+00 0.00000000D+00 0.00000000D+00
  <mgrwgt>
 0.5265961560D-03    9    2    0
 0.366482022823898D+03 0.000000000000000D+00 0.000000000000000D+00 0.366482022823898D+03
 0.366482022823898D+03 0.000000000000000D+00 0.000000000000000D+00 -.366482022823898D+03
 0.310490594459952D+03 0.167772349913114D+03 -.181158286960970D+03 0.164691443536370D+03
 0.230602047422589D+02 0.306214711947724D+01 0.225839405203824D+02 0.351595340489729D+01
 0.144325864904053D+03 -.426334456734788D+02 -.389774287256671D+02 -.132261500975321D+03
 0.255087381541531D+03 -.128201051359112D+03 0.197551775166255D+03 -.359458959659457D+02
 0.000000000000000D+00 -.000000000000000D+00 -.000000000000000D+00 0.000000000000000D+00
 0.398106559534277D+03 0.000000000000000D+00 0.000000000000000D+00 0.398106559534277D+03
 0.379781382560372D+03 0.000000000000000D+00 0.000000000000000D+00 -.379781382560372D+03
 0.311280932554902D+03 0.180438091460370D+03 -.169998209414968D+03 0.164691443536370D+03
 0.240303813485404D+02 0.402140171191316D+01 0.234291619073814D+02 0.351595340489729D+01
 0.141400356973243D+03 -.368130851031798D+02 -.338489745354504D+02 -.132261500975321D+03
 0.257333728697431D+03 -.117762822743523D+03 0.206749139596773D+03 -.359458959659457D+02
 0.438425425205338D+02 -.298835853255803D+02 -.263311175537357D+02 0.183251769739048D+02
0.696816095271D-05 0.000000000000D+00 0.000000000000D+00 0.130829906366D-07 0.000000000000D+00  7 -2 2 23 -11 11 23 21 0 0.20380316D-01 0.15597958D+00 0.88896756D+05 0.88896756D+05 0.88896756D+05 0.11259408D+01  1  2  2  1  7  1       -2 0.423090215595D-03 0.100000000000D+01
-.367081388430D-06 0.000000000000D+00 -.267595728173D-07 0.130829906366D-07 0.000000000000D+00  7 -2 2 23 -11 11 23 21 2 0.20380316D-01 0.15597958D+00 0.88896756D+05 0.88896756D+05 0.88896756D+05 0.11259408D+01  1  2  3  1  7  1       -2 -.282558459275D-04 0.100000000000D+01
0.439787858367D-06 0.000000000000D+00 0.000000000000D+00 0.130829906366D-07 0.000000000000D+00  7 -2 2 23 -11 11 23 21 2 0.20380316D-01 0.15597958D+00 0.88896756D+05 0.88896756D+05 0.88896756D+05 0.11259408D+01  1  2 15  1  7  1       -2 0.338523781332D-04 0.100000000000D+01
0.156603937934D-04 0.000000000000D+00 0.000000000000D+00 0.130829906366D-07 0.000000000000D+00  7 -2 2 23 -11 11 23 21 2 0.22485243D-01 0.15597958D+00 0.10003499D+06 0.10003499D+06 0.10003499D+06 0.11217096D+01  1  2 12  1  7  1       -2 0.101406960327D-02 0.100000000000D+01
-.150950681482D-04 0.000000000000D+00 0.000000000000D+00 0.130829906366D-07 0.000000000000D+00  7 -2 2 23 -11 11 23 21 2 0.20380316D-01 0.15597958D+00 0.88896756D+05 0.88896756D+05 0.88896756D+05 0.11259408D+01  1  2  4  1  7  1       -2 -.116193283916D-02 0.100000000000D+01
-.396481262787D-04 0.000000000000D+00 -.819803373125D-05 0.130829906366D-07 0.000000000000D+00  7 -2 2 23 -11 11 23 21 2 0.22914137D-01 0.15597958D+00 0.88896756D+05 0.88896756D+05 0.88896756D+05 0.11259408D+01  1  2  5  1  7  1       -2 -.251006522387D-02 0.100000000000D+01
0.403871573888D-04 0.000000000000D+00 0.814206541210D-05 0.130829906366D-07 0.000000000000D+00  7 -2 2 23 -11 11 23 21 2 0.20380316D-01 0.15597958D+00 0.88896756D+05 0.88896756D+05 0.88896756D+05 0.11259408D+01  1  2  6  1  7  1       -2 0.310877460040D-02 0.100000000000D+01
0.250593898806D-06 0.000000000000D+00 0.000000000000D+00 0.130829906366D-07 0.000000000000D+00  7 21 2 23 -11 11 23 2 2 0.22485243D-01 0.15597958D+00 0.10003499D+06 0.10003499D+06 0.10003499D+06 0.11217096D+01  1  2 12  3  7  1       -2 0.203605379696D-03 0.100000000000D+01
-.701084680854D-06 0.000000000000D+00 -.152467543326D-06 0.130829906366D-07 0.000000000000D+00  7 21 2 23 -11 11 23 2 2 0.22914137D-01 0.15597958D+00 0.88896756D+05 0.88896756D+05 0.88896756D+05 0.11259408D+01  1  2  5  3  7  1       -2 -.556542112168D-03 0.100000000000D+01
  </mgrwgt>
  </event>
  <event>
  9     66 0.27870365E-05 0.79083201E+03 0.75467711E-02 0.86412248E-01
       -2 -1    0    0    0  501 0.00000000E+00 0.00000000E+00 0.74562870E+03 0.74562877E+03 0.32000000E+00 0.0000E+00 0.9000E+01
        2 -1    0    0  502    0 0.00000000E+00 0.00000000E+00 -.18141972E+04 0.18141972E+04 0.32000000E+00 0.0000E+00 0.9000E+01
       25  2    1    2    0    0 0.13274851E+03 -.61580859E+03 -.63304933E+03 0.94215400E+03 0.30010053E+03 0.0000E+00 0.0000E+00
       23  2    3    3    0    0 -.27988147E+02 -.21266692E+03 -.11369844E+03 0.25921911E+03 0.90866143E+02 0.0000E+00 0.0000E+00
       23  1    1    2    0    0 0.30603833E+03 0.93896993E+03 -.15194471E+03 0.10033576E+04 0.91188000E+02 0.0000E+00 0.9000E+01
      -11  1    4    4    0    0 0.29532062E+02 -.12191445E+03 -.58136150E+02 0.13825732E+03 0.51099893E-03 0.0000E+00 0.9000E+01
       11  1    4    4    0    0 -.57520209E+02 -.90752470E+02 -.55562295E+02 0.12096179E+03 0.51099893E-03 0.0000E+00 0.9000E+01
       23  1    3    3    0    0 0.16073665E+03 -.40314167E+03 -.51935089E+03 0.68293490E+03 0.91188000E+02 0.0000E+00 0.9000E+01
       21  1    1    2  502  501 -.43878684E+03 -.32316134E+03 -.28357443E+03 0.61431439E+03 0.75000000E+00 0.0000E+00 0.9000E+01
#aMCatNLO 2  0  0  2  2 0.54494692D+03 0.00000000D+00  -5  7  0 0.00000000D+00 0.00000000D+00 0.00000000D+00 0.00000000D+00 0.00000000D+00
  <mgrwgt>
 0.3592640424D-04    1    2    0
 0.847324104135503D+03 0.000000000000000D+00 0.000000000000000D+00 0.847324104135503D+03
 0.847324104135503D+03 0.000000000000000D+00 0.000000000000000D+00 -.847324104135503D+03
 0.823205505645823D+03 0.720717238734039D+02 0.766656276556038D+03 0.276398034393775D+03
 0.147396045191317D+03 -.492457187926217D+01 -.147291351355733D+03 -.256915271031057D+01
 0.145330038466475D+03 -.894722982328424D+02 -.114284807657145D+03 -.738313404793531D+01
 0.578716618967391D+03 0.223251462387007D+02 -.505080117543160D+03 -.266445747635529D+03
 0.000000000000000D+00 -.000000000000000D+00 -.000000000000000D+00 -.000000000000000D+00
 0.114371609157227D+04 0.000000000000000D+00 0.000000000000000D+00 0.114371609157227D+04
 0.118273846148407D+04 0.000000000000000D+00 0.000000000000000D+00 -.118273846148407D+04
 0.102958006845554D+04 0.306038332772752D+03 0.938969931080778D+03 0.276398034393775D+03
 0.125466630278931D+03 0.295320623731615D+02 -.121914445657144D+03 -.256915271031057D+01
 0.107699099319789D+03 -.575202093629302D+02 -.907524701634540D+02 -.738313404793531D+01
 0.517366472137721D+03 0.160736653475398D+03 -.403141671059572D+03 -.266445747635529D+03
 0.546342282864358D+03 -.438786839258382D+03 -.323161344200608D+03 -.390223699118026D+02
0.554071376279D-04 0.000000000000D+00 0.000000000000D+00 0.380953467699D-05 0.842121353438D-10  7 -2 2 23 -11 11 23 21 2 0.11471209D+00 0.27910720D+00 0.12244519D+07 0.12244519D+07 0.12244519D+07 0.10420597D+01  1  2  1  2  7  2        2 0.359264042430D-04 0.100000000000D+01
  </mgrwgt>
  </event>
  <event>
  8     66 0.27870365E-05 0.24870051E+03 0.75467711E-02 0.10051156E+00
       -2 -1    0    0    0  501 0.00000000E+00 0.00000000E+00 0.28209275E+03 0.28209293E+03 0.32000000E+00 0.0000E+00 0.9000E+01
        2 -1    0    0  501    0 0.00000000E+00 0.00000000E+00 -.37091227E+03 0.37091240E+03 0.32000000E+00 0.0000E+00 0.9000E+01
       25  2    1    2    0    0 -.16640481E+03 -.77244445E+02 0.11146217E+03 0.36650007E+03 0.29705424E+03 0.0000E+00 0.0000E+00
       23  2    3    3    0    0 -.21636246E+03 -.49471425E+02 0.64941920E+02 0.24925463E+03 0.93006903E+02 0.0000E+00 0.0000E+00
       23  1    1    2    0    0 0.16640481E+03 0.77244445E+02 -.20028169E+03 0.28650527E+03 0.91188000E+02 0.0000E+00 0.9000E+01
      -13  1    4    4    0    0 -.11587526E+03 -.69069352E+02 0.16214255E+02 0.13586966E+03 0.10565837E+00 0.0000E+00 0.9000E+01
       13  1    4    4    0    0 -.10048719E+03 0.19597927E+02 0.48727665E+02 0.11338497E+03 0.10565837E+00 0.0000E+00 0.9000E+01
       23  1    3    3    0    0 0.49957649E+02 -.27773020E+02 0.46520249E+02 0.11724544E+03 0.91188000E+02 0.0000E+00 0.9000E+01
#aMCatNLO 1  0  0  1  2 0.58323646D+02 0.00000000D+00  -5  7  0 0.00000000D+00 0.00000000D+00 0.00000000D+00 0.00000000D+00 0.00000000D+00
  <mgrwgt>
 0.4466858131D-03    9    2    0
 0.323468337308256D+03 0.000000000000000D+00 0.000000000000000D+00 0.323468337308256D+03
 0.323468337308256D+03 0.000000000000000D+00 0.000000000000000D+00 -.323468337308256D+03
 0.261695701040518D+03 0.166404806432246D+03 0.772444456416086D+02 -.162825442154645D+03
 0.139370320054848D+03 -.115875282200825D+03 -.690694650939037D+02 0.350201952980249D+02
 0.121138505124742D+03 -.100487173307229D+03 0.195980396500018D+02 0.647516970160402D+02
 0.124732148396403D+03 0.499576490758081D+02 -.277730201977067D+02 0.630535498405795D+02
 0.000000000000000D+00 -.000000000000000D+00 -.000000000000000D+00 0.000000000000000D+00
 0.389082013962842D+03 0.000000000000000D+00 0.000000000000000D+00 0.389082013962842D+03
 0.338005515587607D+03 0.000000000000000D+00 0.000000000000000D+00 -.338005515587607D+03
 0.276959733810088D+03 0.180050209754069D+03 0.972689064542986D+02 -.162825442154645D+03
 0.128907148289965D+03 -.109079185808077D+03 -.590962775899322D+02 0.350201952980249D+02
 0.117988385851425D+03 -.944295292896425D+02 0.284875574155484D+02 0.647516970160402D+02
 0.125705128504084D+03 0.563018116499291D+02 -.184630399898184D+02 0.630535498405795D+02
 0.775271330948876D+02 -.328433063062784D+02 -.481971462900963D+02 0.510764983752356D+02
0.623062187761D-05 0.000000000000D+00 0.000000000000D+00 0.723534125251D-07 0.000000000000D+00  7 -2 2 23 -13 13 23 21 0 0.43398909D-01 0.57063450D-01 0.75562452D+05 0.75562452D+05 0.75562452D+05 0.11318474D+01  1  2  2  1  7  1       -2 0.330377337582D-03 0.100000000000D+01
-.334998876965D-06 0.000000000000D+00 -.239272285705D-07 0.723534125251D-07 0.000000000000D+00  7 -2 2 23 -13 13 23 21 2 0.43398909D-01 0.57063450D-01 0.75562452D+05 0.75562452D+05 0.75562452D+05 0.11318474D+01  1  2  3  1  7  1       -2 -.227561056542D-04 0.100000000000D+01
0.398583797852D-06 0.000000000000D+00 0.000000000000D+00 0.723534125251D-07 0.000000000000D+00  7 -2 2 23 -13 13 23 21 2 0.43398909D-01 0.57063450D-01 0.75562452D+05 0.75562452D+05 0.75562452D+05 0.11318474D+01  1  2 15  1  7  1       -2 0.270753594703D-04 0.100000000000D+01
0.112655172925D-04 0.000000000000D+00 0.000000000000D+00 0.723534125251D-07 0.000000000000D+00  7 -2 2 23 -13 13 23 21 2 0.53037388D-01 0.57063450D-01 0.94189051D+05 0.94189051D+05 0.94189051D+05 0.11238619D+01  1  2 12  1  7  1       -2 0.510674875495D-03 0.100000000000D+01
-.115562486539D-04 0.000000000000D+00 0.000000000000D+00 0.723534125251D-07 0.000000000000D+00  7 -2 2 23 -13 13 23 21 2 0.43398909D-01 0.57063450D-01 0.75562452D+05 0.75562452D+05 0.75562452D+05 0.11318474D+01  1  2  4  1  7  1       -2 -.785003274387D-03 0.100000000000D+01
-.187912689772D-04 0.000000000000D+00 -.408608019475D-05 0.723534125251D-07 0.000000000000D+00  7 -2 2 23 -13 13 23 21 2 0.54048883D-01 0.57063450D-01 0.75562452D+05 0.75562452D+05 0.75562452D+05 0.11318474D+01  1  2  5  1  7  1       -2 -.834079214552D-03 0.100000000000D+01
0.193173990574D-04 0.000000000000D+00 0.398962326119D-05 0.723534125251D-07 0.000000000000D+00  7 -2 2 23 -13 13 23 21 2 0.43398909D-01 0.57063450D-01 0.75562452D+05 0.75562452D+05 0.75562452D+05 0.11318474D+01  1  2  6  1  7  1       -2 0.131220969424D-02 0.100000000000D+01
0.323078630333D-06 0.000000000000D+00 0.000000000000D+00 0.723534125251D-07 0.000000000000D+00  7 21 2 23 -13 13 23 2 2 0.53037388D-01 0.57063450D-01 0.94189051D+05 0.94189051D+05 0.94189051D+05 0.11238619D+01  1  2 12  3  7  1       -2 0.156347571555D-03 0.100000000000D+01
-.521949056871D-06 0.000000000000D+00 -.125482450832D-06 0.723534125251D-07 0.000000000000D+00  7 21 2 23 -13 13 23 2 2 0.54048883D-01 0.57063450D-01 0.75562452D+05 0.75562452D+05 0.75562452D+05 0.11318474D+01  1  2  5  3  7  1       -2 -.248160430623D-03 0.100000000000D+01
  </mgrwgt>
  </event>
  <event>
  8     66 0.27870365E-05 0.53287185E+03 0.75467711E-02 0.88225364E-01
       -2 -1    0    0    0  501 0.00000000E+00 0.00000000E+00 0.41824208E+03 0.41824221E+03 0.32000000E+00 0.0000E+00 0.9000E+01
        2 -1    0    0  501    0 0.00000000E+00 0.00000000E+00 -.12018514E+04 0.12018514E+04 0.32000000E+00 0.0000E+00 0.9000E+01
       25  2    1    2    0    0 0.61257916E+03 -.16886693E+03 -.66447109E+03 0.96719362E+03 0.30028719E+03 0.0000E+00 0.0000E+00
       23  2    3    3    0    0 0.30889319E+03 -.11134349E+03 -.18088402E+03 0.38606900E+03 0.92292299E+02 0.0000E+00 0.0000E+00
       23  1    1    2    0    0 -.61257916E+03 0.16886693E+03 -.11913822E+03 0.65290002E+03 0.91188000E+02 0.0000E+00 0.9000E+01
      -11  1    4    4    0    0 0.27364678E+03 -.70797275E+02 -.12666245E+03 0.30973891E+03 0.51099893E-03 0.0000E+00 0.9000E+01
       11  1    4    4    0    0 0.35246416E+02 -.40546212E+02 -.54221568E+02 0.76330096E+02 0.51099893E-03 0.0000E+00 0.9000E+01
       23  1    3    3    0    0 0.30368597E+03 -.57523448E+02 -.48358707E+03 0.58112462E+03 0.91188000E+02 0.0000E+00 0.9000E+01
#aMCatNLO 1  0  0  2  1 0.45320118D+03 0.00000000D+00  -5  7  0 0.00000000D+00 0.00000000D+00 0.00000000D+00 0.00000000D+00 0.00000000D+00
  <mgrwgt>
 0.7528065023D-03    8    2    0
 0.708988693101220D+03 0.000000000000000D+00 0.000000000000000D+00 0.708988693101220D+03
 0.708988693101220D+03 0.000000000000000D+00 0.000000000000000D+00 -.708988693101220D+03
 0.680124642432723D+03 -.612579164930693D+03 0.168866934109830D+03 0.224688680527970D+03
 0.283891801278253D+03 0.273646776375475D+03 -.707972746700419D+02 0.264526465900259D+02
 0.572458902646067D+02 0.352464156560952D+02 -.405462118563932D+02 -.197683292081459D+02
 0.396715052226857D+03 0.303685972899123D+03 -.575234475833945D+02 -.231372997909850D+03
 0.000000000000000D+00 -.000000000000000D+00 -.000000000000000D+00 -.000000000000000D+00
 0.843349265563650D+03 0.000000000000000D+00 0.000000000000000D+00 0.843349265563650D+03
 0.126283388872542D+04 0.000000000000000D+00 0.000000000000000D+00 -.126283388872542D+04
 0.550418501246823D+03 -.433365895528115D+03 0.237390548688259D+03 0.224688680527970D+03
 0.371650508347236D+03 0.369118342035829D+03 -.342929645242705D+02 0.264526465900259D+02
 0.659926825019701D+02 0.531945775352184D+02 -.336835898468948D+02 -.197683292081459D+02
 0.500579024014918D+03 0.434365669783226D+03 -.755702929102496D+01 -.231372997909850D+03
 0.617542438178126D+03 -.423312693826159D+03 -.161856965026069D+03 -.419484623161773D+03
0.843321987117D-04 0.000000000000D+00 0.000000000000D+00 0.151293354873D-05 0.000000000000D+00  7 -2 2 23 -11 11 23 21 0 0.64344949D-01 0.18490023D+00 0.42287437D+06 0.42287437D+06 0.42287437D+06 0.10736909D+01  1  2  2  2  7  2        2 0.451617228767D-03 0.100000000000D+01
-.464257457306D-05 0.000000000000D+00 -.323857848231D-06 0.151293354873D-05 0.000000000000D+00  7 -2 2 23 -11 11 23 21 2 0.64344949D-01 0.18490023D+00 0.42287437D+06 0.42287437D+06 0.42287437D+06 0.10736909D+01  1  2  3  2  7  2        2 -.286612088408D-04 0.100000000000D+01
0.529675335725D-05 0.000000000000D+00 0.000000000000D+00 0.151293354873D-05 0.000000000000D+00  7 -2 2 23 -11 11 23 21 2 0.64344949D-01 0.18490023D+00 0.42287437D+06 0.42287437D+06 0.42287437D+06 0.10736909D+01  1  2 15  2  7  2        2 0.326998202746D-04 0.100000000000D+01
0.113176767560D-04 0.000000000000D+00 0.000000000000D+00 0.151293354873D-05 0.000000000000D+00  7 -2 2 23 -11 11 23 21 2 0.64344949D-01 0.33523041D+00 0.84019159D+06 0.84019159D+06 0.84019159D+06 0.10529352D+01  1  2 12  2  7  2        2 0.184560165863D-04 0.100000000000D+01
-.500443219445D-04 0.000000000000D+00 -.243576861421D-04 0.151293354873D-05 0.000000000000D+00  7 -2 2 23 -11 11 23 21 2 0.64344949D-01 0.35175562D+00 0.42287437D+06 0.42287437D+06 0.42287437D+06 0.10736909D+01  1  2  5  2  7  2        2 -.770074773004D-04 0.100000000000D+01
0.576620743573D-04 0.000000000000D+00 0.200635176173D-04 0.151293354873D-05 0.000000000000D+00  7 -2 2 23 -11 11 23 21 2 0.64344949D-01 0.18490023D+00 0.42287437D+06 0.42287437D+06 0.42287437D+06 0.10736909D+01  1  2  6  2  7  2        2 0.355980228070D-03 0.100000000000D+01
0.737402294260D-06 0.000000000000D+00 0.000000000000D+00 0.151293354873D-05 0.000000000000D+00  7 -2 21 23 -11 11 23 -2 2 0.64344949D-01 0.33523041D+00 0.84019159D+06 0.84019159D+06 0.84019159D+06 0.10529352D+01  1  2 12  4  7  2        2 0.186961681908D-06 0.100000000000D+01
-.210367221527D-05 0.000000000000D+00 -.170185499274D-05 0.151293354873D-05 0.000000000000D+00  7 -2 21 23 -11 11 23 -2 2 0.64344949D-01 0.35175562D+00 0.42287437D+06 0.42287437D+06 0.42287437D+06 0.10736909D+01  1  2  5  4  7  2        2 -.465066955521D-06 0.100000000000D+01
  </mgrwgt>
  </event>
  <event>
  9     66 0.27870365E-05 0.48248765E+03 0.75467711E-02 0.94319802E-01
       21 -1    0    0  502  501 0.00000000E+00 0.00000000E+00 0.18049207E+03 0.18049362E+03 0.75000000E+00 0.0000E+00 0.9000E+01
        2 -1    0    0  501    0 0.00000000E+00 0.00000000E+00 -.36534426E+04 0.36534426E+04 0.32000000E+00 0.0000E+00 0.9000E+01
       25  2    1    2    0    0 -.23716924E+03 -.39549090E+03 -.30761001E+03 0.63014040E+03 0.29965098E+03 0.0000E+00 0.0000E+00
       23  2    3    3    0    0 -.19873341E+02 -.81530289E+01 -.31263671E+02 0.99168949E+02 0.91627735E+02 0.0000E+00 0.0000E+00
       23  1    1    2    0    0 0.24497089E+03 0.33408579E+03 -.29256274E+04 0.29562197E+04 0.91188000E+02 0.0000E+00 0.9000E+01
      -11  1    4    4    0    0 0.97171739E+01 -.41929881E+02 0.23061355E+01 0.43102861E+02 0.51099893E-03 0.0000E+00 0.9000E+01
       11  1    4    4    0    0 -.29590515E+02 0.33776852E+02 -.33569807E+02 0.56066088E+02 0.51099893E-03 0.0000E+00 0.9000E+01
       23  1    3    3    0    0 -.21729590E+03 -.38733787E+03 -.27634634E+03 0.53097145E+03 0.91188000E+02 0.0000E+00 0.9000E+01
        2  1    1    2  502    0 -.78016551E+01 0.61405112E+02 -.23971304E+03 0.24757604E+03 0.32000000E+00 0.0000E+00 0.9000E+01
#aMCatNLO 2  0  0  1  2 0.61898736D+02 0.00000000D+00  -5  7  0 0.00000000D+00 0.00000000D+00 0.00000000D+00 0.00000000D+00 0.00000000D+00
  <mgrwgt>
 0.2849485678D-04    1    2    0
 0.775294020282259D+03 0.000000000000000D+00 0.000000000000000D+00 0.775294020282259D+03
 0.775294020282259D+03 0.000000000000000D+00 0.000000000000000D+00 -.775294020282259D+03
 0.749021582059962D+03 0.241235400523386D+03 0.363487039871624D+03 -.601997286063065D+03
 0.102792066014597D+03 0.919610057479227D+01 -.378286277106627D+02 0.951348279826881D+02
 0.611632176059555D+02 -.298942724539824D+02 0.361676616840313D+02 0.392322814869335D+02
 0.637611174884003D+03 -.220537228644196D+03 -.361826073844992D+03 0.467630176593443D+03
 0.000000000000000D+00 -.000000000000000D+00 0.000000000000000D+00 -.000000000000000D+00
 0.793188435717372D+03 0.000000000000000D+00 0.000000000000000D+00 0.793188435717372D+03
 0.831353309629481D+03 0.000000000000000D+00 0.000000000000000D+00 -.831353309629481D+03
 0.736437394298417D+03 0.244970894713921D+03 0.334085786427391D+03 -.601997286063065D+03
 0.104418264107272D+03 0.971717385699536D+01 -.419298809456134D+02 0.951348279826881D+02
 0.596292395637991D+02 -.295905148078950D+02 0.337768520393880D+02 0.392322814869335D+02
 0.651338134820314D+03 -.217295898701784D+03 -.387337869144981D+03 0.467630176593443D+03
 0.727187125570510D+02 -.780165506123734D+01 0.614051116238162D+02 -.381648739121086D+02
0.219886489707D-05 0.000000000000D+00 0.000000000000D+00 0.330043360066D-05 0.239217448557D-10  7 21 2 23 -11 11 23 2 2 0.27768119D-01 0.56206796D+00 0.26390235D+06 0.26390235D+06 0.26390235D+06 0.10886954D+01  1  2  1  3  7  1       -2 0.284948567752D-04 0.100000000000D+01
  </mgrwgt>
  </event>
  <event>
  8     66 0.27870365E-05 0.18718571E+03 0.75467711E-02 0.94067601E-01
       -2 -1    0    0    0  501 0.00000000E+00 0.00000000E+00 0.74692222E+02 0.74692907E+02 0.32000000E+00 0.0000E+00 0.9000E+01
        2 -1    0    0  501    0 0.00000000E+00 0.00000000E+00 -.23916695E+04 0.23916695E+04 0.32000000E+00 0.0000E+00 0.9000E+01
       25  2    1    2    0    0 -.25520809E+03 0.24124214E+03 -.15606237E+04 0.16274853E+04 0.29972144E+03 0.0000E+00 0.0000E+00
       23  2    3    3    0    0 -.10402614E+03 0.24677337E+03 -.10384937E+04 0.10762851E+04 0.90564783E+02 0.0000E+00 0.0000E+00
       23  1    1    2    0    0 0.25520809E+03 -.24124214E+03 -.75635352E+03 0.83887713E+03 0.91188000E+02 0.0000E+00 0.9000E+01
      -11  1    4    4    0    0 -.78389989E+02 0.24200727E+03 -.97514227E+03 0.10077772E+04 0.51099893E-03 0.0000E+00 0.9000E+01
       11  1    4    4    0    0 -.25636148E+02 0.47661031E+01 -.63351423E+02 0.68507888E+02 0.51099893E-03 0.0000E+00 0.9000E+01
       23  1    3    3    0    0 -.15118195E+03 -.55312301E+01 -.52213003E+03 0.55120015E+03 0.91188000E+02 0.0000E+00 0.9000E+01
#aMCatNLO 1  0  0  1  2 0.20704564D+03 0.00000000D+00  -5  7  0 0.00000000D+00 0.00000000D+00 0.00000000D+00 0.00000000D+00 0.00000000D+00
  <mgrwgt>
 0.6023060059D-03    9    2    0
 0.422658228915616D+03 0.000000000000000D+00 0.000000000000000D+00 0.422658228915616D+03
 0.422658228915616D+03 0.000000000000000D+00 0.000000000000000D+00 -.422658228915616D+03
 0.374440966866533D+03 0.255208090010723D+03 -.241242140780392D+03 0.925302471017798D+02
 0.267546458681379D+03 -.783899885381183D+02 0.242007267792212D+03 -.828770148212934D+02
 0.262404353683825D+02 -.256361484351978D+02 0.476610311414738D+01 0.293812913876839D+01
 0.177088596914938D+03 -.151181953037407D+03 -.553123012596711D+01 -.125913614192548D+02
 0.000000000000000D+00 -.000000000000000D+00 0.000000000000000D+00 0.000000000000000D+00
 0.713381235708100D+03 0.000000000000000D+00 0.000000000000000D+00 0.713381235708100D+03
 0.473670097157730D+03 0.000000000000000D+00 0.000000000000000D+00 -.473670097157730D+03
 0.467388002044793D+03 0.304103286009877D+03 -.330296288081931D+03 0.925302471017798D+02
 0.214255252667737D+03 -.504059324184904D+02 0.191039147001471D+03 -.828770148212934D+02
 0.229707814894268D+02 -.227778575204397D+02 -.439779691965621D+00 0.293812913876839D+01
 0.165689249590026D+03 -.131272695209533D+03 -.417925016688482D+02 -.125913614192548D+02
 0.316748047073847D+03 -.996468008614138D+02 0.181489422441274D+03 0.239711138550369D+03
0.230214279770D-04 0.000000000000D+00 0.000000000000D+00 0.774335894274D-06 0.000000000000D+00  7 -2 2 23 -11 11 23 21 0 0.11491165D-01 0.36794920D+00 0.16807146D+06 0.16807146D+06 0.16807146D+06 0.11036743D+01  1  2  2  1  7  1       -2 0.602597878920D-03 0.100000000000D+01
-.127752244210D-05 0.000000000000D+00 -.884083451128D-07 0.774335894274D-06 0.000000000000D+00  7 -2 2 23 -11 11 23 21 2 0.11491165D-01 0.36794920D+00 0.16807146D+06 0.16807146D+06 0.16807146D+06 0.11036743D+01  1  2  3  1  7  1       -2 -.407329381191D-04 0.100000000000D+01
0.151044486863D-05 0.000000000000D+00 0.000000000000D+00 0.774335894274D-06 0.000000000000D+00  7 -2 2 23 -11 11 23 21 2 0.11491165D-01 0.36794920D+00 0.16807146D+06 0.16807146D+06 0.16807146D+06 0.11036743D+01  1  2 15  1  7  1       -2 0.481595119888D-04 0.100000000000D+01
0.129111236028D-04 0.000000000000D+00 0.000000000000D+00 0.774335894274D-06 0.000000000000D+00  7 -2 2 23 -11 11 23 21 2 0.19684257D-01 0.36794920D+00 0.27602003D+06 0.27602003D+06 0.27602003D+06 0.10872389D+01  1  2 12  1  7  1       -2 0.164186541740D-03 0.100000000000D+01
-.199338044619D-04 0.000000000000D+00 0.000000000000D+00 0.774335894274D-06 0.000000000000D+00  7 -2 2 23 -11 11 23 21 2 0.11491165D-01 0.36794920D+00 0.16807146D+06 0.16807146D+06 0.16807146D+06 0.11036743D+01  1  2  4  1  7  1       -2 -.635575859078D-03 0.100000000000D+01
-.210967844449D-04 0.000000000000D+00 -.762727827563D-05 0.774335894274D-06 0.000000000000D+00  7 -2 2 23 -11 11 23 21 2 0.22163064D-01 0.36794920D+00 0.16807146D+06 0.16807146D+06 0.16807146D+06 0.11036743D+01  1  2  5  1  7  1       -2 -.231717623497D-03 0.100000000000D+01
0.224752094191D-04 0.000000000000D+00 0.623350583747D-05 0.774335894274D-06 0.000000000000D+00  7 -2 2 23 -11 11 23 21 2 0.11491165D-01 0.36794920D+00 0.16807146D+06 0.16807146D+06 0.16807146D+06 0.11036743D+01  1  2  6  1  7  1       -2 0.716606835479D-03 0.100000000000D+01
0.772602819115D-06 0.000000000000D+00 0.000000000000D+00 0.774335894274D-06 0.000000000000D+00  7 21 2 23 -11 11 23 2 2 0.19684257D-01 0.36794920D+00 0.27602003D+06 0.27602003D+06 0.27602003D+06 0.10872389D+01  1  2 12  3  7  1       -2 0.123506094322D-03 0.100000000000D+01
-.106054016540D-05 0.000000000000D+00 -.543468391211D-06 0.774335894274D-06 0.000000000000D+00  7 21 2 23 -11 11 23 2 2 0.22163064D-01 0.36794920D+00 0.16807146D+06 0.16807146D+06 0.16807146D+06 0.11036743D+01  1  2  5  3  7  1       -2 -.144724435840D-03 0.100000000000D+01
  </mgrwgt>
  </event>
  <event>
  9     66 0.27870365E-05 0.25631479E+03 0.75467711E-02 0.94808154E-01
       -2 -1    0    0    0  501 0.00000000E+00 0.00000000E+00 0.46067334E+03 0.46067345E+03 0.32000000E+00 0.0000E+00 0.9000E+01
        2 -1    0    0  502    0 0.00000000E+00 0.00000000E+00 -.85818246E+03 0.85818252E+03 0.32000000E+00 0.0000E+00 0.9000E+01
       25  2    1    2    0    0 0.22312885E+03 -.42130126E+02 0.20519570E+03 0.42890897E+03 0.30049326E+03 0.0000E+00 0.0000E+00
       23  2    3    3    0    0 0.27245060E+01 0.72634424E+02 0.81442454E+02 0.13671196E+03 0.82304942E+02 0.0000E+00 0.0000E+00
       23  1    1    2    0    0 0.85159409E+02 0.23001988E+03 -.12189125E+03 0.28867629E+03 0.91188000E+02 0.0000E+00 0.9000E+01
      -11  1    4    4    0    0 -.27052751E+02 0.56844883E+02 0.81531075E+02 0.10300732E+03 0.51099893E-03 0.0000E+00 0.9000E+01
       11  1    4    4    0    0 0.29777257E+02 0.15789541E+02 -.88620443E-01 0.33704636E+02 0.51099893E-03 0.0000E+00 0.9000E+01
       23  1    3    3    0    0 0.22040435E+03 -.11476455E+03 0.12375325E+03 0.29219702E+03 0.91188000E+02 0.0000E+00 0.9000E+01
       21  1    1    2  502  501 -.30828826E+03 -.18788976E+03 -.48081357E+03 0.60127071E+03 0.75000000E+00 0.0000E+00 0.9000E+01
#aMCatNLO 2  0  0  2  2 0.36103215D+03 0.00000000D+00  -5  7  0 0.00000000D+00 0.00000000D+00 0.00000000D+00 0.00000000D+00 0.00000000D+00
  <mgrwgt>
 0.1361587398D-03    1    2    0
 0.307264040465277D+03 0.000000000000000D+00 0.000000000000000D+00 0.307264040465277D+03
 0.307264040465277D+03 0.000000000000000D+00 0.000000000000000D+00 -.307264040465277D+03
 0.240561679772108D+03 -.415343548204730D+02 0.152804941728574D+03 -.156461553052986D+03
 0.105420908397759D+03 -.734146437607355D+02 0.285891051279541D+02 0.700465636335988D+02
 0.196031085568381D+02 0.173395588646002D+02 0.820924532918319D+01 -.402862936959065D+01
 0.248942384203848D+03 0.976094397166083D+02 -.189603292185711D+03 0.904436187889781D+02
 0.000000000000000D+00 -.000000000000000D+00 -.000000000000000D+00 -.000000000000000D+00
 0.409965571682283D+03 0.000000000000000D+00 0.000000000000000D+00 0.409965571682283D+03
 0.964328597676880D+03 0.000000000000000D+00 0.000000000000000D+00 -.964328597676880D+03
 0.304888079854912D+03 0.851594087273747D+02 0.230019884825349D+03 -.156461553052986D+03
 0.941791548004773D+02 -.270527510939116D+02 0.568448835015723D+02 0.700465636335988D+02
 0.339444323931864D+02 0.297772570612776D+02 0.157895407724439D+02 -.402862936959065D+01
 0.279721787430965D+03 0.220404348642996D+03 -.114764550010815D+03 0.904436187889781D+02
 0.661560714879623D+03 -.308288263337737D+03 -.187889759088550D+03 -.554363025994597D+03
0.157672869238D-04 0.000000000000D+00 0.000000000000D+00 0.567979841598D-08 0.460808848417D-12  7 -2 2 23 -11 11 23 21 2 0.70872802D-01 0.13202802D+00 0.24209708D+06 0.24209708D+06 0.24209708D+06 0.10915101D+01  1  2  1  2  7  2        2 0.136158739796D-03 0.100000000000D+01
  </mgrwgt>
  </event>
  <event>
  8     66 0.27870365E-05 0.12541846E+03 0.75467711E-02 0.92986315E-01
       -2 -1    0    0    0  501 0.00000000E+00 0.00000000E+00 0.22017671E+03 0.22017694E+03 0.32000000E+00 0.0000E+00 0.9000E+01
        2 -1    0    0  501    0 0.00000000E+00 0.00000000E+00 -.75982380E+03 0.75982387E+03 0.32000000E+00 0.0000E+00 0.9000E+01
       25  2    1    2    0    0 0.26139700E+03 0.21745325E+03 -.21599707E+03 0.50179699E+03 0.29921760E+03 0.0000E+00 0.0000E+00
       23  2    3    3    0    0 0.25660194E+03 0.18334504E+03 -.85344864E+02 0.33878897E+03 0.89634026E+02 0.0000E+00 0.0000E+00
       23  1    1    2    0    0 -.26139700E+03 -.21745325E+03 -.32365002E+03 0.47820382E+03 0.91188000E+02 0.0000E+00 0.9000E+01
      -11  1    4    4    0    0 0.19234220E+03 0.17476904E+03 -.48988470E+02 0.26446098E+03 0.51099893E-03 0.0000E+00 0.9000E+01
       11  1    4    4    0    0 0.64259746E+02 0.85759982E+01 -.36356395E+02 0.74327991E+02 0.51099893E-03 0.0000E+00 0.9000E+01
       23  1    3    3    0    0 0.47950589E+01 0.34108210E+02 -.13065221E+03 0.16300802E+03 0.91188000E+02 0.0000E+00 0.9000E+01
#aMCatNLO 1  0  0  1  2 0.31806267D+03 0.00000000D+00  -5  7  0 0.00000000D+00 0.00000000D+00 0.00000000D+00 0.00000000D+00 0.00000000D+00
  <mgrwgt>
 0.3161267460D-03    7    2    0
 0.409017911016980D+03 0.000000000000000D+00 0.000000000000000D+00 0.409017911016980D+03
 0.409017911016980D+03 0.000000000000000D+00 0.000000000000000D+00 -.409017911016980D+03
 0.359377101943435D+03 -.261397002747305D+03 -.217453253313422D+03 -.722657570042406D+02
 0.284505255090410D+03 0.192342197551403D+03 0.174769044984050D+03 0.115773486301999D+03
 0.650605596167431D+02 0.642597463372011D+02 0.857599821318150D+01 0.547847359853607D+01
 0.109092905383373D+03 0.479505885870074D+01 0.341082101161900D+02 -.489862028962943D+02
 0.000000000000000D+00 -.000000000000000D+00 -.000000000000000D+00 0.000000000000000D+00
 0.721341933384707D+03 0.000000000000000D+00 0.000000000000000D+00 0.721341933384707D+03
 0.528374035073985D+03 0.000000000000000D+00 0.000000000000000D+00 -.528374035073985D+03
 0.254841253409534D+03 -.184726627342103D+03 -.131463099806593D+03 -.722657570042406D+02
 0.405742775292594D+03 0.278503047599192D+03 0.271403301471407D+03 0.115773486301999D+03
 0.889216914578588D+02 0.834807235234715D+02 0.301334090131616D+02 0.547847359853607D+01
 0.128188113295051D+03 0.344138819043733D+02 0.673273919309195D+02 -.489862028962943D+02
 0.372022135003655D+03 -.211671025684934D+03 -.237401002608895D+03 0.192967898310722D+03
0.932161510702D-05 0.000000000000D+00 0.000000000000D+00 0.101421925742D-06 0.000000000000D+00  7 -2 2 23 -11 11 23 21 0 0.33873363D-01 0.11689599D+00 0.14985652D+06 0.14985652D+06 0.14985652D+06 0.11075847D+01  1  2  2  1  7  1       -2 0.342400741128D-03 0.100000000000D+01
-.515959888894D-06 0.000000000000D+00 -.357974564486D-07 0.101421925742D-06 0.000000000000D+00  7 -2 2 23 -11 11 23 21 2 0.33873363D-01 0.11689599D+00 0.14985652D+06 0.14985652D+06 0.14985652D+06 0.11075847D+01  1  2  3  1  7  1       -2 -.232494864150D-04 0.100000000000D+01
0.587038111633D-06 0.000000000000D+00 0.000000000000D+00 0.101421925742D-06 0.000000000000D+00  7 -2 2 23 -11 11 23 21 2 0.33873363D-01 0.11689599D+00 0.14985652D+06 0.14985652D+06 0.14985652D+06 0.11075847D+01  1  2 15  1  7  1       -2 0.264523171186D-04 0.100000000000D+01
0.252881465479D-06 0.000000000000D+00 0.000000000000D+00 0.101421925742D-06 0.000000000000D+00  7 -2 2 23 -11 11 23 21 2 0.61588855D-01 0.11689599D+00 0.33554775D+06 0.33554775D+06 0.33554775D+06 0.10809720D+01  1  2 12  1  7  1       -2 0.334519819208D-05 0.100000000000D+01
-.297902420154D-05 0.000000000000D+00 -.289055483970D-05 0.101421925742D-06 0.000000000000D+00  7 -2 2 23 -11 11 23 21 2 0.74499050D-01 0.11689599D+00 0.14985652D+06 0.14985652D+06 0.14985652D+06 0.11075847D+01  1  2  5  1  7  1       -2 -.282134881964D-04 0.100000000000D+01
0.165456556170D-07 0.000000000000D+00 0.000000000000D+00 0.101421925742D-06 0.000000000000D+00  7 21 2 23 -11 11 23 2 2 0.61588855D-01 0.11689599D+00 0.33554775D+06 0.33554775D+06 0.33554775D+06 0.10809720D+01  1  2 12  3  7  1       -2 0.219052996166D-05 0.100000000000D+01
-.724317075730D-07 0.000000000000D+00 -.246929795677D-06 0.101421925742D-06 0.000000000000D+00  7 21 2 23 -11 11 23 2 2 0.74499050D-01 0.11689599D+00 0.14985652D+06 0.14985652D+06 0.14985652D+06 0.11075847D+01  1  2  5  3  7  1       -2 -.679906582407D-05 0.100000000000D+01
  </mgrwgt>
  </event>
  <event>
  9     66 0.27870365E-05 0.42736666E+03 0.75467711E-02 0.92960281E-01
       -2 -1    0    0    0  502 0.00000000E+00 0.00000000E+00 0.68112351E+03 0.68112358E+03 0.32000000E+00 0.0000E+00 0.9000E+01
        2 -1    0    0  501    0 0.00000000E+00 0.00000000E+00 -.58312984E+03 0.58312992E+03 0.32000000E+00 0.0000E+00 0.9000E+01
       25  2    1    2    0    0 -.28909499E+03 0.88720473E+01 0.79473770E+02 0.42392827E+03 0.29957381E+03 0.0000E+00 0.0000E+00
       23  2    3    3    0    0 -.10451657E+03 -.76342648E+02 0.11773845E+03 0.19785268E+03 0.92365712E+02 0.0000E+00 0.0000E+00
       23  1    1    2    0    0 0.45403540E+03 0.20941143E+03 -.13597625E+03 0.52612364E+03 0.91188000E+02 0.0000E+00 0.9000E+01
      -13  1    4    4    0    0 -.77409916E+02 -.19252063E+01 0.75250292E+02 0.10797509E+03 0.10565837E+00 0.0000E+00 0.9000E+01
       13  1    4    4    0    0 -.27106659E+02 -.74417442E+02 0.42488158E+02 0.89877591E+02 0.10565837E+00 0.0000E+00 0.9000E+01
       23  1    3    3    0    0 -.18457842E+03 0.85214696E+02 -.38264680E+02 0.22607559E+03 0.91188000E+02 0.0000E+00 0.9000E+01
       21  1    1    2  501  502 -.16494041E+03 -.21828348E+03 0.15449616E+03 0.31420159E+03 0.75000000E+00 0.0000E+00 0.9000E+01
#aMCatNLO 2  0  0  1  2 0.27359279D+03 0.00000000D+00  -5  7  0 0.00000000D+00 0.00000000D+00 0.00000000D+00 0.00000000D+00 0.00000000D+00
  <mgrwgt>
 0.5644051894D-04    2    2    0
 0.454024529055275D+03 0.000000000000000D+00 0.000000000000000D+00 0.454024529055275D+03
 0.454024529055275D+03 0.000000000000000D+00 0.000000000000000D+00 -.454024529055275D+03
 0.409187073464892D+03 0.371571174207065D+03 0.100277598894438D+03 -.104871709269529D+03
 0.132175726875164D+03 -.991624141816590D+02 -.307124571262823D+02 0.818167670218599D+02
 0.119491484674827D+03 -.459478275541939D+02 -.993521790585915D+02 0.479182279425499D+02
 0.247194773095666D+03 -.226460932471212D+03 0.297870372904355D+02 -.248632856948809D+02
 0.000000000000000D+00 -.000000000000000D+00 -.000000000000000D+00 0.000000000000000D+00
 0.722911170134487D+03 0.000000000000000D+00 0.000000000000000D+00 0.722911170134487D+03
 0.549421523309571D+03 0.000000000000000D+00 0.000000000000000D+00 -.549421523309571D+03
 0.518955317677596D+03 0.454035404541277D+03 0.209411428579676D+03 -.104871709269529D+03
 0.112649876374573D+03 -.774099814399038D+02 -.192511162560620D+01 0.818167670218599D+02
 0.925683192527417D+02 -.271065929735978D+02 -.744175367604105D+02 0.479182279425499D+02
 0.224196724142242D+03 -.184578418132043D+03 0.852146956600805D+02 -.248632856948809D+02
 0.323962455996905D+03 -.164940411995733D+03 -.218283475853740D+03 0.173489646824917D+03
-.407561852092D-05 0.000000000000D+00 0.000000000000D+00 0.306779200160D-06 0.000000000000D+00  7 -2 2 23 -13 13 23 21 2 0.10837120D+00 0.74135342D-01 0.33714840D+06 0.33714840D+06 0.33714840D+06 0.10808207D+01  1  2 13  1  7  1       -2 -.255596742597D-04 0.100000000000D+01
0.149811283588D-04 0.000000000000D+00 0.000000000000D+00 0.306779200160D-06 0.307114278516D-10  7 -2 2 23 -13 13 23 21 2 0.10478817D+00 0.89712229D-01 0.33714840D+06 0.33714840D+06 0.33714840D+06 0.10808207D+01  1  2  1  1  7  1       -2 0.820001931996D-04 0.100000000000D+01
  </mgrwgt>
  </event>
  <event>
  9     66 -.27870365E-05 0.15883160E+04 0.75467711E-02 0.82324207E-01
       -2 -1    0    0    0  502 0.00000000E+00 0.00000000E+00 0.11634822E+04 0.11634822E+04 0.32000000E+00 0.0000E+00 0.9000E+01
        2 -1    0    0  501    0 0.00000000E+00 0.00000000E+00 -.27459229E+04 0.27459229E+04 0.32000000E+00 0.0000E+00 0.9000E+01
       25  2    1    2    0    0 -.10706996E+04 0.10663909E+04 -.11131460E+04 0.19009106E+04 0.30129742E+03 0.0000E+00 0.0000E+00
       23  2    3    3    0    0 -.96772988E+03 0.96317370E+03 -.97021382E+03 0.16773007E+04 0.88419930E+02 0.0000E+00 0.0000E+00
       23  1    1    2    0    0 0.95819889E+03 -.13440808E+04 -.38989673E+03 0.16985385E+04 0.91188000E+02 0.0000E+00 0.9000E+01
      -13  1    4    4    0    0 -.12206341E+03 0.12261347E+03 -.88314146E+02 0.19424968E+03 0.10565837E+00 0.0000E+00 0.9000E+01
       13  1    4    4    0    0 -.84566647E+03 0.84056023E+03 -.88189968E+03 0.14830510E+04 0.10565837E+00 0.0000E+00 0.9000E+01
       23  1    3    3    0    0 -.10296968E+03 0.10321719E+03 -.14293215E+03 0.22360991E+03 0.91188000E+02 0.0000E+00 0.9000E+01
       21  1    1    2  501  502 0.11250066E+03 0.27768996E+03 -.79398063E+02 0.30995601E+03 0.75000000E+00 0.0000E+00 0.9000E+01
#aMCatNLO 2  0  0  1  2 0.29961327D+03 0.00000000D+00  -5  7  0 0.00000000D+00 0.00000000D+00 0.00000000D+00 0.00000000D+00 0.00000000D+00
  <mgrwgt>
 -.3902845567D-04    2    2    0
 0.162842935718746D+04 0.000000000000000D+00 0.000000000000000D+00 0.162842935718746D+04
 0.162842935718746D+04 0.000000000000000D+00 0.000000000000000D+00 -.162842935718746D+04
 0.161576916941309D+04 0.101517599444504D+04 -.120344194924133D+04 0.351482478355074D+03
 0.180162290488041D+03 -.115972309703420D+03 0.137644792707940D+03 -.792371985493664D+01
 0.127451523604819D+04 -.802556109390086D+03 0.946974866417409D+03 -.289017958911467D+03
 0.186412018425604D+03 -.966475753515319D+02 0.118822290115980D+03 -.545407995886699D+02
 0.000000000000000D+00 0.000000000000000D+00 0.000000000000000D+00 0.000000000000000D+00
 0.181515219585072D+04 0.000000000000000D+00 0.000000000000000D+00 0.181515219585072D+04
 0.176008977102978D+04 0.000000000000000D+00 0.000000000000000D+00 -.176008977102978D+04
 0.169013420269227D+04 0.958198890958815D+03 -.134408084747194D+04 0.351482478355074D+03
 0.173193011193164D+03 -.122062373242838D+03 0.122612441571571D+03 -.792371985493664D+01
 0.122687739365434D+04 -.845667504576290D+03 0.840561259034955D+03 -.289017958911467D+03
 0.180406466222265D+03 -.102969676274624D+03 0.103217191683038D+03 -.545407995886699D+02
 0.304630893118465D+03 0.112500663134936D+03 0.277689955182380D+03 0.550624248209327D+02
-.258969801045D-02 0.000000000000D+00 0.000000000000D+00 0.422877937534D-06 0.000000000000D+00  7 -2 2 23 -13 13 23 21 2 0.18485738D+00 0.39084898D+00 0.30452372D+07 0.30452372D+07 0.30452372D+07 0.10171118D+01  1  2 13  1  7  1       -2 -.150830045228D-03 0.100000000000D+01
0.232339111018D-02 0.000000000000D+00 0.000000000000D+00 0.422877937534D-06 0.262421069556D-10  7 -2 2 23 -13 13 23 21 2 0.17899721D+00 0.42244958D+00 0.30452372D+07 0.30452372D+07 0.30452372D+07 0.10171118D+01  1  2  1  1  7  1       -2 0.111801589554D-03 0.100000000000D+01
  </mgrwgt>
  </event>
  <event>
  9     66 0.27870365E-05 0.25818818E+03 0.75467711E-02 0.98716841E-01
       21 -1    0    0  502  501 0.00000000E+00 0.00000000E+00 0.28681759E+03 0.28681857E+03 0.75000000E+00 0.0000E+00 0.9000E+01
        2 -1    0    0  501    0 0.00000000E+00 0.00000000E+00 -.30692127E+04 0.30692127E+04 0.32000000E+00 0.0000E+00 0.9000E+01
       25  2    1    2    0    0 -.59748952E+02 -.88356959E+02 0.16513639E+03 0.35758902E+03 0.29870217E+03 0.0000E+00 0.0000E+00
       23  2    3    3    0    0 0.53309329E+02 -.20418966E+02 -.22868183E+02 0.11048840E+03 0.91792773E+02 0.0000E+00 0.0000E+00
       23  1    1    2    0    0 0.23296031E+03 0.12719540E+03 -.88844412E+03 0.93171744E+03 0.91188000E+02 0.0000E+00 0.9000E+01
      -13  1    4    4    0    0 -.15492776E+02 -.12809856E+02 0.20573353E+02 0.28764432E+02 0.10565837E+00 0.0000E+00 0.9000E+01
       13  1    4    4    0    0 0.68802104E+02 -.76091098E+01 -.43441536E+02 0.81723964E+02 0.10565837E+00 0.0000E+00 0.9000E+01
       23  1    3    3    0    0 -.11305828E+03 -.67937993E+02 0.18800458E+03 0.24710062E+03 0.91188000E+02 0.0000E+00 0.9000E+01
        2  1    1    2  502    0 -.17321136E+03 -.38838440E+02 -.20590874E+04 0.20667249E+04 0.32000000E+00 0.0000E+00 0.9000E+01
#aMCatNLO 2  0  0  1  2 0.17751225D+03 0.00000000D+00  -5  7  0 0.00000000D+00 0.00000000D+00 0.00000000D+00 0.00000000D+00 0.00000000D+00
  <mgrwgt>
 0.4153141031D-04    1    2    0
 0.526219174014638D+03 0.000000000000000D+00 0.000000000000000D+00 0.526219174014638D+03
 0.526219174014638D+03 0.000000000000000D+00 0.000000000000000D+00 -.526219174014638D+03
 0.487780942675071D+03 0.150331419179400D+03 0.108667876602436D+03 -.441822083756806D+03
 0.524002789544118D+02 -.237533184986482D+02 -.146620640557088D+02 0.443462847646592D+02
 0.592185428586352D+02 0.583019412903497D+02 -.996353439040850D+01 0.290644843886516D+01
 0.453038583541158D+03 -.184880041971101D+03 -.840422781563190D+02 0.394569350553282D+03
 0.000000000000000D+00 -.000000000000000D+00 -.000000000000000D+00 -.000000000000000D+00
 0.540852773613165D+03 0.000000000000000D+00 0.000000000000000D+00 0.540852773613165D+03
 0.162762557686998D+04 0.000000000000000D+00 0.000000000000000D+00 -.162762557686998D+04
 0.523422565294021D+03 0.232960312928721D+03 0.127195398579981D+03 -.441822083756806D+03
 0.486899899120076D+02 -.154928872210414D+02 -.128098630265608D+02 0.443462847646592D+02
 0.692826876084272D+02 0.688022158990137D+02 -.760910291063482D+01 0.290644843886516D+01
 0.425908404922376D+03 -.113058280328974D+03 -.679379929975768D+02 0.394569350553282D+03
 0.110117470274631D+04 -.173211361277719D+03 -.388384396452084D+02 -.108677280325681D+04
0.288344239182D-05 0.000000000000D+00 0.000000000000D+00 0.405400538219D-06 0.884594045773D-12  7 21 2 23 -13 13 23 2 2 0.44125859D-01 0.47218663D+00 0.12525918D+06 0.12525918D+06 0.12525918D+06 0.11137829D+01  1  2  1  3  7  1       -2 0.415314103142D-04 0.100000000000D+01
  </mgrwgt>
  </event>
  <event>
  8     66 0.27870365E-05 0.21445627E+03 0.75467711E-02 0.88490820E-01
       -2 -1    0    0    0  501 0.00000000E+00 0.00000000E+00 0.60328002E+02 0.60328851E+02 0.32000000E+00 0.0000E+00 0.9000E+01
        2 -1    0    0  501    0 0.00000000E+00 0.00000000E+00 -.10674574E+04 0.10674574E+04 0.32000000E+00 0.0000E+00 0.9000E+01
       25  2    1    2    0    0 -.80185304E+02 0.63373597E+02 -.42434632E+03 0.52912340E+03 0.29909176E+03 0.0000E+00 0.0000E+00
       23  2    3    3    0    0 -.14534449E+03 0.68855937E+02 -.15814143E+03 0.24023576E+03 0.82694297E+02 0.0000E+00 0.0000E+00
       23  1    1    2    0    0 0.80185304E+02 -.63373597E+02 -.58278304E+03 0.59866286E+03 0.91188000E+02 0.0000E+00 0.9000E+01
      -13  1    4    4    0    0 -.10846442E+03 0.82391673E+01 -.82497835E+02 0.13652222E+03 0.10565837E+00 0.0000E+00 0.9000E+01
       13  1    4    4    0    0 -.36880072E+02 0.60616769E+02 -.75643593E+02 0.10371353E+03 0.10565837E+00 0.0000E+00 0.9000E+01
       23  1    3    3    0    0 0.65159186E+02 -.54823393E+01 -.26620489E+03 0.28888765E+03 0.91188000E+02 0.0000E+00 0.9000E+01
#aMCatNLO 1  0  0  1  2 0.84265135D+03 0.00000000D+00  -5  7  0 0.00000000D+00 0.00000000D+00 0.00000000D+00 0.00000000D+00 0.00000000D+00
  <mgrwgt>
 0.8673585589D-03    3    2    0
 0.253767758834892D+03 0.000000000000000D+00 0.000000000000000D+00 0.253767758834892D+03
 0.253767758834892D+03 0.000000000000000D+00 0.000000000000000D+00 -.253767758834892D+03
 0.173831849647741D+03 0.801853050089879D+02 -.633735982293472D+02 -.107034408094013D+03
 0.139659085048119D+03 -.108464533935311D+03 0.823908518505339D+01 0.875912232474629D+02
 0.803564719098016D+02 -.368799569695214D+02 0.606168519227940D+02 0.377177493322049D+02
 0.113688111064123D+03 0.651591858958446D+02 -.548233887850023D+01 -.182745644856552D+02
 0.000000000000000D+00 0.000000000000000D+00 0.000000000000000D+00 -.000000000000000D+00
 0.700431366911168D+03 0.000000000000000D+00 0.000000000000000D+00 0.700431366911168D+03
 0.134289472591732D+04 0.000000000000000D+00 0.000000000000000D+00 -.134289472591732D+04
 0.217583448978308D+03 -.139347883902993D+03 -.902945660658417D+02 -.107034408094013D+03
 0.447761730260185D+03 -.437931382243435D+03 -.321628534487008D+02 0.875912232474629D+02
 0.204271246547534D+03 -.196519171136716D+03 0.410405765935936D+02 0.377177493322049D+02
 0.114077432422348D+03 -.625877270668659D+02 -.211477175491460D+02 -.182745644856552D+02
 0.105963223462011D+04 0.836386164350010D+03 0.102564560470095D+03 -.642463359006151D+03
0.436589582163D-05 0.000000000000D+00 0.000000000000D+00 0.126343397038D-08 0.000000000000D+00  7 -2 2 23 -13 13 23 21 0 0.92813000D-02 0.16422428D+00 0.45991492D+05 0.45991492D+05 0.45991492D+05 0.11505014D+01  1  2  2  1  7  1       -2 0.856404687187D-03 0.100000000000D+01
-.234195255671D-06 0.000000000000D+00 -.167661895218D-07 0.126343397038D-08 0.000000000000D+00  7 -2 2 23 -13 13 23 21 2 0.92813000D-02 0.16422428D+00 0.45991492D+05 0.45991492D+05 0.45991492D+05 0.11505014D+01  1  2  3  1  7  1       -2 -.608076286590D-04 0.100000000000D+01
0.276383133129D-06 0.000000000000D+00 0.000000000000D+00 0.126343397038D-08 0.000000000000D+00  7 -2 2 23 -13 13 23 21 2 0.92813000D-02 0.16422428D+00 0.45991492D+05 0.45991492D+05 0.45991492D+05 0.11505014D+01  1  2 15  1  7  1       -2 0.717615003720D-04 0.100000000000D+01
  </mgrwgt>
  </event>
  <event>
  8     66 0.27870365E-05 0.14022518E+03 0.75467711E-02 0.94764023E-01
       -2 -1    0    0    0  501 0.00000000E+00 0.00000000E+00 0.80215690E+02 0.80216328E+02 0.32000000E+00 0.0000E+00 0.9000E+01
        2 -1    0    0  501    0 0.00000000E+00 0.00000000E+00 -.26937184E+04 0.26937184E+04 0.32000000E+00 0.0000E+00 0.9000E+01
       25  2    1    2    0    0 -.20504190E+03 -.11350970E+03 -.24374687E+04 0.24669659E+04 0.29956719E+03 0.0000E+00 0.0000E+00
       23  2    3    3    0    0 -.15006432E+03 -.18515117E+03 -.17494620E+04 0.17670920E+04 0.72087113E+02 0.0000E+00 0.0000E+00
       23  1    1    2    0    0 0.20504190E+03 0.11350970E+03 -.17603397E+03 0.30696880E+03 0.91188000E+02 0.0000E+00 0.9000E+01
      -11  1    4    4    0    0 -.31458826E+02 -.78674626E+02 -.78352244E+03 0.78809058E+03 0.51099893E-03 0.0000E+00 0.9000E+01
       11  1    4    4    0    0 -.11860549E+03 -.10647654E+03 -.96593957E+03 0.97900141E+03 0.51099893E-03 0.0000E+00 0.9000E+01
       23  1    3    3    0    0 -.54977586E+02 0.71641468E+02 -.68800670E+03 0.69987392E+03 0.91188000E+02 0.0000E+00 0.9000E+01
#aMCatNLO 1  0  0  1  2 0.30430867D+03 0.00000000D+00  -5  7  0 0.00000000D+00 0.00000000D+00 0.00000000D+00 0.00000000D+00 0.00000000D+00
  <mgrwgt>
 0.5801451235D-03    7    2    0
 0.464843402290619D+03 0.000000000000000D+00 0.000000000000000D+00 0.464843402290619D+03
 0.464843402290619D+03 0.000000000000000D+00 0.000000000000000D+00 -.464843402290619D+03
 0.421051638495238D+03 0.205041902560425D+03 0.113509700161479D+03 0.337701935290837D+03
 0.148839192711418D+03 -.314588256453370D+02 -.786746255554168D+02 -.122367278590797D+03
 0.205661041170473D+03 -.118605490699067D+03 -.106476542188993D+03 -.129969024751407D+03
 0.154134932204110D+03 -.549775862160207D+02 0.716414675829311D+02 -.853656319486329D+02
 0.000000000000000D+00 -.000000000000000D+00 -.000000000000000D+00 0.000000000000000D+00
 0.114087009239089D+04 0.000000000000000D+00 0.000000000000000D+00 0.114087009239089D+04
 0.524632523212606D+03 0.000000000000000D+00 0.000000000000000D+00 -.524632523212606D+03
 0.518672961380787D+03 0.322234417517443D+03 0.206951135758016D+03 0.337701935290837D+03
 0.132504059228526D+03 0.362732966588713D+01 -.506992832475377D+02 -.122367278590797D+03
 0.164315738369817D+03 -.724658990828155D+02 -.696879326089217D+02 -.129969024751407D+03
 0.162730794980012D+03 -.154614434255789D+02 0.103148984192937D+03 -.853656319486329D+02
 0.687279061644352D+03 -.237934404674936D+03 -.189712904094494D+03 0.616237569178282D+03
0.588077699393D-04 0.000000000000D+00 0.000000000000D+00 0.309301386291D-08 0.000000000000D+00  7 -2 2 23 -11 11 23 21 0 0.12340926D-01 0.41441826D+00 0.97323727D+05 0.97323727D+05 0.97323727D+05 0.11226901D+01  1  2  2  1  7  1       -2 0.941670247278D-03 0.100000000000D+01
-.263533074330D-05 0.000000000000D+00 -.225837321009D-06 0.309301386291D-08 0.000000000000D+00  7 -2 2 23 -11 11 23 21 2 0.12340926D-01 0.41441826D+00 0.97323727D+05 0.97323727D+05 0.97323727D+05 0.11226901D+01  1  2  3  1  7  1       -2 -.531886620045D-04 0.100000000000D+01
0.353100026020D-05 0.000000000000D+00 0.000000000000D+00 0.309301386291D-08 0.000000000000D+00  7 -2 2 23 -11 11 23 21 2 0.12340926D-01 0.41441826D+00 0.97323727D+05 0.97323727D+05 0.97323727D+05 0.11226901D+01  1  2 15  1  7  1       -2 0.712658856407D-04 0.100000000000D+01
0.628691385161D-07 0.000000000000D+00 0.000000000000D+00 0.309301386291D-08 0.000000000000D+00  7 -2 2 23 -11 11 23 21 2 0.29899753D-01 0.41441826D+00 0.24398213D+06 0.24398213D+06 0.24398213D+06 0.10912561D+01  1  2 12  1  7  1       -2 0.263684853595D-06 0.100000000000D+01
-.506551713609D-04 0.000000000000D+00 -.188603632156D-04 0.309301386291D-08 0.000000000000D+00  7 -2 2 23 -11 11 23 21 2 0.34954688D-01 0.41441826D+00 0.97323727D+05 0.97323727D+05 0.97323727D+05 0.11226901D+01  1  2  5  1  7  1       -2 -.179752846930D-03 0.100000000000D+01
0.609504959934D-08 0.000000000000D+00 0.000000000000D+00 0.309301386291D-08 0.000000000000D+00  7 21 2 23 -11 11 23 2 2 0.29899753D-01 0.41441826D+00 0.24398213D+06 0.24398213D+06 0.24398213D+06 0.10912561D+01  1  2 12  3  7  1       -2 0.296604524867D-06 0.100000000000D+01
-.489934758272D-05 0.000000000000D+00 -.220994001668D-05 0.309301386291D-08 0.000000000000D+00  7 21 2 23 -11 11 23 2 2 0.34954688D-01 0.41441826D+00 0.97323727D+05 0.97323727D+05 0.97323727D+05 0.11226901D+01  1  2  5  3  7  1       -2 -.200409789860D-03 0.100000000000D+01
  </mgrwgt>
  </event>
  <event>
  8     66 0.27870365E-05 0.13782892E+03 0.75467711E-02 0.10044886E+00
       -2 -1    0    0    0  501 0.00000000E+00 0.00000000E+00 0.52017396E+03 0.52017406E+03 0.32000000E+00 0.0000E+00 0.9000E+01
        2 -1    0    0  501    0 0.00000000E+00 0.00000000E+00 -.16001052E+03 0.16001084E+03 0.32000000E+00 0.0000E+00 0.9000E+01
       25  2    1    2    0    0 -.10754682E+03 0.14633604E+02 0.29603376E+02 0.32051051E+03 0.30011693E+03 0.0000E+00 0.0000E+00
       23  2    3    3    0    0 -.60610874E+02 0.89021008E+02 0.99909135E+02 0.17561531E+03 0.96231411E+02 0.0000E+00 0.0000E+00
       23  1    1    2    0    0 0.10754682E+03 -.14633604E+02 0.33056006E+03 0.35967439E+03 0.91188000E+02 0.0000E+00 0.9000E+01
      -13  1    4    4    0    0 0.25600487E+02 0.14333520E+02 0.12413365E+02 0.31858084E+02 0.10565837E+00 0.0000E+00 0.9000E+01
       13  1    4    4    0    0 -.86211361E+02 0.74687487E+02 0.87495769E+02 0.14375723E+03 0.10565837E+00 0.0000E+00 0.9000E+01
       23  1    3    3    0    0 -.46935941E+02 -.74387403E+02 -.70305758E+02 0.14489520E+03 0.91188000E+02 0.0000E+00 0.9000E+01
#aMCatNLO 1  0  0  1  2 0.16029480D+03 0.00000000D+00  -5  7  0 0.00000000D+00 0.00000000D+00 0.00000000D+00 0.00000000D+00 0.00000000D+00
  <mgrwgt>
 0.2499828273D-03    7    2    0
 0.288502078195868D+03 0.000000000000000D+00 0.000000000000000D+00 0.288502078195868D+03
 0.288502078195868D+03 0.000000000000000D+00 0.000000000000000D+00 -.288502078195868D+03
 0.217657773273397D+03 0.107546816185658D+03 -.146336044513559D+02 0.165164145235651D+03
 0.298065139071648D+02 0.256006089045208D+02 0.143334516593709D+02 -.525254781456134D+01
 0.114849732146939D+03 -.862114801516727D+02 0.746875647399779D+02 0.134093004102712D+02
 0.214690137064235D+03 -.469359449385065D+02 -.743874119479929D+02 -.173320897831360D+03
 0.000000000000000D+00 -.000000000000000D+00 0.000000000000000D+00 0.000000000000000D+00
 0.653349627107830D+03 0.000000000000000D+00 0.000000000000000D+00 0.653349627107830D+03
 0.317577670313233D+03 0.000000000000000D+00 0.000000000000000D+00 -.317577670313233D+03
 0.242980945056375D+03 0.135816238533466D+03 -.707053236728815D+02 0.165164145235651D+03
 0.305814473646243D+02 0.293066212608098D+02 0.698266529675336D+01 -.525254781456134D+01
 0.898900693100560D+02 -.736465877783606D+02 0.497654029590638D+02 0.134093004102712D+02
 0.235403296825665D+03 -.193136872508681D+02 -.129175495633262D+03 -.173320897831360D+03
 0.372071538864343D+03 -.721625847650468D+02 0.143132751050326D+03 0.335771956794597D+03
0.829102946819D-05 0.000000000000D+00 0.000000000000D+00 0.284543310148D-07 0.000000000000D+00  7 -2 2 23 -13 13 23 21 0 0.80026795D-01 0.24617036D-01 0.42406966D+05 0.42406966D+05 0.42406966D+05 0.11536410D+01  1  2  2  1  7  1       -2 0.321187659478D-03 0.100000000000D+01
-.396946243121D-06 0.000000000000D+00 -.318397362360D-07 0.284543310148D-07 0.000000000000D+00  7 -2 2 23 -13 13 23 21 2 0.80026795D-01 0.24617036D-01 0.42406966D+05 0.42406966D+05 0.42406966D+05 0.11536410D+01  1  2  3  1  7  1       -2 -.204655528971D-04 0.100000000000D+01
0.514475481032D-06 0.000000000000D+00 0.000000000000D+00 0.284543310148D-07 0.000000000000D+00  7 -2 2 23 -13 13 23 21 2 0.80026795D-01 0.24617036D-01 0.42406966D+05 0.42406966D+05 0.42406966D+05 0.11536410D+01  1  2 15  1  7  1       -2 0.265250656827D-04 0.100000000000D+01
0.120530262842D-05 0.000000000000D+00 0.000000000000D+00 0.284543310148D-07 0.000000000000D+00  7 -2 2 23 -13 13 23 21 2 0.18014372D+00 0.24617036D-01 0.95115173D+05 0.95115173D+05 0.95115173D+05 0.11235113D+01  1  2 12  1  7  1       -2 0.742339730345D-05 0.100000000000D+01
-.932380394039D-05 0.000000000000D+00 -.242998327622D-05 0.284543310148D-07 0.000000000000D+00  7 -2 2 23 -13 13 23 21 2 0.18866885D+00 0.24617036D-01 0.42406966D+05 0.42406966D+05 0.42406966D+05 0.11536410D+01  1  2  5  1  7  1       -2 -.540643909209D-04 0.100000000000D+01
0.106202206287D-06 0.000000000000D+00 0.000000000000D+00 0.284543310148D-07 0.000000000000D+00  7 21 2 23 -13 13 23 2 2 0.18014372D+00 0.24617036D-01 0.95115173D+05 0.95115173D+05 0.95115173D+05 0.11235113D+01  1  2 12  3  7  1       -2 0.555605547740D-05 0.100000000000D+01
-.719489915745D-06 0.000000000000D+00 -.227472171537D-06 0.284543310148D-07 0.000000000000D+00  7 21 2 23 -13 13 23 2 2 0.18866885D+00 0.24617036D-01 0.42406966D+05 0.42406966D+05 0.42406966D+05 0.11536410D+01  1  2  5  3  7  1       -2 -.361794068345D-04 0.100000000000D+01
  </mgrwgt>
  </event>
  <event>
  8     66 0.27870365E-05 0.24899824E+03 0.75467711E-02 0.83963496E-01
       -2 -1    0    0    0  501 0.00000000E+00 0.00000000E+00 0.40188576E+03 0.40188589E+03 0.32000000E+00 0.0000E+00 0.9000E+01
        2 -1    0    0  501    0 0.00000000E+00 0.00000000E+00 -.20342372E+03 0.20342397E+03 0.32000000E+00 0.0000E+00 0.9000E+01
       25  2    1    2    0    0 0.35818352E+02 -.15464861E+03 0.24225374E+03 0.41707566E+03 0.30011013E+03 0.0000E+00 0.0000E+00
       23  2    3    3    0    0 0.12944160E+03 -.11909604E+03 0.17964683E+03 0.26786382E+03 0.92406982E+02 0.0000E+00 0.0000E+00
       23  1    1    2    0    0 -.35818352E+02 0.15464861E+03 -.43791704E+02 0.18823419E+03 0.91188000E+02 0.0000E+00 0.9000E+01
      -13  1    4    4    0    0 0.53994236E+01 0.23501558E+01 -.94701093E+01 0.11152181E+02 0.10565837E+00 0.0000E+00 0.9000E+01
       13  1    4    4    0    0 0.12404217E+03 -.12144619E+03 0.18911694E+03 0.25671164E+03 0.10565837E+00 0.0000E+00 0.9000E+01
       23  1    3    3    0    0 -.93623244E+02 -.35552569E+02 0.62606913E+02 0.14921184E+03 0.91188000E+02 0.0000E+00 0.9000E+01
#aMCatNLO 1  0  0  2  2 0.14040736D+04 0.00000000D+00  -5  7  0 0.00000000D+00 0.00000000D+00 0.00000000D+00 0.00000000D+00 0.00000000D+00
  <mgrwgt>
 0.7610918578D-03    3    2    0
 0.285925183110486D+03 0.000000000000000D+00 0.000000000000000D+00 0.285925183110486D+03
 0.285925183110486D+03 0.000000000000000D+00 0.000000000000000D+00 -.285925183110486D+03
 0.214445963626069D+03 -.358183522041970D+02 0.154648608327858D+03 -.111681124453267D+03
 0.150910791638036D+02 0.539926870423914D+01 0.235031732651729D+01 -.138947679452477D+02
 0.206098837648661D+03 0.124042328084687D+03 -.121446355996827D+03 0.111090118095859D+03
 0.136214485782439D+03 -.936232445847290D+02 -.355525696575485D+02 0.144857743026555D+02
 0.000000000000000D+00 -.000000000000000D+00 0.000000000000000D+00 0.000000000000000D+00
 0.196119859935361D+04 0.000000000000000D+00 0.000000000000000D+00 0.196119859935361D+04
 0.116766085157392D+04 0.000000000000000D+00 0.000000000000000D+00 -.116766085157392D+04
 0.332255555413151D+03 0.299321784594016D+03 0.350691705191866D+01 -.111681124453267D+03
 0.497210789326576D+02 0.451305567548163D+02 -.155677217657428D+02 -.138947679452477D+02
 0.946621906733489D+03 0.830685669118932D+03 -.440128775575544D+03 0.111090118095859D+03
 0.187460632662422D+03 0.104796770169257D+03 -.125036141811638D+03 0.144857743026555D+02
 0.161280027718581D+04 -.127993478063702D+04 0.577225722101006D+03 0.793537747779689D+03
0.147408798962D-04 0.000000000000D+00 0.000000000000D+00 0.239030098268D-06 0.000000000000D+00  7 -2 2 23 -13 13 23 21 0 0.61828607D-01 0.31295986D-01 0.62000125D+05 0.62000125D+05 0.62000125D+05 0.11391675D+01  1  2  2  2  7  2        2 0.752715421864D-03 0.100000000000D+01
-.799897270775D-06 0.000000000000D+00 -.566088601643D-07 0.239030098268D-06 0.000000000000D+00  7 -2 2 23 -13 13 23 21 2 0.61828607D-01 0.31295986D-01 0.62000125D+05 0.62000125D+05 0.62000125D+05 0.11391675D+01  1  2  3  2  7  2        2 -.530049977084D-04 0.100000000000D+01
0.926305883229D-06 0.000000000000D+00 0.000000000000D+00 0.239030098268D-06 0.000000000000D+00  7 -2 2 23 -13 13 23 21 2 0.61828607D-01 0.31295986D-01 0.62000125D+05 0.62000125D+05 0.62000125D+05 0.11391675D+01  1  2 15  2  7  2        2 0.613814336061D-04 0.100000000000D+01
  </mgrwgt>
  </event>
  <event>
  8     66 0.27870365E-05 0.28165626E+03 0.75467711E-02 0.95036923E-01
       -2 -1    0    0    0  501 0.00000000E+00 0.00000000E+00 0.62849227E+02 0.62850042E+02 0.32000000E+00 0.0000E+00 0.9000E+01
        2 -1    0    0  501    0 0.00000000E+00 0.00000000E+00 -.19497350E+04 0.19497350E+04 0.32000000E+00 0.0000E+00 0.9000E+01
       25  2    1    2    0    0 0.71028805E+02 -.24298683E+03 -.14373547E+04 0.14886756E+04 0.29339192E+03 0.0000E+00 0.0000E+00
       23  2    3    3    0    0 0.10367102E+02 -.14575157E+03 -.33653500E+03 0.37815599E+03 0.91625059E+02 0.0000E+00 0.0000E+00
       23  1    1    2    0    0 -.71028805E+02 0.24298683E+03 -.44953106E+03 0.52390945E+03 0.91188000E+02 0.0000E+00 0.9000E+01
      -11  1    4    4    0    0 0.13905998E+02 -.48317714E+02 -.22256036E+03 0.22816900E+03 0.51099893E-03 0.0000E+00 0.9000E+01
       11  1    4    4    0    0 -.35388955E+01 -.97433854E+02 -.11397465E+03 0.14998700E+03 0.51099893E-03 0.0000E+00 0.9000E+01
       23  1    3    3    0    0 0.60661703E+02 -.97235264E+02 -.11008197E+04 0.11105196E+04 0.91188000E+02 0.0000E+00 0.9000E+01
#aMCatNLO 1  0  0  2  2 0.31134023D+03 0.00000000D+00  -5  7  0 0.00000000D+00 0.00000000D+00 0.00000000D+00 0.00000000D+00 0.00000000D+00
  <mgrwgt>
 0.7743415480D-02    6    2    0
 0.350057402999035D+03 0.000000000000000D+00 0.000000000000000D+00 0.350057402999035D+03
 0.350057402999035D+03 0.000000000000000D+00 0.000000000000000D+00 -.350057402999035D+03
 0.294521104610981D+03 -.710288051935531D+02 0.242986832005052D+03 0.119748645178962D+03
 0.560815786887357D+02 0.139059980022194D+02 -.483177144300953D+02 -.248428090206178D+02
 0.123986030791239D+03 -.353889551923041D+01 -.974338539219138D+02 0.765941000325301D+02
 0.225526091907114D+03 0.606617027105641D+02 -.972352636530434D+02 -.171499936190875D+03
 0.000000000000000D+00 -.000000000000000D+00 0.000000000000000D+00 -.000000000000000D+00
 0.529719096941955D+03 0.000000000000000D+00 0.000000000000000D+00 0.529719096941955D+03
 0.548401408654490D+03 0.000000000000000D+00 0.000000000000000D+00 -.548401408654490D+03
 0.271145313990097D+03 0.469692973946660D+02 0.220587118923210D+03 0.119748645178962D+03
 0.714596372341389D+02 0.405111154103060D+02 -.533681939155965D+02 -.248428090206178D+02
 0.142227597157146D+03 0.519933085290862D+02 -.107975594934695D+03 0.765941000325301D+02
 0.281387706598514D+03 0.166403999641282D+03 -.117308443305167D+03 -.171499936190875D+03
 0.311900250616549D+03 -.305877720975340D+03 0.580651132322484D+02 -.186823117125347D+02
0.904394183627D-04 0.000000000000D+00 0.000000000000D+00 0.378706884236D-08 0.000000000000D+00  7 -2 2 23 -11 11 23 21 0 0.96691766D-02 0.29995930D+00 0.79330250D+05 0.79330250D+05 0.79330250D+05 0.11300689D+01  1  2  2  2  7  2        2 0.551886278841D-02 0.100000000000D+01
-.473566026643D-05 0.000000000000D+00 -.347311179759D-06 0.378706884236D-08 0.000000000000D+00  7 -2 2 23 -11 11 23 21 2 0.96691766D-02 0.29995930D+00 0.79330250D+05 0.79330250D+05 0.79330250D+05 0.11300689D+01  1  2  3  2  7  2        2 -.369047437276D-03 0.100000000000D+01
0.550820516689D-05 0.000000000000D+00 0.000000000000D+00 0.378706884236D-08 0.000000000000D+00  7 -2 2 23 -11 11 23 21 2 0.96691766D-02 0.29995930D+00 0.79330250D+05 0.79330250D+05 0.79330250D+05 0.11300689D+01  1  2 15  2  7  2        2 0.429251442559D-03 0.100000000000D+01
-.179099151976D-04 0.000000000000D+00 -.231236157510D-04 0.378706884236D-08 0.000000000000D+00  7 -2 2 23 -11 11 23 21 2 0.96691766D-02 0.54339075D+00 0.79330250D+05 0.79330250D+05 0.79330250D+05 0.11300689D+01  1  2  5  2  7  2        2 -.157269935377D-03 0.100000000000D+01
0.297909769471D-04 0.000000000000D+00 0.195667498525D-04 0.378706884236D-08 0.000000000000D+00  7 -2 2 23 -11 11 23 21 2 0.96691766D-02 0.29995930D+00 0.79330250D+05 0.79330250D+05 0.79330250D+05 0.11300689D+01  1  2  6  2  7  2        2 0.232159468326D-02 0.100000000000D+01
0.756000648375D-07 0.000000000000D+00 -.150480051374D-05 0.378706884236D-08 0.000000000000D+00  7 -2 21 23 -11 11 23 -2 2 0.96691766D-02 0.54339075D+00 0.79330250D+05 0.79330250D+05 0.79330250D+05 0.11300689D+01  1  2  5  4  7  2        2 0.239386511041D-07 0.100000000000D+01
  </mgrwgt>
  </event>
  <event>
  8     66 0.27870365E-05 0.25621757E+03 0.75467711E-02 0.90557647E-01
       -2 -1    0    0    0  501 0.00000000E+00 0.00000000E+00 0.36475184E+03 0.36475198E+03 0.32000000E+00 0.0000E+00 0.9000E+01
        2 -1    0    0  501    0 0.00000000E+00 0.00000000E+00 -.19166202E+04 0.19166203E+04 0.32000000E+00 0.0000E+00 0.9000E+01
       25  2    1    2    0    0 -.29453168E+03 0.48431964E+03 -.16110323E+02 0.64180446E+03 0.30056446E+03 0.0000E+00 0.0000E+00
       23  2    3    3    0    0 -.24910151E+03 0.18682126E+03 -.33497488E+02 0.32686517E+03 0.93621669E+02 0.0000E+00 0.0000E+00
       23  1    1    2    0    0 0.29453168E+03 -.48431964E+03 -.15357581E+04 0.16395678E+04 0.91188000E+02 0.0000E+00 0.9000E+01
      -13  1    4    4    0    0 -.22420646E+03 0.12126180E+03 -.29902687E+02 0.25664594E+03 0.10565837E+00 0.0000E+00 0.9000E+01
       13  1    4    4    0    0 -.24895052E+02 0.65559463E+02 -.35948009E+01 0.70219232E+02 0.10565837E+00 0.0000E+00 0.9000E+01
       23  1    3    3    0    0 -.45430176E+02 0.29749838E+03 0.17387165E+02 0.31493928E+03 0.91188000E+02 0.0000E+00 0.9000E+01
#aMCatNLO 1  0  0  2  1 0.22145130D+03 0.00000000D+00  -5  7  0 0.00000000D+00 0.00000000D+00 0.00000000D+00 0.00000000D+00 0.00000000D+00
  <mgrwgt>
 0.7037354370D-03    9    2    0
 0.836116593315075D+03 0.000000000000000D+00 0.000000000000000D+00 0.836116593315075D+03
 0.836116593315075D+03 0.000000000000000D+00 0.000000000000000D+00 -.836116593315075D+03
 0.811591382325368D+03 0.294531684038494D+03 -.484319639498636D+03 -.573629579444926D+03
 0.322383500221111D+03 -.224206710120676D+03 0.121261865939631D+03 0.197377891924392D+03
 0.924614231482378D+02 -.248947981938546D+02 0.655593918956047D+02 0.602605171547942D+02
 0.445796880935434D+03 -.454301757239636D+02 0.297498381663400D+03 0.315991170365739D+03
 0.000000000000000D+00 -.000000000000000D+00 0.000000000000000D+00 -.000000000000000D+00
 0.893396434685015D+03 0.000000000000000D+00 0.000000000000000D+00 0.893396434685015D+03
 0.108871740350564D+04 0.000000000000000D+00 0.000000000000000D+00 -.108871740350564D+04
 0.880412388164222D+03 0.396418740909782D+03 -.529728241016438D+03 -.573629579444926D+03
 0.291541124914242D+03 -.187238132221023D+03 0.104785863255151D+03 0.197377891924392D+03
 0.867231846642155D+02 -.141048740547587D+02 0.607505831942358D+02 0.602605171547942D+02
 0.428155987724371D+03 0.719647155957144D+01 0.274043955467393D+03 0.315991170365739D+03
 0.295281152723601D+03 -.202272206193572D+03 0.901478390996580D+02 -.195320968820620D+03
0.195686822262D-03 0.000000000000D+00 0.000000000000D+00 0.753000077432D-06 0.000000000000D+00  7 -2 2 23 -13 13 23 21 0 0.56115681D-01 0.29486467D+00 0.36821712D+06 0.36821712D+06 0.36821712D+06 0.10780293D+01  1  2  2  2  7  2        2 0.562193467181D-03 0.100000000000D+01
-.951326075943D-05 0.000000000000D+00 -.751488923008D-06 0.753000077432D-06 0.000000000000D+00  7 -2 2 23 -13 13 23 21 2 0.56115681D-01 0.29486467D+00 0.36821712D+06 0.36821712D+06 0.36821712D+06 0.10780293D+01  1  2  3  2  7  2        2 -.317625042043D-04 0.100000000000D+01
0.122537541768D-04 0.000000000000D+00 0.000000000000D+00 0.753000077432D-06 0.000000000000D+00  7 -2 2 23 -13 13 23 21 2 0.56115681D-01 0.29486467D+00 0.36821712D+06 0.36821712D+06 0.36821712D+06 0.10780293D+01  1  2 15  2  7  2        2 0.409123568038D-04 0.100000000000D+01
0.183845056198D-03 0.000000000000D+00 0.000000000000D+00 0.753000077432D-06 0.000000000000D+00  7 -2 2 23 -13 13 23 21 2 0.56115681D-01 0.39177268D+00 0.52938593D+06 0.52938593D+06 0.52938593D+06 0.10667619D+01  1  2 12  2  7  2        2 0.259198842727D-03 0.100000000000D+01
-.214507694079D-03 0.000000000000D+00 0.000000000000D+00 0.753000077432D-06 0.000000000000D+00  7 -2 2 23 -13 13 23 21 2 0.56115681D-01 0.29486467D+00 0.36821712D+06 0.36821712D+06 0.36821712D+06 0.10780293D+01  1  2  4  2  7  2        2 -.716189927652D-03 0.100000000000D+01
-.290892421415D-03 0.000000000000D+00 -.799805721694D-04 0.753000077432D-06 0.000000000000D+00  7 -2 2 23 -13 13 23 21 2 0.56115681D-01 0.39247083D+00 0.36821712D+06 0.36821712D+06 0.36821712D+06 0.10780293D+01  1  2  5  2  7  2        2 -.426482866445D-03 0.100000000000D+01
0.304395065892D-03 0.000000000000D+00 0.768185809583D-04 0.753000077432D-06 0.000000000000D+00  7 -2 2 23 -13 13 23 21 2 0.56115681D-01 0.29486467D+00 0.36821712D+06 0.36821712D+06 0.36821712D+06 0.10780293D+01  1  2  6  2  7  2        2 0.101630238092D-02 0.100000000000D+01
0.683295265885D-05 0.000000000000D+00 0.000000000000D+00 0.753000077432D-06 0.000000000000D+00  7 -2 21 23 -13 13 23 -2 2 0.56115681D-01 0.39177268D+00 0.52938593D+06 0.52938593D+06 0.52938593D+06 0.10667619D+01  1  2 12  4  7  2        2 0.103805833178D-05 0.100000000000D+01
-.919702588309D-05 0.000000000000D+00 -.298613325720D-05 0.753000077432D-06 0.000000000000D+00  7 -2 21 23 -13 13 23 -2 2 0.56115681D-01 0.39247083D+00 0.36821712D+06 0.36821712D+06 0.36821712D+06 0.10780293D+01  1  2  5  4  7  2        2 -.147437071140D-05 0.100000000000D+01
  </mgrwgt>
  </event>
  <event>
  9     66 0.27870365E-05 0.31213580E+03 0.75467711E-02 0.98588635E-01
       21 -1    0    0  502  501 0.00000000E+00 0.00000000E+00 0.29761235E+03 0.29761330E+03 0.75000000E+00 0.0000E+00 0.9000E+01
        2 -1    0    0  501    0 0.00000000E+00 0.00000000E+00 -.55544277E+03 0.55544286E+03 0.32000000E+00 0.0000E+00 0.9000E+01
       25  2    1    2    0    0 -.26861000E+02 0.18604984E+03 -.17742352E+03 0.39561735E+03 0.29949612E+03 0.0000E+00 0.0000E+00
       23  2    3    3    0    0 -.94484566E+02 0.19560365E+03 -.91231674E+02 0.25275900E+03 0.91519239E+02 0.0000E+00 0.0000E+00
       23  1    1    2    0    0 0.46874673E+02 -.26699635E+03 0.61782428E+02 0.29260316E+03 0.91188000E+02 0.0000E+00 0.9000E+01
      -11  1    4    4    0    0 -.70461441E+02 0.19558254E+03 -.66462375E+02 0.21825350E+03 0.51099893E-03 0.0000E+00 0.9000E+01
       11  1    4    4    0    0 -.24023125E+02 0.21111973E-01 -.24769299E+02 0.34505495E+02 0.51099893E-03 0.0000E+00 0.9000E+01
       23  1    3    3    0    0 0.67623566E+02 -.95538125E+01 -.86191849E+02 0.14285835E+03 0.91188000E+02 0.0000E+00 0.9000E+01
        2  1    1    2  502    0 -.20013673E+02 0.80946513E+02 -.14218932E+03 0.16483565E+03 0.32000000E+00 0.0000E+00 0.9000E+01
#aMCatNLO 2  0  0  1  1 0.83383962D+02 0.00000000D+00  -5  7  0 0.00000000D+00 0.00000000D+00 0.00000000D+00 0.00000000D+00 0.00000000D+00
  <mgrwgt>
 0.1262207519D-03    1    2    0
 0.336645851952292D+03 0.000000000000000D+00 0.000000000000000D+00 0.336645851952292D+03
 0.336645851952292D+03 0.000000000000000D+00 0.000000000000000D+00 -.336645851952292D+03
 0.276209437399435D+03 0.382344265617252D+02 -.232050354776365D+03 0.112548493717913D+03
 0.237285966983371D+03 -.770850335364337D+02 0.222372063972433D+03 -.302190816630897D+02
 0.317329621668943D+02 -.249487096280406D+02 0.376469418226078D+01 -.192449955441751D+02
 0.128063337354883D+03 0.637993166027491D+02 0.591359662167120D+01 -.630844165106486D+02
 0.000000000000000D+00 -.000000000000000D+00 0.000000000000000D+00 -.000000000000000D+00
 0.352634070593845D+03 0.000000000000000D+00 0.000000000000000D+00 0.352634070593845D+03
 0.468777470122935D+03 0.000000000000000D+00 0.000000000000000D+00 -.468777470122935D+03
 0.307354360278891D+03 0.468746726316853D+02 -.266996354031188D+03 0.112548493717913D+03
 0.210072697011001D+03 -.704614407881895D+02 0.195582541385902D+03 -.302190816630897D+02
 0.307811768011232D+02 -.240231252348958D+02 0.211119681419443D-01 -.192449955441751D+02
 0.130227174512265D+03 0.676235661345856D+02 -.955381254789591D+01 -.630844165106486D+02
 0.142976132113499D+03 -.200136727431856D+02 0.809465132250405D+02 -.116143399529089D+03
0.307724657634D-06 0.000000000000D+00 0.000000000000D+00 0.325778271164D-06 0.367274446484D-11  7 21 2 23 -11 11 23 2 2 0.45786573D-01 0.85452771D-01 0.12788799D+06 0.12788799D+06 0.12788799D+06 0.11130594D+01  1  2  1  3  7  1       -2 0.126220751925D-03 0.100000000000D+01
  </mgrwgt>
  </event>
  <event>
  8     66 0.27870365E-05 0.33406246E+03 0.75467711E-02 0.88295008E-01
       -2 -1    0    0    0  501 0.00000000E+00 0.00000000E+00 0.19152180E+03 0.19152207E+03 0.32000000E+00 0.0000E+00 0.9000E+01
        2 -1    0    0  501    0 0.00000000E+00 0.00000000E+00 -.11146491E+04 0.11146491E+04 0.32000000E+00 0.0000E+00 0.9000E+01
       25  2    1    2    0    0 0.47836907E+02 -.26186742E+03 -.69829449E+02 0.40767504E+03 0.30076548E+03 0.0000E+00 0.0000E+00
       23  2    3    3    0    0 -.84247080E+02 -.17743639E+03 -.65098415E+02 0.22625726E+03 0.91505738E+02 0.0000E+00 0.0000E+00
       23  1    1    2    0    0 -.47836907E+02 0.26186742E+03 -.85329783E+03 0.89849616E+03 0.91188000E+02 0.0000E+00 0.9000E+01
      -11  1    4    4    0    0 -.23200923E+01 -.71139806E+02 -.58083173E+02 0.91868982E+02 0.51099893E-03 0.0000E+00 0.9000E+01
       11  1    4    4    0    0 -.81926987E+02 -.10629658E+03 -.70152413E+01 0.13438827E+03 0.51099893E-03 0.0000E+00 0.9000E+01
       23  1    3    3    0    0 0.13208399E+03 -.84431030E+02 -.47310347E+01 0.18141778E+03 0.91188000E+02 0.0000E+00 0.9000E+01
#aMCatNLO 1  0  0  1  1 0.79964562D+03 0.00000000D+00  -5  7  0 0.00000000D+00 0.00000000D+00 0.00000000D+00 0.00000000D+00 0.00000000D+00
  <mgrwgt>
 0.5475268584D-03    5    2    0
 0.462038751888922D+03 0.000000000000000D+00 0.000000000000000D+00 0.462038751888922D+03
 0.462038751888922D+03 0.000000000000000D+00 0.000000000000000D+00 -.462038751888922D+03
 0.417591927866795D+03 -.478369066970289D+02 0.261867418254417D+03 -.308552835815736D+03
 0.718321312975565D+02 -.232009231860405D+01 -.711398058068638D+02 0.967472418956993D+01
 0.182948001520484D+03 -.819269872601420D+02 -.106296581956274D+03 0.124334133218633D+03
 0.251705443093009D+03 0.132083986275775D+03 -.844310304912790D+02 0.174543978407533D+03
 0.000000000000000D+00 0.000000000000000D+00 0.000000000000000D+00 0.000000000000000D+00
 0.238073477364721D+04 0.000000000000000D+00 0.000000000000000D+00 0.238073477364721D+04
 0.701343641749826D+03 0.000000000000000D+00 0.000000000000000D+00 -.701343641749826D+03
 0.472441537284987D+03 -.333226505788777D+03 0.929569693894525D+02 -.308552835815736D+03
 0.128075629500676D+03 -.664205985841827D+02 -.109078277707200D+03 0.967472418956993D+01
 0.349796290261448D+03 -.252751664986316D+03 -.207400732506151D+03 0.124334133218633D+03
 0.271714506309986D+03 -.357508372061368D+02 -.183765608414660D+03 0.174543978407533D+03
 0.186005045203994D+04 0.688149606565412D+03 0.407287649238558D+03 0.167939113189739D+04
0.191695676703D-04 0.000000000000D+00 0.000000000000D+00 0.474364080701D-06 0.000000000000D+00  7 -2 2 23 -11 11 23 21 0 0.29464917D-01 0.17148450D+00 0.11159772D+06 0.11159772D+06 0.11159772D+06 0.11178322D+01  1  2  2  1  7  1       -2 0.539604538687D-03 0.100000000000D+01
-.928777924210D-06 0.000000000000D+00 -.736161873169D-07 0.474364080701D-06 0.000000000000D+00  7 -2 2 23 -11 11 23 21 2 0.29464917D-01 0.17148450D+00 0.11159772D+06 0.11159772D+06 0.11159772D+06 0.11178322D+01  1  2  3  1  7  1       -2 -.326684411298D-04 0.100000000000D+01
0.115302702096D-05 0.000000000000D+00 0.000000000000D+00 0.474364080701D-06 0.000000000000D+00  7 -2 2 23 -11 11 23 21 2 0.29464917D-01 0.17148450D+00 0.11159772D+06 0.11159772D+06 0.11159772D+06 0.11178322D+01  1  2 15  1  7  1       -2 0.405560838316D-04 0.100000000000D+01
0.241845308753D-05 0.000000000000D+00 -.988649572920D-05 0.474364080701D-06 0.000000000000D+00  7 -2 2 23 -11 11 23 21 2 0.19763281D+00 0.17148450D+00 0.11159772D+06 0.11159772D+06 0.11159772D+06 0.11178322D+01  1  2  5  1  7  1       -2 0.114368971542D-05 0.100000000000D+01
-.284887000748D-06 0.000000000000D+00 -.230308526403D-05 0.474364080701D-06 0.000000000000D+00  7 21 2 23 -11 11 23 2 2 0.19763281D+00 0.17148450D+00 0.11159772D+06 0.11159772D+06 0.11159772D+06 0.11178322D+01  1  2  5  3  7  1       -2 -.110901267054D-05 0.100000000000D+01
  </mgrwgt>
  </event>
  <event>
  8     66 0.27870365E-05 0.27598753E+03 0.75467711E-02 0.97968298E-01
       -2 -1    0    0    0  501 0.00000000E+00 0.00000000E+00 0.26602419E+03 0.26602438E+03 0.32000000E+00 0.0000E+00 0.9000E+01
        2 -1    0    0  501    0 0.00000000E+00 0.00000000E+00 -.33362785E+03 0.33362800E+03 0.32000000E+00 0.0000E+00 0.9000E+01
       25  2    1    2    0    0 0.14524834E+03 0.13302592E+03 -.11632101E+03 0.37720777E+03 0.29993691E+03 0.0000E+00 0.0000E+00
       23  2    3    3    0    0 0.19494434E+03 0.51959683E+02 -.41889375E+02 0.22589106E+03 0.92568586E+02 0.0000E+00 0.0000E+00
       23  1    1    2    0    0 -.14524834E+03 -.13302592E+03 0.48717352E+02 0.22244462E+03 0.91188000E+02 0.0000E+00 0.9000E+01
      -13  1    4    4    0    0 0.15850706E+03 0.32231997E+02 -.69551802E+02 0.17607060E+03 0.10565837E+00 0.0000E+00 0.9000E+01
       13  1    4    4    0    0 0.36437280E+02 0.19727687E+02 0.27662427E+02 0.49820458E+02 0.10565837E+00 0.0000E+00 0.9000E+01
       23  1    3    3    0    0 -.49696007E+02 0.81066240E+02 -.74431637E+02 0.15131672E+03 0.91188000E+02 0.0000E+00 0.9000E+01
#aMCatNLO 1  0  0  1  2 0.17623066D+03 0.00000000D+00  -5  7  0 0.00000000D+00 0.00000000D+00 0.00000000D+00 0.00000000D+00 0.00000000D+00
  <mgrwgt>
 0.4010580535D-03    7    2    0
 0.297914724351509D+03 0.000000000000000D+00 0.000000000000000D+00 0.297914724351509D+03
 0.297914724351509D+03 0.000000000000000D+00 0.000000000000000D+00 -.297914724351509D+03
 0.229399399196814D+03 -.145248338484723D+03 -.133025923580463D+03 0.742688146589890D+02
 0.169308999657087D+03 0.158507223433091D+03 0.322320128293497D+02 -.500209439473521D+02
 0.532785811066304D+02 0.364371218826234D+02 0.197276699892154D+02 0.334927214547169D+02
 0.143842468742486D+03 -.496960068309916D+02 0.810662407618982D+02 -.577405921663537D+02
 0.000000000000000D+00 0.000000000000000D+00 0.000000000000000D+00 0.000000000000000D+00
 0.409620799748099D+03 0.000000000000000D+00 0.000000000000000D+00 0.409620799748099D+03
 0.389141126006800D+03 0.000000000000000D+00 0.000000000000000D+00 -.389141126006800D+03
 0.285467118325355D+03 -.158267724346624D+03 -.206426003449837D+03 0.742688146589890D+02
 0.158984679646411D+03 0.150205689071438D+03 -.145699862547136D+02 -.500209439473521D+02
 0.479327188182915D+02 0.338778003449778D+02 0.529884767246308D+01 0.334927214547169D+02
 0.128960778306951D+03 -.565943593492501D+02 0.421750341275668D+02 -.577405921663537D+02
 0.177416630657889D+03 0.307785942794585D+02 0.173522107904521D+03 0.204796737412983D+02
0.550335972563D-05 0.000000000000D+00 0.000000000000D+00 0.163557980744D-06 0.000000000000D+00  7 -2 2 23 -13 13 23 21 0 0.40926825D-01 0.51327388D-01 0.76169114D+05 0.76169114D+05 0.76169114D+05 0.11315545D+01  1  2  2  1  7  1       -2 0.365480612665D-03 0.100000000000D+01
-.303569454548D-06 0.000000000000D+00 -.211343504143D-07 0.163557980744D-06 0.000000000000D+00  7 -2 2 23 -13 13 23 21 2 0.40926825D-01 0.51327388D-01 0.76169114D+05 0.76169114D+05 0.76169114D+05 0.11315545D+01  1  2  3  1  7  1       -2 -.258134156724D-04 0.100000000000D+01
0.356435812050D-06 0.000000000000D+00 0.000000000000D+00 0.163557980744D-06 0.000000000000D+00  7 -2 2 23 -13 13 23 21 2 0.40926825D-01 0.51327388D-01 0.76169114D+05 0.76169114D+05 0.76169114D+05 0.11315545D+01  1  2 15  1  7  1       -2 0.303087996475D-04 0.100000000000D+01
-.186934705874D-05 0.000000000000D+00 0.000000000000D+00 0.163557980744D-06 0.000000000000D+00  7 -2 2 23 -13 13 23 21 2 0.40926825D-01 0.51327388D-01 0.76169114D+05 0.76169114D+05 0.76169114D+05 0.11315545D+01  1  2  4  1  7  1       -2 -.158956153000D-03 0.100000000000D+01
-.239950212231D-05 0.000000000000D+00 -.189250648654D-05 0.163557980744D-06 0.000000000000D+00  7 -2 2 23 -13 13 23 21 2 0.71301620D-01 0.51327388D-01 0.76169114D+05 0.76169114D+05 0.76169114D+05 0.11315545D+01  1  2  5  1  7  1       -2 -.673641637250D-04 0.100000000000D+01
0.320221232137D-05 0.000000000000D+00 0.163416961613D-05 0.163557980744D-06 0.000000000000D+00  7 -2 2 23 -13 13 23 21 2 0.40926825D-01 0.51327388D-01 0.76169114D+05 0.76169114D+05 0.76169114D+05 0.11315545D+01  1  2  6  1  7  1       -2 0.272293659604D-03 0.100000000000D+01
-.519694714746D-07 0.000000000000D+00 -.116193740230D-06 0.163557980744D-06 0.000000000000D+00  7 21 2 23 -13 13 23 2 2 0.71301620D-01 0.51327388D-01 0.76169114D+05 0.76169114D+05 0.76169114D+05 0.11315545D+01  1  2  5  3  7  1       -2 -.148912859829D-04 0.100000000000D+01
  </mgrwgt>
  </event>
  <event>
  8     66 0.27870365E-05 0.19215216E+03 0.75467711E-02 0.10690619E+00
       -2 -1    0    0    0  501 0.00000000E+00 0.00000000E+00 0.47560077E+02 0.47561153E+02 0.32000000E+00 0.0000E+00 0.9000E+01
        2 -1    0    0  501    0 0.00000000E+00 0.00000000E+00 -.11692206E+04 0.11692206E+04 0.32000000E+00 0.0000E+00 0.9000E+01
       25  2    1    2    0    0 0.38232214E+02 -.18216508E+02 -.48590481E+03 0.57312496E+03 0.30095713E+03 0.0000E+00 0.0000E+00
       23  2    3    3    0    0 -.25770816E+02 -.11028767E+03 -.33009048E+03 0.36060004E+03 0.90802844E+02 0.0000E+00 0.0000E+00
       23  1    1    2    0    0 -.38232214E+02 0.18216508E+02 -.63575570E+03 0.64365682E+03 0.91188000E+02 0.0000E+00 0.9000E+01
      -11  1    4    4    0    0 -.29583927E+02 -.12271636E+03 -.32044595E+03 0.34441272E+03 0.51099893E-03 0.0000E+00 0.9000E+01
       11  1    4    4    0    0 0.38131113E+01 0.12428695E+02 -.96445321E+01 0.16187319E+02 0.51099893E-03 0.0000E+00 0.9000E+01
       23  1    3    3    0    0 0.64003030E+02 0.92071161E+02 -.15581433E+03 0.21252492E+03 0.91188000E+02 0.0000E+00 0.9000E+01
#aMCatNLO 1  0  0  2  2 0.13443435D+04 0.00000000D+00  -5  7  0 0.00000000D+00 0.00000000D+00 0.00000000D+00 0.00000000D+00 0.00000000D+00
  <mgrwgt>
 0.4102222803D-05    1    2    0
 0.235815398755555D+03 0.000000000000000D+00 0.000000000000000D+00 0.235815398755555D+03
 0.235815398755555D+03 0.000000000000000D+00 0.000000000000000D+00 -.235815398755555D+03
 0.148607415055409D+03 -.382322141061006D+02 0.182165077583774D+02 -.109432029658070D+03
 0.126462385626091D+03 -.295839272768710D+02 -.122716363798687D+03 -.763022156605832D+01
 0.188251990375806D+02 0.381311128367391D+01 0.124286952806516D+02 0.136152794596201D+02
 0.177735797792030D+03 0.640030300992977D+02 0.920711607596584D+02 0.103446971764509D+03
 0.000000000000000D+00 0.000000000000000D+00 0.000000000000000D+00 -.000000000000000D+00
 0.366725652486469D+03 0.000000000000000D+00 0.000000000000000D+00 0.366725652486469D+03
 0.548421973374958D+03 0.000000000000000D+00 0.000000000000000D+00 -.548421973374958D+03
 0.186386046846741D+03 -.109229372653165D+03 -.501804957116467D+02 -.109432029658070D+03
 0.219034594488918D+03 -.102807158964665D+03 -.193257914113217D+03 -.763022156605832D+01
 0.150690686010545D+02 -.337030262450473D+01 0.550836218480507D+01 0.136152794596201D+02
 0.140576725814417D+03 -.345883789561969D+01 0.270799735942751D+02 0.103446971764509D+03
 0.354081190110296D+03 0.218865672137955D+03 0.210850074045784D+03 -.181696320888488D+03
0.124574480730D-07 0.000000000000D+00 0.000000000000D+00 0.810437089868D-07 0.000000000000D+00  7 -2 2 23 -11 11 23 21 2 0.73170210D-02 0.17988018D+00 0.36922454D+05 0.36922454D+05 0.36922454D+05 0.11590612D+01  1  2 14  2  7  2        2 0.410222280261D-05 0.100000000000D+01
  </mgrwgt>
  </event>
  <event>
  8     66 0.27870365E-05 0.16397380E+03 0.75467711E-02 0.10221030E+00
       -2 -1    0    0    0  501 0.00000000E+00 0.00000000E+00 0.27236196E+02 0.27238075E+02 0.32000000E+00 0.0000E+00 0.9000E+01
        2 -1    0    0  501    0 0.00000000E+00 0.00000000E+00 -.30989451E+04 0.30989451E+04 0.32000000E+00 0.0000E+00 0.9000E+01
       25  2    1    2    0    0 0.19043402E+03 0.59431713E+02 -.20102322E+04 0.20422804E+04 0.30013070E+03 0.0000E+00 0.0000E+00
       23  2    3    3    0    0 0.31429895E+02 -.34074595E+02 -.27466543E+03 0.29455816E+03 0.95783566E+02 0.0000E+00 0.0000E+00
       23  1    1    2    0    0 -.19043402E+03 -.59431713E+02 -.10614767E+04 0.10839028E+04 0.91188000E+02 0.0000E+00 0.9000E+01
      -13  1    4    4    0    0 0.52802819E+02 0.12998065E+02 -.15244971E+03 0.16185800E+03 0.10565837E+00 0.0000E+00 0.9000E+01
       13  1    4    4    0    0 -.21372924E+02 -.47072660E+02 -.12221572E+03 0.13270016E+03 0.10565837E+00 0.0000E+00 0.9000E+01
       23  1    3    3    0    0 0.15900412E+03 0.93506308E+02 -.17355668E+04 0.17477222E+04 0.91188000E+02 0.0000E+00 0.9000E+01
#aMCatNLO 1  0  0  2  1 0.73776581D+01 0.00000000D+00  -5  7  0 0.00000000D+00 0.00000000D+00 0.00000000D+00 0.00000000D+00 0.00000000D+00
  <mgrwgt>
 0.1036807130D-02   11    2    0
 0.290527863352454D+03 0.000000000000000D+00 0.000000000000000D+00 0.290527863352454D+03
 0.290527863352454D+03 0.000000000000000D+00 0.000000000000000D+00 -.290527863352454D+03
 0.220170422871159D+03 -.190434020868623D+03 -.594317128256655D+02 0.190399309263841D+02
 0.649105069136334D+02 0.528028919807896D+02 0.129981264125102D+02 0.354440011287428D+02
 0.678659056294657D+02 -.213730080833793D+02 -.470727293022654D+02 0.439674178046767D+02
 0.228108891290650D+03 0.159004136971213D+03 0.935063157154206D+02 -.984513498598036D+02
 0.000000000000000D+00 -.000000000000000D+00 0.000000000000000D+00 -.000000000000000D+00
 0.293715219856199D+03 0.000000000000000D+00 0.000000000000000D+00 0.293715219856199D+03
 0.294852078084332D+03 0.000000000000000D+00 0.000000000000000D+00 -.294852078084332D+03
 0.218330332173872D+03 -.187921274120364D+03 -.606296822229091D+02 0.190399309263841D+02
 0.654498937997354D+02 0.535498979305528D+02 0.126419861576297D+02 0.354440011287428D+02
 0.678836305292206D+02 -.205951206986121D+02 -.474435924949443D+02 0.439674178046767D+02
 0.229438705335454D+03 0.161626028090826D+03 0.922563109839940D+02 -.984513498598036D+02
 0.746473610224847D+01 -.665953120240275D+01 0.317497757622978D+01 -.113685822813313D+01
0.482452731954D-05 0.000000000000D+00 0.000000000000D+00 0.212916642473D-07 0.000000000000D+00  7 -2 2 23 -13 13 23 21 0 0.41903298D-02 0.47676093D+00 0.70541166D+05 0.70541166D+05 0.70541166D+05 0.11343754D+01  1  2  2  2  7  2        2 0.227149507278D-03 0.100000000000D+01
-.265405817973D-06 0.000000000000D+00 -.185274552343D-07 0.212916642473D-07 0.000000000000D+00  7 -2 2 23 -13 13 23 21 2 0.41903298D-02 0.47676093D+00 0.70541166D+05 0.70541166D+05 0.70541166D+05 0.11343754D+01  1  2  3  2  7  2        2 -.160798159148D-04 0.100000000000D+01
0.301437062234D-06 0.000000000000D+00 0.000000000000D+00 0.212916642473D-07 0.000000000000D+00  7 -2 2 23 -13 13 23 21 2 0.41903298D-02 0.47676093D+00 0.70541166D+05 0.70541166D+05 0.70541166D+05 0.11343754D+01  1  2 15  2  7  2        2 0.182627966020D-04 0.100000000000D+01
0.289151593871D-05 0.000000000000D+00 0.000000000000D+00 0.212916642473D-07 0.000000000000D+00  7 -2 2 23 -13 13 23 21 2 0.41903298D-02 0.48643853D+00 0.72592937D+05 0.72592937D+05 0.72592937D+05 0.11333192D+01  1  2 12  2  7  2        2 0.159298095198D-03 0.100000000000D+01
-.293630593774D-05 0.000000000000D+00 0.000000000000D+00 0.212916642473D-07 0.000000000000D+00  7 -2 2 23 -13 13 23 21 2 0.41903298D-02 0.47676093D+00 0.70541166D+05 0.70541166D+05 0.70541166D+05 0.11343754D+01  1  2  4  2  7  2        2 -.177898356973D-03 0.100000000000D+01
-.159571723280D-03 0.000000000000D+00 -.192245344991D-04 0.212916642473D-07 0.000000000000D+00  7 -2 2 23 -13 13 23 21 2 0.41903298D-02 0.48559061D+00 0.70541166D+05 0.70541166D+05 0.70541166D+05 0.11343754D+01  1  2  5  2  7  2        2 -.888787948077D-02 0.100000000000D+01
0.159900819761D-03 0.000000000000D+00 0.192212980339D-04 0.212916642473D-07 0.000000000000D+00  7 -2 2 23 -13 13 23 21 2 0.41903298D-02 0.47676093D+00 0.70541166D+05 0.70541166D+05 0.70541166D+05 0.11343754D+01  1  2  6  2  7  2        2 0.968771433133D-02 0.100000000000D+01
0.498121661787D-06 0.000000000000D+00 0.000000000000D+00 0.212916642473D-07 0.268024072832D-08  7 -2 2 23 -13 13 23 21 2 0.42363015D-02 0.48385704D+00 0.72592937D+05 0.72592937D+05 0.72592937D+05 0.11333192D+01  1  2 11  2  7  2        2 0.276783622677D-04 0.100000000000D+01
0.102184747854D-06 0.000000000000D+00 0.000000000000D+00 0.212916642473D-07 0.000000000000D+00  7 -2 21 23 -13 13 23 -2 2 0.41903298D-02 0.48643853D+00 0.72592937D+05 0.72592937D+05 0.72592937D+05 0.11333192D+01  1  2 12  4  7  2        2 0.335517977844D-06 0.100000000000D+01
-.531869234475D-06 0.000000000000D+00 -.643631970537D-07 0.212916642473D-07 0.000000000000D+00  7 -2 21 23 -13 13 23 -2 2 0.41903298D-02 0.48559061D+00 0.70541166D+05 0.70541166D+05 0.70541166D+05 0.11343754D+01  1  2  5  4  7  2        2 -.178134840821D-05 0.100000000000D+01
0.222357169463D-08 0.000000000000D+00 0.000000000000D+00 0.212916642473D-07 0.731921212012D-11  7 -2 21 23 -13 13 23 -2 2 0.42363015D-02 0.48385704D+00 0.72592937D+05 0.72592937D+05 0.72592937D+05 0.11333192D+01  1  2 11  4  7  2        2 0.752152212981D-08 0.100000000000D+01
  </mgrwgt>
  </event>
  <event>
  8     66 0.27870365E-05 0.20054381E+03 0.75467711E-02 0.10030841E+00
       -2 -1    0    0    0  501 0.00000000E+00 0.00000000E+00 0.15153447E+03 0.15153481E+03 0.32000000E+00 0.0000E+00 0.9000E+01
        2 -1    0    0  501    0 0.00000000E+00 0.00000000E+00 -.16809000E+04 0.16809001E+04 0.32000000E+00 0.0000E+00 0.9000E+01
       25  2    1    2    0    0 -.13068463E+03 0.20394591E+03 -.12613504E+03 0.40553490E+03 0.29979342E+03 0.0000E+00 0.0000E+00
       23  2    3    3    0    0 -.18898433E+03 0.10921929E+03 -.46177657E+02 0.24097360E+03 0.91060250E+02 0.0000E+00 0.0000E+00
       23  1    1    2    0    0 0.13068463E+03 -.20394591E+03 -.14032305E+04 0.14269000E+04 0.91188000E+02 0.0000E+00 0.9000E+01
      -11  1    4    4    0    0 -.18564830E+03 0.10159576E+03 -.64174873E+02 0.22114566E+03 0.51099893E-03 0.0000E+00 0.9000E+01
       11  1    4    4    0    0 -.33360309E+01 0.76235291E+01 0.17997216E+02 0.19827937E+02 0.51099893E-03 0.0000E+00 0.9000E+01
       23  1    3    3    0    0 0.58299695E+02 0.94726618E+02 -.79957383E+02 0.16456130E+03 0.91188000E+02 0.0000E+00 0.9000E+01
#aMCatNLO 1  0  0  2  1 0.10645313D+01 0.00000000D+00  -5  7  0 0.00000000D+00 0.00000000D+00 0.00000000D+00 0.00000000D+00 0.00000000D+00
  <mgrwgt>
 0.6318741358D-03   11    2    0
 0.504692618400397D+03 0.000000000000000D+00 0.000000000000000D+00 0.504692618400397D+03
 0.504692618400397D+03 0.000000000000000D+00 0.000000000000000D+00 -.504692618400397D+03
 0.464291371098615D+03 0.130684631693196D+03 -.203945910228895D+03 -.385459230882792D+03
 0.304232882883672D+03 -.185648295872940D+03 0.101595763259509D+03 0.218564997551989D+03
 0.632639779866120D+02 -.333603093963065D+01 0.762352909702600D+01 0.627143014978813D+02
 0.177597004831895D+03 0.582996951193744D+02 0.947266178723601D+02 0.104179931832921D+03
 0.000000000000000D+00 0.000000000000000D+00 -.000000000000000D+00 -.000000000000000D+00
 0.504736935426163D+03 0.000000000000000D+00 0.000000000000000D+00 0.504736935426163D+03
 0.511126372745779D+03 0.000000000000000D+00 0.000000000000000D+00 -.511126372745779D+03
 0.464052501686809D+03 0.130292402150969D+03 -.203652999601682D+03 -.385459230882792D+03
 0.304454037545012D+03 -.185905468887335D+03 0.101787815873702D+03 0.218564997551989D+03
 0.632716428928944D+02 -.338949281955249D+01 0.766345355730741D+01 0.627143014978813D+02
 0.177607616021005D+03 0.581496195386350D+02 0.948386918692192D+02 0.104179931832921D+03
 0.647751002622139D+01 0.852940017283923D+00 -.636961698546086D+00 -.638943731961584D+01
0.118419345020D-04 0.000000000000D+00 0.000000000000D+00 0.222327134246D-05 0.000000000000D+00  7 -2 2 23 -11 11 23 21 0 0.23313024D-01 0.25860003D+00 0.96908061D+05 0.96908061D+05 0.96908061D+05 0.11228431D+01  1  2  2  2  7  2        2 0.244185241678D-03 0.100000000000D+01
-.471131831749D-06 0.000000000000D+00 -.454761465408D-07 0.222327134246D-05 0.000000000000D+00  7 -2 2 23 -11 11 23 21 2 0.23313024D-01 0.25860003D+00 0.96908061D+05 0.96908061D+05 0.96908061D+05 0.11228431D+01  1  2  3  2  7  2        2 -.122483432583D-04 0.100000000000D+01
0.723076800221D-06 0.000000000000D+00 0.000000000000D+00 0.222327134246D-05 0.000000000000D+00  7 -2 2 23 -11 11 23 21 2 0.23313024D-01 0.25860003D+00 0.96908061D+05 0.96908061D+05 0.96908061D+05 0.11228431D+01  1  2 15  2  7  2        2 0.187983325567D-04 0.100000000000D+01
0.230761798810D-08 0.000000000000D+00 0.000000000000D+00 0.222327134246D-05 0.000000000000D+00  7 -2 2 23 -11 11 23 21 2 0.23313024D-01 0.26190791D+00 0.97227333D+05 0.97227333D+05 0.97227333D+05 0.11227255D+01  1  2 12  2  7  2        2 0.584104479666D-07 0.100000000000D+01
-.704080208354D-02 0.000000000000D+00 0.000000000000D+00 0.222327134246D-05 0.000000000000D+00  7 -2 2 23 -11 11 23 21 2 0.23313024D-01 0.25860003D+00 0.96908061D+05 0.96908061D+05 0.96908061D+05 0.11228431D+01  1  2  4  2  7  2        2 -.183044648911D+00 0.100000000000D+01
-.767827178052D-02 0.000000000000D+00 -.963326768063D-04 0.222327134246D-05 0.000000000000D+00  7 -2 2 23 -11 11 23 21 2 0.23313024D-01 0.26190512D+00 0.96908061D+05 0.96908061D+05 0.96908061D+05 0.11228431D+01  1  2  5  2  7  2        2 -.194418055346D+00 0.100000000000D+01
0.767888370183D-02 0.000000000000D+00 0.963249089460D-04 0.222327134246D-05 0.000000000000D+00  7 -2 2 23 -11 11 23 21 2 0.23313024D-01 0.25860003D+00 0.96908061D+05 0.96908061D+05 0.96908061D+05 0.11228431D+01  1  2  6  2  7  2        2 0.199633302364D+00 0.100000000000D+01
0.704140688596D-02 0.000000000000D+00 0.000000000000D+00 0.222327134246D-05 0.131904306095D-04  7 -2 2 23 -11 11 23 21 2 0.23315071D-01 0.26189663D+00 0.97227333D+05 0.97227333D+05 0.97227333D+05 0.11227255D+01  1  2 11  2  7  2        2 0.178221803459D+00 0.100000000000D+01
0.261569395281D-09 0.000000000000D+00 0.000000000000D+00 0.222327134246D-05 0.000000000000D+00  7 -2 21 23 -11 11 23 -2 2 0.23313024D-01 0.26190791D+00 0.97227333D+05 0.97227333D+05 0.97227333D+05 0.11227255D+01  1  2 12  4  7  2        2 0.193467169177D-08 0.100000000000D+01
-.179345769389D-04 0.000000000000D+00 -.225078544208D-06 0.222327134246D-05 0.000000000000D+00  7 -2 21 23 -11 11 23 -2 2 0.23313024D-01 0.26190512D+00 0.96908061D+05 0.96908061D+05 0.96908061D+05 0.11228431D+01  1  2  5  4  7  2        2 -.132723044965D-03 0.100000000000D+01
0.164129904564D-04 0.000000000000D+00 0.000000000000D+00 0.222327134246D-05 0.307281698838D-07  7 -2 21 23 -11 11 23 -2 2 0.23315071D-01 0.26189663D+00 0.97227333D+05 0.97227333D+05 0.97227333D+05 0.11227255D+01  1  2 11  4  7  2        2 0.121400038131D-03 0.100000000000D+01
  </mgrwgt>
  </event>
  <event>
  8     66 0.27870365E-05 0.51851443E+03 0.75467711E-02 0.85817610E-01
       -2 -1    0    0    0  501 0.00000000E+00 0.00000000E+00 0.11749458E+04 0.11749458E+04 0.32000000E+00 0.0000E+00 0.9000E+01
        2 -1    0    0  501    0 0.00000000E+00 0.00000000E+00 -.25955965E+03 0.25955985E+03 0.32000000E+00 0.0000E+00 0.9000E+01
       25  2    1    2    0    0 -.36929249E+03 0.29171916E+03 0.73409811E+03 0.92200433E+03 0.29952453E+03 0.0000E+00 0.0000E+00
       23  2    3    3    0    0 -.13685276E+03 0.25803407E+03 0.40510376E+03 0.50761870E+03 0.90870438E+02 0.0000E+00 0.0000E+00
       23  1    1    2    0    0 0.36929249E+03 -.29171916E+03 0.18128800E+03 0.51250132E+03 0.91188000E+02 0.0000E+00 0.9000E+01
      -13  1    4    4    0    0 -.87127128E+02 0.71632581E+02 0.15780327E+03 0.19396971E+03 0.10565837E+00 0.0000E+00 0.9000E+01
       13  1    4    4    0    0 -.49725632E+02 0.18640149E+03 0.24730048E+03 0.31364900E+03 0.10565837E+00 0.0000E+00 0.9000E+01
       23  1    3    3    0    0 -.23243973E+03 0.33685095E+02 0.32899435E+03 0.41438563E+03 0.91188000E+02 0.0000E+00 0.9000E+01
#aMCatNLO 1  0  0  2  1 0.95244291D+03 0.00000000D+00  -5  7  0 0.00000000D+00 0.00000000D+00 0.00000000D+00 0.00000000D+00 0.00000000D+00
  <mgrwgt>
 0.6413030936D-03    3    2    0
 0.552239699221504D+03 0.000000000000000D+00 0.000000000000000D+00 0.552239699221504D+03
 0.552239699221504D+03 0.000000000000000D+00 0.000000000000000D+00 -.552239699221504D+03
 0.515389899261041D+03 0.369292491444744D+03 -.291719162131645D+03 -.189299981838484D+03
 0.121142681543613D+03 -.871271783900277D+02 0.716324261898253D+02 0.441950177681699D+02
 0.202408439856929D+03 -.497255818075733D+02 0.186401640922184D+03 0.612451736933736D+02
 0.265538377781424D+03 -.232439731247143D+03 0.336850950196359D+02 0.838597903769403D+02
 0.000000000000000D+00 0.000000000000000D+00 0.000000000000000D+00 0.000000000000000D+00
 0.122327269655996D+04 0.000000000000000D+00 0.000000000000000D+00 0.122327269655996D+04
 0.118824550175776D+04 0.000000000000000D+00 0.000000000000000D+00 -.118824550175776D+04
 0.657484965257315D+03 0.801020895283266D+02 -.617835253384394D+03 -.189299981838484D+03
 0.163597367371540D+03 -.157334232593793D+03 -.753911596225149D+01 0.441950177681699D+02
 0.175457644679601D+03 -.142894297553371D+03 0.813365446924701D+02 0.612451736933736D+02
 0.461891450439804D+03 -.411798783737090D+03 -.168575674152515D+03 0.838597903769403D+02
 0.953086770569455D+03 0.631925224355928D+03 0.712613498806691D+03 0.350271948021945D+02
0.235602657245D-03 0.000000000000D+00 0.000000000000D+00 0.103447403277D-05 0.000000000000D+00  7 -2 2 23 -13 13 23 21 0 0.18076091D+00 0.39932273D-01 0.26885721D+06 0.26885721D+06 0.26885721D+06 0.10880912D+01  1  2  2  2  7  2        2 0.635686064821D-03 0.100000000000D+01
-.130258436745D-04 0.000000000000D+00 -.904776239426D-06 0.103447403277D-05 0.000000000000D+00  7 -2 2 23 -13 13 23 21 2 0.18076091D+00 0.39932273D-01 0.26885721D+06 0.26885721D+06 0.26885721D+06 0.10880912D+01  1  2  3  2  7  2        2 -.416101161455D-04 0.100000000000D+01
0.147842270915D-04 0.000000000000D+00 0.000000000000D+00 0.103447403277D-05 0.000000000000D+00  7 -2 2 23 -13 13 23 21 2 0.18076091D+00 0.39932273D-01 0.26885721D+06 0.26885721D+06 0.26885721D+06 0.10880912D+01  1  2 15  2  7  2        2 0.472271448798D-04 0.100000000000D+01
  </mgrwgt>
  </event>
  <event>
  8     66 0.27870365E-05 0.13669496E+03 0.75467711E-02 0.97082544E-01
       -2 -1    0    0    0  501 0.00000000E+00 0.00000000E+00 0.42304999E+03 0.42305011E+03 0.32000000E+00 0.0000E+00 0.9000E+01
        2 -1    0    0  501    0 0.00000000E+00 0.00000000E+00 -.46138019E+03 0.46138030E+03 0.32000000E+00 0.0000E+00 0.9000E+01
       25  2    1    2    0    0 -.43415084E+02 -.31789617E+03 -.23496458E+03 0.49723128E+03 0.29847572E+03 0.0000E+00 0.0000E+00
       23  2    3    3    0    0 -.85139112E+02 -.23340884E+02 -.55041871E+02 0.13779959E+03 0.90364014E+02 0.0000E+00 0.0000E+00
       23  1    1    2    0    0 0.43415084E+02 0.31789617E+03 0.19663437E+03 0.38719913E+03 0.91188000E+02 0.0000E+00 0.9000E+01
      -11  1    4    4    0    0 -.99983861E+02 -.60986040E+01 -.31371159E+02 0.10496721E+03 0.51099893E-03 0.0000E+00 0.9000E+01
       11  1    4    4    0    0 0.14844749E+02 -.17242280E+02 -.23670712E+02 0.32832384E+02 0.51099893E-03 0.0000E+00 0.9000E+01
       23  1    3    3    0    0 0.41724028E+02 -.29455528E+03 -.17992271E+03 0.35943169E+03 0.91188000E+02 0.0000E+00 0.9000E+01
#aMCatNLO 1  0  0  2  1 0.41089782D+02 0.00000000D+00  -5  7  0 0.00000000D+00 0.00000000D+00 0.00000000D+00 0.00000000D+00 0.00000000D+00
  <mgrwgt>
 0.8784360030D-03    6    2    0
 0.441799716510081D+03 0.000000000000000D+00 0.000000000000000D+00 0.441799716510081D+03
 0.441799716510081D+03 0.000000000000000D+00 0.000000000000000D+00 -.441799716510081D+03
 0.396093200422572D+03 0.434150841043581D+02 0.317896165011897D+03 0.213615848709632D+03
 0.103705057374332D+03 -.999838610089145D+02 -.609860396582403D+01 -.268472250415490D+02
 0.318364348044675D+02 0.148447493537587D+02 -.172422801492156D+02 -.222687173617871D+02
 0.351964740418790D+03 0.417240275507977D+02 -.294555280896857D+03 -.164499906306296D+03
 0.000000000000000D+00 -.000000000000000D+00 0.000000000000000D+00 0.000000000000000D+00
 0.463603991968764D+03 0.000000000000000D+00 0.000000000000000D+00 0.463603991968764D+03
 0.462068770808547D+03 0.000000000000000D+00 0.000000000000000D+00 -.462068770808547D+03
 0.387059991002738D+03 0.557965379803955D+02 0.304557385102555D+03 0.213615848709632D+03
 0.100861837638349D+03 -.967497101392053D+02 -.958281729622689D+01 -.268472250415490D+02
 0.329281399517942D+02 0.158686608999614D+02 -.183453598762147D+02 -.222687173617871D+02
 0.363704341919591D+03 0.530385747307076D+02 -.306744661571995D+03 -.164499906306296D+03
 0.411184522648391D+02 -.279540634718592D+02 0.301154536418820D+02 0.153522116021669D+01
0.324841089615D-04 0.000000000000D+00 0.000000000000D+00 0.116890053022D-06 0.000000000000D+00  7 -2 2 23 -11 11 23 21 0 0.65084632D-01 0.70981586D-01 0.14731513D+06 0.14731513D+06 0.14731513D+06 0.11081714D+01  1  2  2  2  7  2        2 0.599457798664D-03 0.100000000000D+01
-.176123983759D-05 0.000000000000D+00 -.124747531674D-06 0.116890053022D-06 0.000000000000D+00  7 -2 2 23 -11 11 23 21 2 0.65084632D-01 0.70981586D-01 0.14731513D+06 0.14731513D+06 0.14731513D+06 0.11081714D+01  1  2  3  2  7  2        2 -.399135218423D-04 0.100000000000D+01
0.207890752467D-05 0.000000000000D+00 0.000000000000D+00 0.116890053022D-06 0.000000000000D+00  7 -2 2 23 -11 11 23 21 2 0.65084632D-01 0.70981586D-01 0.14731513D+06 0.14731513D+06 0.14731513D+06 0.11081714D+01  1  2 15  2  7  2        2 0.471125619141D-04 0.100000000000D+01
0.627379597044D-04 0.000000000000D+00 0.000000000000D+00 0.116890053022D-06 0.000000000000D+00  7 -2 2 23 -11 11 23 21 2 0.65084632D-01 0.75908479D-01 0.16391222D+06 0.16391222D+06 0.16391222D+06 0.11045249D+01  1  2 12  2  7  2        2 0.130759039162D-02 0.100000000000D+01
-.470128714930D-04 0.000000000000D+00 0.000000000000D+00 0.116890053022D-06 0.000000000000D+00  7 -2 2 23 -11 11 23 21 2 0.65084632D-01 0.70981586D-01 0.14731513D+06 0.14731513D+06 0.14731513D+06 0.11081714D+01  1  2  4  2  7  2        2 -.106541382562D-02 0.100000000000D+01
0.727087662664D-06 0.000000000000D+00 0.000000000000D+00 0.116890053022D-06 0.000000000000D+00  7 -2 21 23 -11 11 23 -2 2 0.65084632D-01 0.75908479D-01 0.16391222D+06 0.16391222D+06 0.16391222D+06 0.11045249D+01  1  2 12  4  7  2        2 0.296025982504D-04 0.100000000000D+01
  </mgrwgt>
  </event>
  <event>
  8     66 0.27870365E-05 0.39053543E+03 0.75467711E-02 0.92542646E-01
       -2 -1    0    0    0  501 0.00000000E+00 0.00000000E+00 0.48432703E+03 0.48432714E+03 0.32000000E+00 0.0000E+00 0.9000E+01
        2 -1    0    0  501    0 0.00000000E+00 0.00000000E+00 -.40910698E+03 0.40910710E+03 0.32000000E+00 0.0000E+00 0.9000E+01
       25  2    1    2    0    0 0.33224346E+02 -.35022101E+03 0.20617987E+03 0.50713858E+03 0.30153074E+03 0.0000E+00 0.0000E+00
       23  2    3    3    0    0 0.96540682E+02 -.22228672E+03 0.21661390E+03 0.33743218E+03 0.90594730E+02 0.0000E+00 0.0000E+00
       23  1    1    2    0    0 -.33224346E+02 0.35022101E+03 -.13095981E+03 0.38629566E+03 0.91188000E+02 0.0000E+00 0.9000E+01
      -11  1    4    4    0    0 0.71273164E+00 -.58506503E+02 0.96510874E+02 0.11286216E+03 0.51099893E-03 0.0000E+00 0.9000E+01
       11  1    4    4    0    0 0.95827951E+02 -.16378022E+03 0.12010302E+03 0.22457002E+03 0.51099893E-03 0.0000E+00 0.9000E+01
       23  1    3    3    0    0 -.63316336E+02 -.12793429E+03 -.10434031E+02 0.16970640E+03 0.91188000E+02 0.0000E+00 0.9000E+01
#aMCatNLO 1  0  0  1  1 0.37294392D+03 0.00000000D+00  -5  7  0 0.00000000D+00 0.00000000D+00 0.00000000D+00 0.00000000D+00 0.00000000D+00
  <mgrwgt>
 0.4174690848D-03    3    2    0
 0.445131073289848D+03 0.000000000000000D+00 0.000000000000000D+00 0.445131073289848D+03
 0.445131073289848D+03 0.000000000000000D+00 0.000000000000000D+00 -.445131073289848D+03
 0.398737135660422D+03 -.332243464323322D+02 0.350221014655380D+03 -.164065339753947D+03
 0.105109902629578D+03 0.712731636110220D+00 -.585065026350411D+02 0.873187997731885D+02
 0.215222434381175D+03 0.958279507865587D+02 -.163780218451558D+03 0.101556585965501D+03
 0.171192673908521D+03 -.633163359903367D+02 -.127934293568781D+03 -.248100459847418D+02
 0.000000000000000D+00 0.000000000000000D+00 -.000000000000000D+00 -.000000000000000D+00
 0.584979089300203D+03 0.000000000000000D+00 0.000000000000000D+00 0.584979089300203D+03
 0.822285509741217D+03 0.000000000000000D+00 0.000000000000000D+00 -.822285509741217D+03
 0.579416673499762D+03 -.400141626803164D+02 0.546708204860641D+03 -.164065339753947D+03
 0.894552255924610D+02 -.637834559637004D+00 -.194231243378206D+02 0.873187997731885D+02
 0.163388756547639D+03 0.931998360751881D+02 -.877264849904149D+02 0.101556585965501D+03
 0.132961522909877D+03 -.654276104014881D+02 -.668371501928378D+02 -.248100459847418D+02
 0.442042420491680D+03 0.128797715662534D+02 -.372721445339568D+03 -.237306420441014D+03
0.261698309753D-04 0.000000000000D+00 0.000000000000D+00 0.889587338516D-07 0.000000000000D+00  7 -2 2 23 -11 11 23 21 0 0.74511869D-01 0.62939553D-01 0.15251792D+06 0.15251792D+06 0.15251792D+06 0.11069818D+01  1  2  2  1  7  1       -2 0.412230796857D-03 0.100000000000D+01
-.142361329263D-05 0.000000000000D+00 -.100499041620D-06 0.889587338516D-07 0.000000000000D+00  7 -2 2 23 -11 11 23 21 2 0.74511869D-01 0.62939553D-01 0.15251792D+06 0.15251792D+06 0.15251792D+06 0.11069818D+01  1  2  3  1  7  1       -2 -.274797347081D-04 0.100000000000D+01
0.169498768689D-05 0.000000000000D+00 0.000000000000D+00 0.889587338516D-07 0.000000000000D+00  7 -2 2 23 -11 11 23 21 2 0.74511869D-01 0.62939553D-01 0.15251792D+06 0.15251792D+06 0.15251792D+06 0.11069818D+01  1  2 15  1  7  1       -2 0.327180226614D-04 0.100000000000D+01
  </mgrwgt>
  </event>
  <event>
  8     66 0.27870365E-05 0.32665624E+03 0.75467711E-02 0.94666513E-01
       -2 -1    0    0    0  501 0.00000000E+00 0.00000000E+00 0.29353066E+03 0.29353084E+03 0.32000000E+00 0.0000E+00 0.9000E+01
        2 -1    0    0  501    0 0.00000000E+00 0.00000000E+00 -.37841187E+03 0.37841200E+03 0.32000000E+00 0.0000E+00 0.9000E+01
       25  2    1    2    0    0 -.13912366E+03 0.21099398E+03 -.62415090E+02 0.40232491E+03 0.30675045E+03 0.0000E+00 0.0000E+00
       23  2    3    3    0    0 -.19434555E+03 0.10156786E+03 -.72233514E+02 0.24923937E+03 0.93895480E+02 0.0000E+00 0.0000E+00
       23  1    1    2    0    0 0.13912366E+03 -.21099398E+03 -.22466114E+02 0.26961793E+03 0.91188000E+02 0.0000E+00 0.9000E+01
      -11  1    4    4    0    0 -.34349503E+02 -.11188138E+02 -.34392483E+02 0.49878910E+02 0.51099893E-03 0.0000E+00 0.9000E+01
       11  1    4    4    0    0 -.15999604E+03 0.11275600E+03 -.37841031E+02 0.19936046E+03 0.51099893E-03 0.0000E+00 0.9000E+01
       23  1    3    3    0    0 0.55221884E+02 0.10942611E+03 0.98184243E+01 0.15308554E+03 0.91188000E+02 0.0000E+00 0.9000E+01
#aMCatNLO 1  0  0  1  1 0.28771931D+03 0.00000000D+00  -5  7  0 0.00000000D+00 0.00000000D+00 0.00000000D+00 0.00000000D+00 0.00000000D+00
  <mgrwgt>
 0.2762392411D-03    5    2    0
 0.333280049093136D+03 0.000000000000000D+00 0.000000000000000D+00 0.333280049093136D+03
 0.333280049093136D+03 0.000000000000000D+00 0.000000000000000D+00 -.333280049093136D+03
 0.268934321879135D+03 0.139123661802561D+03 -.210993975653047D+03 0.116861929368886D+02
 0.459020890148833D+02 -.343495027558640D+02 -.111881376777613D+02 -.283185277099397D+02
 0.196151618952462D+03 -.159996042209954D+03 0.112756002806891D+03 -.127596209126737D+02
 0.155572068339791D+03 0.552218831632565D+02 0.109426110523917D+03 0.293919556857248D+02
 0.000000000000000D+00 -.000000000000000D+00 -.000000000000000D+00 0.000000000000000D+00
 0.537326566951002D+03 0.000000000000000D+00 0.000000000000000D+00 0.537326566951002D+03
 0.481722492795828D+03 0.000000000000000D+00 0.000000000000000D+00 -.481722492795828D+03
 0.352963476294340D+03 0.267614509971880D+03 -.210983106434940D+03 0.116861929368886D+02
 0.351684811730795D+02 -.175994413219499D+02 -.111867207669570D+02 -.283185277099397D+02
 0.144587192581652D+03 -.895956982518114D+02 0.112761958069107D+03 -.127596209126737D+02
 0.193286886387458D+03 0.127299937010719D+03 0.109432207705928D+03 0.293919556857248D+02
 0.293043023310301D+03 -.287719307408838D+03 -.243385731373955D-01 0.556040741551738D+02
0.588522716572D-05 0.000000000000D+00 0.000000000000D+00 0.534844446669D-09 0.000000000000D+00  7 -2 2 23 -11 11 23 21 0 0.45158588D-01 0.58217234D-01 0.10670430D+06 0.10670430D+06 0.10670430D+06 0.11194167D+01  1  2  2  1  7  1       -2 0.282449623300D-03 0.100000000000D+01
-.326796860874D-06 0.000000000000D+00 -.226008219322D-07 0.534844446669D-09 0.000000000000D+00  7 -2 2 23 -11 11 23 21 2 0.45158588D-01 0.58217234D-01 0.10670430D+06 0.10670430D+06 0.10670430D+06 0.11194167D+01  1  2  3  1  7  1       -2 -.196534686766D-04 0.100000000000D+01
0.384084243591D-06 0.000000000000D+00 0.000000000000D+00 0.534844446669D-09 0.000000000000D+00  7 -2 2 23 -11 11 23 21 2 0.45158588D-01 0.58217234D-01 0.10670430D+06 0.10670430D+06 0.10670430D+06 0.11194167D+01  1  2 15  1  7  1       -2 0.230987153009D-04 0.100000000000D+01
-.107167468292D-05 0.000000000000D+00 -.180278617335D-05 0.534844446669D-09 0.000000000000D+00  7 -2 2 23 -11 11 23 21 2 0.99591226D-01 0.58217234D-01 0.10670430D+06 0.10670430D+06 0.10670430D+06 0.11194167D+01  1  2  5  1  7  1       -2 -.119697165726D-04 0.100000000000D+01
0.217278359750D-07 0.000000000000D+00 -.154570887370D-06 0.534844446669D-09 0.000000000000D+00  7 21 2 23 -11 11 23 2 2 0.99591226D-01 0.58217234D-01 0.10670430D+06 0.10670430D+06 0.10670430D+06 0.11194167D+01  1  2  5  3  7  1       -2 0.231408772546D-05 0.100000000000D+01
  </mgrwgt>
  </event>
  <event>
  9     66 0.27870365E-05 0.19785236E+03 0.75467711E-02 0.10265197E+00
       21 -1    0    0  502  501 0.00000000E+00 0.00000000E+00 0.51685467E+03 0.51685521E+03 0.75000000E+00 0.0000E+00 0.9000E+01
        2 -1    0    0  501    0 0.00000000E+00 0.00000000E+00 -.37754800E+03 0.37754814E+03 0.32000000E+00 0.0000E+00 0.9000E+01
       25  2    1    2    0    0 0.82121298E+02 0.10917304E+03 -.22229629E+03 0.39909073E+03 0.30198529E+03 0.0000E+00 0.0000E+00
       23  2    3    3    0    0 0.14850815E+03 0.89509287E+01 -.81597334E+02 0.19278239E+03 0.91499371E+02 0.0000E+00 0.0000E+00
       23  1    1    2    0    0 -.46173421E+02 0.42427029E+01 0.36216351E+03 0.37633448E+03 0.91188000E+02 0.0000E+00 0.9000E+01
      -11  1    4    4    0    0 0.31994168E+02 0.61912149E+01 0.19944005E+02 0.38206298E+02 0.51099893E-03 0.0000E+00 0.9000E+01
       11  1    4    4    0    0 0.11651398E+03 0.27597138E+01 -.10154134E+03 0.15457609E+03 0.51099893E-03 0.0000E+00 0.9000E+01
       23  1    3    3    0    0 -.66386854E+02 0.10022211E+03 -.14069895E+03 0.20630834E+03 0.91188000E+02 0.0000E+00 0.9000E+01
        2  1    1    2  502    0 -.35947877E+02 -.11341574E+03 -.56055612E+00 0.11897813E+03 0.32000000E+00 0.0000E+00 0.9000E+01
#aMCatNLO 2  0  0  1  1 0.11897638D+03 0.00000000D+00  -5  7  0 0.00000000D+00 0.00000000D+00 0.00000000D+00 0.00000000D+00 0.00000000D+00
  <mgrwgt>
 0.6636053969D-04    1    2    0
 0.376684896690031D+03 0.000000000000000D+00 0.000000000000000D+00 0.376684896690031D+03
 0.376684896690031D+03 0.000000000000000D+00 0.000000000000000D+00 -.376684896690031D+03
 0.321678800561525D+03 -.612981389133683D+02 -.434758614208952D+02 0.299189550329168D+03
 0.331634095255307D+02 0.303735255571946D+02 0.107808111283306D+01 0.132702078996020D+02
 0.171978065010622D+03 0.108268376144225D+03 -.232552232748780D+02 -.131581184682028D+03
 0.226549518282384D+03 -.773437627880514D+02 0.656530035829401D+02 -.180878573546743D+03
 0.000000000000000D+00 -.000000000000000D+00 -.000000000000000D+00 -.000000000000000D+00
 0.430691375903956D+03 0.000000000000000D+00 0.000000000000000D+00 0.430691375903956D+03
 0.453079803607128D+03 0.000000000000000D+00 0.000000000000000D+00 -.453079803607128D+03
 0.316195546595984D+03 -.461734208038825D+02 0.424270293922702D+01 0.299189550329168D+03
 0.351860244040472D+02 0.319941674998192D+02 0.619121487731273D+01 0.132702078996020D+02
 0.175774664706948D+03 0.116513984440311D+03 0.275971381795744D+01 -.131581184682028D+03
 0.235550408767843D+03 -.663868538510584D+02 0.100222108310253D+03 -.180878573546743D+03
 0.121064535036262D+03 -.359478772851894D+02 -.113415739944750D+03 -.223884277031726D+02
0.337666284304D-06 0.000000000000D+00 0.000000000000D+00 0.710182399939D-07 0.809043383415D-12  7 21 2 23 -11 11 23 2 2 0.79516117D-01 0.58084332D-01 0.67937809D+05 0.67937809D+05 0.67937809D+05 0.11357653D+01  1  2  1  3  7  1       -2 0.663605396866D-04 0.100000000000D+01
  </mgrwgt>
  </event>
  <event>
  8     66 0.27870365E-05 0.15563992E+03 0.75467711E-02 0.97613097E-01
       -2 -1    0    0    0  501 0.00000000E+00 0.00000000E+00 0.98047075E+02 0.98047597E+02 0.32000000E+00 0.0000E+00 0.9000E+01
        2 -1    0    0  501    0 0.00000000E+00 0.00000000E+00 -.30115900E+04 0.30115900E+04 0.32000000E+00 0.0000E+00 0.9000E+01
       25  2    1    2    0    0 -.33568929E+03 0.42744803E+02 -.50782438E+03 0.67852441E+03 0.29664012E+03 0.0000E+00 0.0000E+00
       23  2    3    3    0    0 -.61152988E+02 -.30884259E+02 -.28235298E+03 0.30443348E+03 0.90901133E+02 0.0000E+00 0.0000E+00
       23  1    1    2    0    0 0.33568929E+03 -.42744803E+02 -.24057185E+04 0.24311132E+04 0.91188000E+02 0.0000E+00 0.9000E+01
      -13  1    4    4    0    0 -.36052483E+02 0.28038573E+02 -.15920337E+03 0.16562508E+03 0.10565837E+00 0.0000E+00 0.9000E+01
       13  1    4    4    0    0 -.25100505E+02 -.58922832E+02 -.12314961E+03 0.13880840E+03 0.10565837E+00 0.0000E+00 0.9000E+01
       23  1    3    3    0    0 -.27453630E+03 0.73629062E+02 -.22547140E+03 0.37409093E+03 0.91188000E+02 0.0000E+00 0.9000E+01
#aMCatNLO 1  0  0  2  1 0.15632049D+02 0.00000000D+00  -5  7  0 0.00000000D+00 0.00000000D+00 0.00000000D+00 0.00000000D+00 0.00000000D+00
  <mgrwgt>
 0.4342473599D-03    6    2    0
 0.543395273866862D+03 0.000000000000000D+00 0.000000000000000D+00 0.543395273866862D+03
 0.543395273866862D+03 0.000000000000000D+00 0.000000000000000D+00 -.543395273866862D+03
 0.506736825720849D+03 0.335689290478545D+03 -.427448029812995D+02 -.365995274933629D+03
 0.471002420094527D+02 -.360524975758496D+02 0.280386904194326D+02 -.115100849456289D+02
 0.670250484454747D+02 -.251004902581184D+02 -.589229498547791D+02 0.197587572567589D+02
 0.465928431557948D+03 -.274536302644577D+03 0.736290624166460D+02 0.357746602622499D+03
 0.000000000000000D+00 -.000000000000000D+00 -.000000000000000D+00 0.000000000000000D+00
 0.552384842004919D+03 0.000000000000000D+00 0.000000000000000D+00 0.552384842004919D+03
 0.550289922598320D+03 0.000000000000000D+00 0.000000000000000D+00 -.550289922598320D+03
 0.507582497106233D+03 0.337777633532822D+03 -.357556853636304D+02 -.365995274933629D+03
 0.473430705997389D+02 -.358580518707628D+02 0.286894474396066D+02 -.115100849456289D+02
 0.661165658914032D+02 -.248263701075128D+02 -.580055440817991D+02 0.197587572567589D+02
 0.465860831535476D+03 -.272617877557094D+03 0.800495106996285D+02 0.357746602622499D+03
 0.157717994703883D+02 -.447533399745185D+01 -.149777286938057D+02 0.209491940659831D+01
0.487405588968D-04 0.000000000000D+00 0.000000000000D+00 0.440609662664D-07 0.000000000000D+00  7 -2 2 23 -13 13 23 21 0 0.15084207D-01 0.46332157D+00 0.14390518D+06 0.14390518D+06 0.14390518D+06 0.11089763D+01  1  2  2  2  7  2        2 0.357366832510D-03 0.100000000000D+01
-.228259016807D-05 0.000000000000D+00 -.187176579848D-06 0.440609662664D-07 0.000000000000D+00  7 -2 2 23 -13 13 23 21 2 0.15084207D-01 0.46332157D+00 0.14390518D+06 0.14390518D+06 0.14390518D+06 0.11089763D+01  1  2  3  2  7  2        2 -.205824105956D-04 0.100000000000D+01
0.303325551816D-05 0.000000000000D+00 0.000000000000D+00 0.440609662664D-07 0.000000000000D+00  7 -2 2 23 -13 13 23 21 2 0.15084207D-01 0.46332157D+00 0.14390518D+06 0.14390518D+06 0.14390518D+06 0.11089763D+01  1  2 15  2  7  2        2 0.273512570892D-04 0.100000000000D+01
0.326600014234D-04 0.000000000000D+00 0.000000000000D+00 0.440609662664D-07 0.000000000000D+00  7 -2 2 23 -13 13 23 21 2 0.15084207D-01 0.47297732D+00 0.15005702D+06 0.15005702D+06 0.15005702D+06 0.11075389D+01  1  2 12  2  7  2        2 0.267502264206D-03 0.100000000000D+01
-.219417721873D-04 0.000000000000D+00 0.000000000000D+00 0.440609662664D-07 0.000000000000D+00  7 -2 2 23 -13 13 23 21 2 0.15084207D-01 0.46332157D+00 0.14390518D+06 0.14390518D+06 0.14390518D+06 0.11089763D+01  1  2  4  2  7  2        2 -.197851796030D-03 0.100000000000D+01
0.885964400746D-06 0.000000000000D+00 0.000000000000D+00 0.440609662664D-07 0.000000000000D+00  7 -2 21 23 -13 13 23 -2 2 0.15084207D-01 0.47297732D+00 0.15005702D+06 0.15005702D+06 0.15005702D+06 0.11075389D+01  1  2 12  4  7  2        2 0.461212727649D-06 0.100000000000D+01
  </mgrwgt>
  </event>
  <event>
  8     66 0.27870365E-05 0.35815560E+03 0.75467711E-02 0.86744214E-01
       -2 -1    0    0    0  501 0.00000000E+00 0.00000000E+00 0.38399200E+03 0.38399213E+03 0.32000000E+00 0.0000E+00 0.9000E+01
        2 -1    0    0  501    0 0.00000000E+00 0.00000000E+00 -.19160447E+04 0.19160447E+04 0.32000000E+00 0.0000E+00 0.9000E+01
       25  2    1    2    0    0 0.60435046E+02 -.81671118E+03 -.95987172E+03 0.12968540E+04 0.29967809E+03 0.0000E+00 0.0000E+00
       23  2    3    3    0    0 0.14341937E+03 -.41098612E+03 -.43448996E+03 0.62169439E+03 0.90794697E+02 0.0000E+00 0.0000E+00
       23  1    1    2    0    0 -.60435046E+02 0.81671118E+03 -.57218097E+03 0.10031829E+04 0.91188000E+02 0.0000E+00 0.9000E+01
      -11  1    4    4    0    0 0.13434153E+03 -.29320815E+03 -.35320873E+03 0.47830438E+03 0.51099893E-03 0.0000E+00 0.9000E+01
       11  1    4    4    0    0 0.90778392E+01 -.11777797E+03 -.81281230E+02 0.14339001E+03 0.51099893E-03 0.0000E+00 0.9000E+01
       23  1    3    3    0    0 -.82984325E+02 -.40572506E+03 -.52538176E+03 0.67515959E+03 0.91188000E+02 0.0000E+00 0.9000E+01
#aMCatNLO 1  0  0  1  2 0.40109964D+03 0.00000000D+00  -5  7  0 0.00000000D+00 0.00000000D+00 0.00000000D+00 0.00000000D+00 0.00000000D+00
  <mgrwgt>
 0.3073316435D-03    7    2    0
 0.857756380105736D+03 0.000000000000000D+00 0.000000000000000D+00 0.857756380105736D+03
 0.857756380105736D+03 0.000000000000000D+00 0.000000000000000D+00 -.857756380105736D+03
 0.834004965649886D+03 -.604350456113712D+02 0.816711183286312D+03 0.128761328595545D+03
 0.325840361944683D+03 0.134341531814857D+03 -.293208152309256D+03 -.464033804940116D+02
 0.119658208264612D+03 0.907783917481217D+01 -.117777969053916D+03 0.190795609631998D+02
 0.436009224352290D+03 -.829843253782981D+02 -.405725061923141D+03 -.101437509064733D+03
 0.000000000000000D+00 -.000000000000000D+00 0.000000000000000D+00 0.000000000000000D+00
 0.327801692404999D+04 0.000000000000000D+00 0.000000000000000D+00 0.327801692404999D+04
 0.897667968764282D+03 0.000000000000000D+00 0.000000000000000D+00 -.897667968764282D+03
 0.733963757463612D+03 0.867057596283556D+02 0.711540706798763D+03 0.128761328595545D+03
 0.400045597239019D+03 0.202459883266674D+03 -.341896478216281D+03 -.464033804940116D+02
 0.140624853178536D+03 0.335032366246782D+02 -.135236285147911D+03 0.190795609631998D+02
 0.487144707826205D+03 0.364598231766190D+01 -.467645008084936D+03 -.101437509064733D+03
 0.241390597710690D+04 -.326314861837369D+03 0.233237064650366D+03 0.238034895528571D+04
0.139173378718D-03 0.000000000000D+00 0.000000000000D+00 0.292714484743D-05 0.000000000000D+00  7 -2 2 23 -11 11 23 21 0 0.59075704D-01 0.29477612D+00 0.71292460D+06 0.71292460D+06 0.71292460D+06 0.10577887D+01  1  2  2  1  7  1       -2 0.347207854641D-03 0.100000000000D+01
-.772952100975D-05 0.000000000000D+00 -.534462419470D-06 0.292714484743D-05 0.000000000000D+00  7 -2 2 23 -11 11 23 21 2 0.59075704D-01 0.29477612D+00 0.71292460D+06 0.71292460D+06 0.71292460D+06 0.10577887D+01  1  2  3  1  7  1       -2 -.215766401518D-04 0.100000000000D+01
0.858697922073D-05 0.000000000000D+00 0.000000000000D+00 0.292714484743D-05 0.000000000000D+00  7 -2 2 23 -11 11 23 21 2 0.59075704D-01 0.29477612D+00 0.71292460D+06 0.71292460D+06 0.71292460D+06 0.10577887D+01  1  2 15  1  7  1       -2 0.239701994991D-04 0.100000000000D+01
0.624179088646D-03 0.000000000000D+00 0.000000000000D+00 0.292714484743D-05 0.000000000000D+00  7 -2 2 23 -11 11 23 21 2 0.22202228D+00 0.29477612D+00 0.11414967D+07 0.11414967D+07 0.11414967D+07 0.10440594D+01  1  2 12  1  7  1       -2 0.527501625050D-04 0.100000000000D+01
-.867729629119D-03 0.000000000000D+00 -.480170483602D-04 0.292714484743D-05 0.000000000000D+00  7 -2 2 23 -11 11 23 21 2 0.22809527D+00 0.29477612D+00 0.71292460D+06 0.71292460D+06 0.71292460D+06 0.10577887D+01  1  2  5  1  7  1       -2 -.714013622528D-04 0.100000000000D+01
0.977710373645D-04 0.000000000000D+00 0.000000000000D+00 0.292714484743D-05 0.000000000000D+00  7 21 2 23 -11 11 23 2 2 0.22202228D+00 0.29477612D+00 0.11414967D+07 0.11414967D+07 0.11414967D+07 0.10440594D+01  1  2 12  3  7  1       -2 0.605430089313D-04 0.100000000000D+01
-.138396632612D-03 0.000000000000D+00 -.770457594356D-05 0.292714484743D-05 0.000000000000D+00  7 21 2 23 -11 11 23 2 2 0.22809527D+00 0.29477612D+00 0.71292460D+06 0.71292460D+06 0.71292460D+06 0.10577887D+01  1  2  5  3  7  1       -2 -.841615796879D-04 0.100000000000D+01
  </mgrwgt>
  </event>
  <event>
  8     66 0.27870365E-05 0.23171656E+03 0.75467711E-02 0.92980060E-01
       -2 -1    0    0    0  501 0.00000000E+00 0.00000000E+00 0.62210680E+02 0.62211503E+02 0.32000000E+00 0.0000E+00 0.9000E+01
        2 -1    0    0  501    0 0.00000000E+00 0.00000000E+00 -.26086149E+04 0.26086149E+04 0.32000000E+00 0.0000E+00 0.9000E+01
       25  2    1    2    0    0 -.22188043E+03 -.25311688E+03 -.12744165E+04 0.13518999E+04 0.30032803E+03 0.0000E+00 0.0000E+00
       23  2    3    3    0    0 -.60754354E+01 -.10073704E+03 -.69979080E+03 0.71291530E+03 0.91412234E+02 0.0000E+00 0.0000E+00
       23  1    1    2    0    0 0.22188043E+03 0.25311688E+03 -.12719878E+04 0.13189265E+04 0.91188000E+02 0.0000E+00 0.9000E+01
      -11  1    4    4    0    0 -.36121883E+02 -.10222248E+02 -.27496653E+03 0.27751735E+03 0.51099893E-03 0.0000E+00 0.9000E+01
       11  1    4    4    0    0 0.30046447E+02 -.90514788E+02 -.42482427E+03 0.43539795E+03 0.51099893E-03 0.0000E+00 0.9000E+01
       23  1    3    3    0    0 -.21580500E+03 -.15237984E+03 -.57462567E+03 0.63898461E+03 0.91188000E+02 0.0000E+00 0.9000E+01
#aMCatNLO 1  0  0  2  1 0.32975259D+03 0.00000000D+00  -5  7  0 0.00000000D+00 0.00000000D+00 0.00000000D+00 0.00000000D+00 0.00000000D+00
  <mgrwgt>
 0.5170876060D-03    7    2    0
 0.402845917575061D+03 0.000000000000000D+00 0.000000000000000D+00 0.402845917575061D+03
 0.402845917575061D+03 0.000000000000000D+00 0.000000000000000D+00 -.402845917575061D+03
 0.352031405490497D+03 0.221880431748625D+03 0.253116879767656D+03 -.480809555993276D+02
 0.509186351901119D+02 -.361218825704800D+02 -.102222481355980D+02 -.344009106310053D+02
 0.100656400170308D+03 0.300464471518051D+02 -.905147877841044D+02 -.321868777795770D+02
 0.302085394299206D+03 -.215804996329950D+03 -.152379843847954D+03 0.114668744009910D+03
 0.000000000000000D+00 0.000000000000000D+00 -.000000000000000D+00 -.000000000000000D+00
 0.491462432400670D+03 0.000000000000000D+00 0.000000000000000D+00 0.491462432400670D+03
 0.919139591574031D+03 0.000000000000000D+00 0.000000000000000D+00 -.919139591574031D+03
 0.400348706733165D+03 0.125902555058961D+03 0.365787648748831D+03 -.480809555993276D+02
 0.614202253315148D+02 -.504524651143695D+02 0.660077203173735D+01 -.344009106310053D+02
 0.725852291973949D+02 0.794676180548776D+01 -.645714284590930D+02 -.321868777795770D+02
 0.336206637973865D+03 -.297229150118970D+03 -.567940449381263D+02 0.114668744009910D+03
 0.540041224738762D+03 0.213832298368891D+03 -.251022947383350D+03 -.427677159173360D+03
0.195010461911D-04 0.000000000000D+00 0.000000000000D+00 0.532670789074D-06 0.000000000000D+00  7 -2 2 23 -11 11 23 21 0 0.95709387D-02 0.40132544D+00 0.14482594D+06 0.14482594D+06 0.14482594D+06 0.11087569D+01  1  2  2  2  7  2        2 0.512281694732D-03 0.100000000000D+01
-.107912519494D-05 0.000000000000D+00 -.748891521170D-07 0.532670789074D-06 0.000000000000D+00  7 -2 2 23 -11 11 23 21 2 0.95709387D-02 0.40132544D+00 0.14482594D+06 0.14482594D+06 0.14482594D+06 0.11087569D+01  1  2  3  2  7  2        2 -.348494130938D-04 0.100000000000D+01
0.122876596465D-05 0.000000000000D+00 0.000000000000D+00 0.532670789074D-06 0.000000000000D+00  7 -2 2 23 -11 11 23 21 2 0.95709387D-02 0.40132544D+00 0.14482594D+06 0.14482594D+06 0.14482594D+06 0.11087569D+01  1  2 15  2  7  2        2 0.396819320859D-04 0.100000000000D+01
0.321666545364D-06 0.000000000000D+00 0.000000000000D+00 0.532670789074D-06 0.000000000000D+00  7 -2 2 23 -11 11 23 21 2 0.95709387D-02 0.90709221D+00 0.33593156D+06 0.33593156D+06 0.33593156D+06 0.10809357D+01  1  2 12  2  7  2        2 0.195299586248D-08 0.100000000000D+01
-.797927873953D-05 0.000000000000D+00 -.391105085054D-05 0.532670789074D-06 0.000000000000D+00  7 -2 2 23 -11 11 23 21 2 0.95709387D-02 0.92148545D+00 0.14482594D+06 0.14482594D+06 0.14482594D+06 0.11087569D+01  1  2  5  2  7  2        2 -.285572889211D-07 0.100000000000D+01
0.284962066636D-07 0.000000000000D+00 0.000000000000D+00 0.532670789074D-06 0.000000000000D+00  7 -2 21 23 -11 11 23 -2 2 0.95709387D-02 0.90709221D+00 0.33593156D+06 0.33593156D+06 0.33593156D+06 0.10809357D+01  1  2 12  4  7  2        2 0.415086758089D-12 0.100000000000D+01
-.474265704395D-06 0.000000000000D+00 -.353734213667D-06 0.532670789074D-06 0.000000000000D+00  7 -2 21 23 -11 11 23 -2 2 0.95709387D-02 0.92148545D+00 0.14482594D+06 0.14482594D+06 0.14482594D+06 0.11087569D+01  1  2  5  4  7  2        2 -.380643968905D-11 0.100000000000D+01
  </mgrwgt>
  </event>
  <event>
  9     66 0.27870365E-05 0.18604384E+03 0.75467711E-02 0.10599479E+00
       -2 -1    0    0    0  502 0.00000000E+00 0.00000000E+00 0.60152686E+02 0.60153537E+02 0.32000000E+00 0.0000E+00 0.9000E+01
        2 -1    0    0  501    0 0.00000000E+00 0.00000000E+00 -.13422571E+04 0.13422571E+04 0.32000000E+00 0.0000E+00 0.9000E+01
       25  2    1    2    0    0 -.61416798E+02 0.79458671E+02 -.10448858E+04 0.10916130E+04 0.29957796E+03 0.0000E+00 0.0000E+00
       23  2    3    3    0    0 0.46434842E+01 0.87489279E+02 -.89403123E+03 0.90319646E+03 0.93787308E+02 0.0000E+00 0.0000E+00
       23  1    1    2    0    0 0.89587521E+02 -.61668533E+02 -.11079355E+03 0.18005386E+03 0.91188000E+02 0.0000E+00 0.9000E+01
      -11  1    4    4    0    0 0.13589577E+02 -.13914175E+02 -.62474088E+02 0.65431586E+02 0.51099893E-03 0.0000E+00 0.9000E+01
       11  1    4    4    0    0 -.89460924E+01 0.10140345E+03 -.83155715E+03 0.83776487E+03 0.51099893E-03 0.0000E+00 0.9000E+01
       23  1    3    3    0    0 -.66060282E+02 -.80306080E+01 -.15085458E+03 0.18841658E+03 0.91188000E+02 0.0000E+00 0.9000E+01
       21  1    1    2  501  502 -.28170723E+02 -.17790138E+02 -.12642505E+03 0.13074377E+03 0.75000000E+00 0.0000E+00 0.9000E+01
#aMCatNLO 2  0  0  1  1 0.33317843D+02 0.00000000D+00  -5  7  0 0.00000000D+00 0.00000000D+00 0.00000000D+00 0.00000000D+00 0.00000000D+00
  <mgrwgt>
 0.2675756184D-03    1    2    0
 0.264779075479975D+03 0.000000000000000D+00 0.000000000000000D+00 0.264779075479975D+03
 0.264779075479975D+03 0.000000000000000D+00 0.000000000000000D+00 -.264779075479975D+03
 0.187892615578934D+03 0.795405411984138D+02 -.680133170211255D+02 0.126632834046862D+03
 0.205300883075430D+02 0.124928244336949D+02 -.146067868275108D+02 -.721495960903777D+01
 0.194109863672902D+03 -.193294315031975D+02 0.948462550478479D+02 -.168253380816774D+03
 0.127025583400571D+03 -.727039341289111D+02 -.122261511992115D+02 0.488355063789492D+02
 0.000000000000000D+00 -.000000000000000D+00 -.000000000000000D+00 -.000000000000000D+00
 0.275177355493411D+03 0.000000000000000D+00 0.000000000000000D+00 0.275177355493411D+03
 0.293406616824563D+03 0.000000000000000D+00 0.000000000000000D+00 -.293406616824563D+03
 0.190210561918172D+03 0.895875207868970D+02 -.616685331570623D+02 0.126632834046862D+03
 0.207445536084014D+02 0.135895766154578D+02 -.139141751341714D+02 -.721495960903777D+01
 0.196651705243966D+03 -.894609240284964D+01 0.101403453835681D+03 -.168253380816774D+03
 0.122998412785790D+03 -.660602819836323D+02 -.803060799554729D+01 0.488355063789492D+02
 0.379787387616445D+02 -.281707230158729D+02 -.177901375488998D+02 -.182292613311520D+02
0.145242219299D-05 0.000000000000D+00 0.000000000000D+00 0.480493266018D-07 0.309187311833D-09  7 -2 2 23 -11 11 23 21 2 0.92542053D-02 0.20649843D+00 0.41898572D+05 0.41898572D+05 0.41898572D+05 0.11541100D+01  1  2  1  1  7  1       -2 0.267575618430D-03 0.100000000000D+01
  </mgrwgt>
  </event>
  <event>
  8     66 0.27870365E-05 0.60047003E+03 0.75467711E-02 0.91540509E-01
       -2 -1    0    0    0  501 0.00000000E+00 0.00000000E+00 0.15015304E+03 0.15015339E+03 0.32000000E+00 0.0000E+00 0.9000E+01
        2 -1    0    0  501    0 0.00000000E+00 0.00000000E+00 -.34191223E+04 0.34191223E+04 0.32000000E+00 0.0000E+00 0.9000E+01
       25  2    1    2    0    0 0.13081129E+03 0.54861376E+03 -.26554573E+04 0.27309435E+04 0.29750723E+03 0.0000E+00 0.0000E+00
       23  2    3    3    0    0 0.16081271E+03 0.22262838E+03 -.10096166E+04 0.10503861E+04 0.92526279E+02 0.0000E+00 0.0000E+00
       23  1    1    2    0    0 -.13081129E+03 -.54861376E+03 -.61351201E+03 0.83833220E+03 0.91188000E+02 0.0000E+00 0.9000E+01
      -13  1    4    4    0    0 0.62138519E+02 0.16314863E+03 -.61147697E+03 0.63591097E+03 0.10565837E+00 0.0000E+00 0.9000E+01
       13  1    4    4    0    0 0.98674187E+02 0.59479751E+02 -.39813962E+03 0.41447509E+03 0.10565837E+00 0.0000E+00 0.9000E+01
       23  1    3    3    0    0 -.30001418E+02 0.32598538E+03 -.16458407E+04 0.16805575E+04 0.91188000E+02 0.0000E+00 0.9000E+01
#aMCatNLO 1  0  0  1  1 0.11790129D+03 0.00000000D+00  -5  7  0 0.00000000D+00 0.00000000D+00 0.00000000D+00 0.00000000D+00 0.00000000D+00
  <mgrwgt>
 0.4273173199D-03    4    2    0
 0.716513965125011D+03 0.000000000000000D+00 0.000000000000000D+00 0.716513965125011D+03
 0.716513965125011D+03 0.000000000000000D+00 0.000000000000000D+00 -.716513965125011D+03
 0.688532899314152D+03 -.130811288842339D+03 -.548613755613836D+03 0.384283301688532D+03
 0.189000009372578D+03 0.621384718092719D+02 0.163148763899720D+03 -.724036925994527D+02
 0.124121506469325D+03 0.986742348846177D+02 0.594796159338806D+02 -.461705428439824D+02
 0.431373515093968D+03 -.300014178515510D+02 0.325985375780235D+03 -.265709066245097D+03
 0.000000000000000D+00 0.000000000000000D+00 0.000000000000000D+00 -.000000000000000D+00
 0.729563292924350D+03 0.000000000000000D+00 0.000000000000000D+00 0.729563292924350D+03
 0.104590719668615D+04 0.000000000000000D+00 0.000000000000000D+00 -.104590719668615D+04
 0.733431036166491D+03 -.165837135605480D+03 -.595340425274299D+03 0.384283301688532D+03
 0.175831776163016D+03 0.531519272875406D+02 0.151160151601620D+03 -.724036925994527D+02
 0.115755903564676D+03 0.927655692735238D+02 0.515970865546265D+02 -.461705428439824D+02
 0.412851153750133D+03 -.507963783612932D+02 0.298243598203466D+03 -.265709066245097D+03
 0.337600619966185D+03 0.707160174057093D+02 0.943395889145861D+02 -.316343903761799D+03
0.235738894997D-03 0.000000000000D+00 0.000000000000D+00 0.658988028284D-07 0.000000000000D+00  7 -2 2 23 -13 13 23 21 0 0.23100496D-01 0.52601885D+00 0.36056425D+06 0.36056425D+06 0.36056425D+06 0.10786924D+01  1  2  2  1  7  1       -2 0.434246048958D-03 0.100000000000D+01
-.125995099818D-04 0.000000000000D+00 -.905299428264D-06 0.658988028284D-07 0.000000000000D+00  7 -2 2 23 -13 13 23 21 2 0.23100496D-01 0.52601885D+00 0.36056425D+06 0.36056425D+06 0.36056425D+06 0.10786924D+01  1  2  3  1  7  1       -2 -.270055789027D-04 0.100000000000D+01
0.148930260713D-04 0.000000000000D+00 0.000000000000D+00 0.658988028284D-07 0.000000000000D+00  7 -2 2 23 -13 13 23 21 2 0.23100496D-01 0.52601885D+00 0.36056425D+06 0.36056425D+06 0.36056425D+06 0.10786924D+01  1  2 15  1  7  1       -2 0.319214629180D-04 0.100000000000D+01
-.552612927914D-05 0.000000000000D+00 0.000000000000D+00 0.658988028284D-07 0.000000000000D+00  7 -2 2 23 -13 13 23 21 2 0.23100496D-01 0.52601885D+00 0.36056425D+06 0.36056425D+06 0.36056425D+06 0.10786924D+01  1  2  4  1  7  1       -2 -.118446130437D-04 0.100000000000D+01
  </mgrwgt>
  </event>
  <event>
  8     66 0.27870365E-05 0.34155344E+03 0.75467711E-02 0.96215607E-01
       -2 -1    0    0    0  501 0.00000000E+00 0.00000000E+00 0.33781178E+03 0.33781193E+03 0.32000000E+00 0.0000E+00 0.9000E+01
        2 -1    0    0  501    0 0.00000000E+00 0.00000000E+00 -.45896283E+03 0.45896294E+03 0.32000000E+00 0.0000E+00 0.9000E+01
       25  2    1    2    0    0 -.53944340E+02 -.30800421E+03 -.16825500E+03 0.46766910E+03 0.30434858E+03 0.0000E+00 0.0000E+00
       23  2    3    3    0    0 -.32474417E+02 -.29493751E+02 -.14433526E+03 0.17285316E+03 0.84386478E+02 0.0000E+00 0.0000E+00
       23  1    1    2    0    0 0.53944340E+02 0.30800421E+03 0.47103949E+02 0.32910578E+03 0.91188000E+02 0.0000E+00 0.9000E+01
      -13  1    4    4    0    0 -.13116384E+02 0.11987790E+02 -.11942168E+03 0.12073647E+03 0.10565837E+00 0.0000E+00 0.9000E+01
       13  1    4    4    0    0 -.19358033E+02 -.41481542E+02 -.24913588E+02 0.52116693E+02 0.10565837E+00 0.0000E+00 0.9000E+01
       23  1    3    3    0    0 -.21469924E+02 -.27851045E+03 -.23919736E+02 0.29481594E+03 0.91188000E+02 0.0000E+00 0.9000E+01
#aMCatNLO 1  0  0  2  2 0.15650073D+03 0.00000000D+00  -5  7  0 0.00000000D+00 0.00000000D+00 0.00000000D+00 0.00000000D+00 0.00000000D+00
  <mgrwgt>
 0.1016275817D-02    4    2    0
 0.393755199175829D+03 0.000000000000000D+00 0.000000000000000D+00 0.393755199175829D+03
 0.393755199175829D+03 0.000000000000000D+00 0.000000000000000D+00 -.393755199175829D+03
 0.340223974800193D+03 0.539443417770428D+02 0.308004213085108D+03 0.982879158233979D+02
 0.103785020515255D+03 -.131163729567180D+02 0.119878676318574D+02 -.102252541647889D+03
 0.488970055953157D+02 -.193580427784404D+02 -.414816302774360D+02 -.171888826135532D+02
 0.294604397440894D+03 -.214699260418844D+02 -.278510450439530D+03 0.211535084380440D+02
 0.000000000000000D+00 0.000000000000000D+00 -.000000000000000D+00 0.000000000000000D+00
 0.567226342666549D+03 0.000000000000000D+00 0.000000000000000D+00 0.567226342666549D+03
 0.438392381998601D+03 0.000000000000000D+00 0.000000000000000D+00 -.438392381998601D+03
 0.402133490697336D+03 0.322313802060807D+02 0.377752189576087D+03 0.982879158233979D+02
 0.108864000564735D+03 -.193360720065794D+02 0.319672436231481D+02 -.102252541647889D+03
 0.431256633988356D+02 -.220495825936806D+02 -.328356675816347D+02 -.171888826135532D+02
 0.248787241635398D+03 -.373634036798282D+02 -.227456249425620D+03 0.211535084380440D+02
 0.202708328368846D+03 0.465176780740075D+02 -.149427516191981D+03 0.128833960667948D+03
0.411704175382D-04 0.000000000000D+00 0.000000000000D+00 0.482872604464D-09 0.000000000000D+00  7 -2 2 23 -13 13 23 21 0 0.51971064D-01 0.70609687D-01 0.11665876D+06 0.11665876D+06 0.11665876D+06 0.11162717D+01  1  2  2  2  7  2        2 0.121482271851D-02 0.100000000000D+01
-.223099217697D-05 0.000000000000D+00 -.158105243767D-06 0.482872604464D-09 0.000000000000D+00  7 -2 2 23 -13 13 23 21 2 0.51971064D-01 0.70609687D-01 0.11665876D+06 0.11665876D+06 0.11665876D+06 0.11162717D+01  1  2  3  2  7  2        2 -.820286427531D-04 0.100000000000D+01
0.261948371067D-05 0.000000000000D+00 0.000000000000D+00 0.482872604464D-09 0.000000000000D+00  7 -2 2 23 -13 13 23 21 2 0.51971064D-01 0.70609687D-01 0.11665876D+06 0.11665876D+06 0.11665876D+06 0.11162717D+01  1  2 15  2  7  2        2 0.963126162961D-04 0.100000000000D+01
-.578851485037D-05 0.000000000000D+00 0.000000000000D+00 0.482872604464D-09 0.000000000000D+00  7 -2 2 23 -13 13 23 21 2 0.51971064D-01 0.70609687D-01 0.11665876D+06 0.11665876D+06 0.11665876D+06 0.11162717D+01  1  2  4  2  7  2        2 -.212830874815D-03 0.100000000000D+01
  </mgrwgt>
  </event>
  <event>
  8     66 0.27870365E-05 0.43861377E+03 0.75467711E-02 0.88758582E-01
       -2 -1    0    0    0  501 0.00000000E+00 0.00000000E+00 0.47754547E+03 0.47754558E+03 0.32000000E+00 0.0000E+00 0.9000E+01
        2 -1    0    0  501    0 0.00000000E+00 0.00000000E+00 -.44887183E+03 0.44887195E+03 0.32000000E+00 0.0000E+00 0.9000E+01
       25  2    1    2    0    0 -.23771444E+03 0.31207995E+03 -.10019660E+03 0.50354066E+03 0.29935227E+03 0.0000E+00 0.0000E+00
       23  2    3    3    0    0 -.86372192E+02 -.81071460E+01 -.45973946E+02 0.13383861E+03 0.90957625E+02 0.0000E+00 0.0000E+00
       23  1    1    2    0    0 0.23771444E+03 -.31207995E+03 0.12887024E+03 0.42287686E+03 0.91188000E+02 0.0000E+00 0.9000E+01
      -13  1    4    4    0    0 -.12398527E+02 -.29296902E+02 -.47152721E+02 0.56880772E+02 0.10565837E+00 0.0000E+00 0.9000E+01
       13  1    4    4    0    0 -.73973664E+02 0.21189756E+02 0.11787751E+01 0.76957842E+02 0.10565837E+00 0.0000E+00 0.9000E+01
       23  1    3    3    0    0 -.15134225E+03 0.32018710E+03 -.54222654E+02 0.36970205E+03 0.91188000E+02 0.0000E+00 0.9000E+01
#aMCatNLO 1  0  0  1  2 0.64230423D+03 0.00000000D+00  -5  7  0 0.00000000D+00 0.00000000D+00 0.00000000D+00 0.00000000D+00 0.00000000D+00
  <mgrwgt>
 0.4496497668D-03    3    2    0
 0.462986838879744D+03 0.000000000000000D+00 0.000000000000000D+00 0.462986838879744D+03
 0.462986838879744D+03 0.000000000000000D+00 0.000000000000000D+00 -.462986838879744D+03
 0.419088975181224D+03 0.237714443472496D+03 -.312079952585572D+03 0.115837232068092D+03
 0.583681391430646D+02 -.123984441377092D+02 -.292969698259800D+02 -.489367531514287D+02
 0.769582532651523D+02 -.739737473802343D+02 0.211898237528192D+02 -.120366667855736D+01
 0.371558310170047D+03 -.151342251954552D+03 0.320187098658733D+03 -.656968122381055D+02
 0.000000000000000D+00 0.000000000000000D+00 0.000000000000000D+00 -.000000000000000D+00
 0.729644919891399D+03 0.000000000000000D+00 0.000000000000000D+00 0.729644919891399D+03
 0.118412094786423D+04 0.000000000000000D+00 0.000000000000000D+00 -.118412094786423D+04
 0.572205198689486D+03 0.404419434419188D+02 -.551407039255682D+03 0.115837232068092D+03
 0.921871069209819D+02 -.423596913301565D+02 -.656453610232326D+02 -.489367531514287D+02
 0.114955483879773D+03 -.112165541213705D+03 -.251437034821132D+02 -.120366667855736D+01
 0.347586978540304D+03 -.294455762281312D+03 0.146564624749155D+03 -.656968122381055D+02
 0.786831099725087D+03 0.408539051383254D+03 0.495631479011873D+03 -.454476027972833D+03
0.305343286715D-04 0.000000000000D+00 0.000000000000D+00 0.415461225111D-06 0.000000000000D+00  7 -2 2 23 -13 13 23 21 0 0.73468551D-01 0.69057222D-01 0.19238204D+06 0.19238204D+06 0.19238204D+06 0.10991230D+01  1  2  2  1  7  1       -2 0.445465328197D-03 0.100000000000D+01
-.169031959632D-05 0.000000000000D+00 -.117259861972D-06 0.415461225111D-06 0.000000000000D+00  7 -2 2 23 -13 13 23 21 2 0.73468551D-01 0.69057222D-01 0.19238204D+06 0.19238204D+06 0.19238204D+06 0.10991230D+01  1  2  3  1  7  1       -2 -.297911307829D-04 0.100000000000D+01
0.192774054422D-05 0.000000000000D+00 0.000000000000D+00 0.415461225111D-06 0.000000000000D+00  7 -2 2 23 -13 13 23 21 2 0.73468551D-01 0.69057222D-01 0.19238204D+06 0.19238204D+06 0.19238204D+06 0.10991230D+01  1  2 15  1  7  1       -2 0.339755693499D-04 0.100000000000D+01
  </mgrwgt>
  </event>
  <event>
  8     66 0.27870365E-05 0.25746011E+03 0.75467711E-02 0.86717026E-01
       -2 -1    0    0    0  501 0.00000000E+00 0.00000000E+00 0.98535944E+03 0.98535949E+03 0.32000000E+00 0.0000E+00 0.9000E+01
        2 -1    0    0  501    0 0.00000000E+00 0.00000000E+00 -.36010312E+03 0.36010326E+03 0.32000000E+00 0.0000E+00 0.9000E+01
       25  2    1    2    0    0 0.12525523E+03 -.13864011E+03 0.91931370E+03 0.98533091E+03 0.30137912E+03 0.0000E+00 0.0000E+00
       23  2    3    3    0    0 0.16865119E+03 -.74139430E+02 0.75067062E+03 0.77845103E+03 0.92410693E+02 0.0000E+00 0.0000E+00
       23  1    1    2    0    0 -.12525523E+03 0.13864011E+03 -.29405738E+03 0.36013184E+03 0.91188000E+02 0.0000E+00 0.9000E+01
      -11  1    4    4    0    0 0.75090591E+02 -.15218009E+02 0.15850376E+03 0.17605006E+03 0.51099893E-03 0.0000E+00 0.9000E+01
       11  1    4    4    0    0 0.93560603E+02 -.58921421E+02 0.59216687E+03 0.60240096E+03 0.51099893E-03 0.0000E+00 0.9000E+01
       23  1    3    3    0    0 -.43395968E+02 -.64500677E+02 0.16864307E+03 0.20687988E+03 0.91188000E+02 0.0000E+00 0.9000E+01
#aMCatNLO 1  0  0  1  2 0.10365898D+04 0.00000000D+00  -5  7  0 0.00000000D+00 0.00000000D+00 0.00000000D+00 0.00000000D+00 0.00000000D+00
  <mgrwgt>
 0.4723909404D-03    5    2    0
 0.595677042683267D+03 0.000000000000000D+00 0.000000000000000D+00 0.595677042683267D+03
 0.595677042683267D+03 0.000000000000000D+00 0.000000000000000D+00 -.595677042683267D+03
 0.561046649183470D+03 -.125255226673651D+03 0.138640107445072D+03 -.521102811366961D+03
 0.115635923726146D+03 0.750905910233884D+02 -.152180093570535D+02 0.866110973661340D+02
 0.369539155587975D+03 0.935606034140679D+02 -.589214210111886D+02 0.352610078057181D+03
 0.145132356868944D+03 -.433959677638055D+02 -.645006770768302D+02 0.818816359436460D+02
 0.000000000000000D+00 0.000000000000000D+00 -.000000000000000D+00 0.000000000000000D+00
 0.134354029364751D+04 0.000000000000000D+00 0.000000000000000D+00 0.134354029364751D+04
 0.127453446997811D+04 0.000000000000000D+00 0.000000000000000D+00 -.127453446997811D+04
 0.893765443974172D+03 -.617389934502361D+03 0.371191252939734D+03 -.521102811366961D+03
 0.885505341337141D+02 0.601827353712386D+01 0.174211162682672D+02 0.866110973661340D+02
 0.394333812344369D+03 -.164842802537617D+03 0.631833748868921D+02 0.352610078057181D+03
 0.202540830044291D+03 -.161007062052998D+03 -.892525379383762D+01 0.818816359436460D+02
 0.103888414312907D+04 0.937221525555853D+03 -.442870490301055D+03 0.690058236694013D+02
0.134659085849D-03 0.000000000000D+00 0.000000000000D+00 0.213702935601D-06 0.000000000000D+00  7 -2 2 23 -11 11 23 21 0 0.15159377D+00 0.55400495D-01 0.66285709D+05 0.66285709D+05 0.66285709D+05 0.11366780D+01  1  2  2  1  7  1       -2 0.439575253895D-03 0.100000000000D+01
-.108081606969D-05 0.000000000000D+00 -.517126346212D-06 0.213702935601D-06 0.000000000000D+00  7 -2 2 23 -11 11 23 21 2 0.15159377D+00 0.55400495D-01 0.66285709D+05 0.66285709D+05 0.66285709D+05 0.11366780D+01  1  2  3  1  7  1       -2 -.455852440897D-05 0.100000000000D+01
0.799488375937D-05 0.000000000000D+00 0.000000000000D+00 0.213702935601D-06 0.000000000000D+00  7 -2 2 23 -11 11 23 21 2 0.15159377D+00 0.55400495D-01 0.66285709D+05 0.66285709D+05 0.66285709D+05 0.11366780D+01  1  2 15  1  7  1       -2 0.337197732213D-04 0.100000000000D+01
0.845316051551D-04 0.000000000000D+00 -.385948922868D-04 0.213702935601D-06 0.000000000000D+00  7 -2 2 23 -11 11 23 21 2 0.48856035D+00 0.55400495D-01 0.66285709D+05 0.66285709D+05 0.66285709D+05 0.11366780D+01  1  2  5  1  7  1       -2 0.143271599812D-05 0.100000000000D+01
0.130446130257D-04 0.000000000000D+00 -.520824788921D-05 0.213702935601D-06 0.000000000000D+00  7 21 2 23 -11 11 23 2 2 0.48856035D+00 0.55400495D-01 0.66285709D+05 0.66285709D+05 0.66285709D+05 0.11366780D+01  1  2  5  3  7  1       -2 0.222172171431D-05 0.100000000000D+01
  </mgrwgt>
  </event>
  <event>
  8     66 0.27870365E-05 0.22256380E+03 0.75467711E-02 0.92737682E-01
       -2 -1    0    0    0  501 0.00000000E+00 0.00000000E+00 0.14594330E+03 0.14594365E+03 0.32000000E+00 0.0000E+00 0.9000E+01
        2 -1    0    0  501    0 0.00000000E+00 0.00000000E+00 -.26798478E+04 0.26798478E+04 0.32000000E+00 0.0000E+00 0.9000E+01
       25  2    1    2    0    0 0.14912778E+03 0.53006752E+03 -.88416137E+03 0.10841892E+04 0.30085593E+03 0.0000E+00 0.0000E+00
       23  2    3    3    0    0 0.14314601E+03 0.48912489E+03 -.66369162E+03 0.84204415E+03 0.93903358E+02 0.0000E+00 0.0000E+00
       23  1    1    2    0    0 -.14912778E+03 -.53006752E+03 -.16497431E+04 0.17416022E+04 0.91188000E+02 0.0000E+00 0.9000E+01
      -11  1    4    4    0    0 0.27326249E+01 0.12832515E+03 -.12975491E+03 0.18251342E+03 0.51099893E-03 0.0000E+00 0.9000E+01
       11  1    4    4    0    0 0.14041338E+03 0.36079974E+03 -.53393671E+03 0.65953073E+03 0.51099893E-03 0.0000E+00 0.9000E+01
       23  1    3    3    0    0 0.59817716E+01 0.40942630E+02 -.22046974E+03 0.24214508E+03 0.91188000E+02 0.0000E+00 0.9000E+01
#aMCatNLO 1  0  0  2  1 0.11374615D+02 0.00000000D+00  -5  7  0 0.00000000D+00 0.00000000D+00 0.00000000D+00 0.00000000D+00 0.00000000D+00
  <mgrwgt>
 0.8607301153D-03    9    2    0
 0.625384951723413D+03 0.000000000000000D+00 0.000000000000000D+00 0.625384951723413D+03
 0.625384951723413D+03 0.000000000000000D+00 0.000000000000000D+00 -.625384951723413D+03
 0.592525574546317D+03 -.149127776870543D+03 -.530067521287891D+03 -.198898552505552D+03
 0.149474583462554D+03 0.273262491280585D+01 0.128325150565861D+03 0.766018250085397D+02
 0.408349817842503D+03 0.140413380365414D+03 0.360799740770357D+03 0.129835293377441D+03
 0.100419927595452D+03 0.598177159232357D+01 0.409426299516724D+02 -.753856588042935D+01
 0.000000000000000D+00 0.000000000000000D+00 0.000000000000000D+00 -.000000000000000D+00
 0.628132816195532D+03 0.000000000000000D+00 0.000000000000000D+00 0.628132816195532D+03
 0.637293770540618D+03 0.000000000000000D+00 0.000000000000000D+00 -.637293770540618D+03
 0.594471190945990D+03 -.154486512647040D+03 -.530710871136155D+03 -.198898552505552D+03
 0.149316983914898D+03 0.138372059531425D+01 0.128163206140128D+03 0.766018250085397D+02
 0.406707761898417D+03 0.136733776225422D+03 0.360357981209171D+03 0.129835293377441D+03
 0.100325686511454D+03 0.507549894225164D+01 0.408338262344847D+02 -.753856588042935D+01
 0.146049634653923D+02 0.112935168840525D+02 0.135585755237062D+01 -.916095434508577D+01
0.344033009315D-04 0.000000000000D+00 0.000000000000D+00 0.107938255625D-06 0.000000000000D+00  7 -2 2 23 -11 11 23 21 0 0.22452843D-01 0.41228430D+00 0.34444882D+06 0.34444882D+06 0.34444882D+06 0.10801403D+01  1  2  2  2  7  2        2 0.199247787357D-03 0.100000000000D+01
-.190191911539D-05 0.000000000000D+00 -.132117734174D-06 0.107938255625D-06 0.000000000000D+00  7 -2 2 23 -11 11 23 21 2 0.22452843D-01 0.41228430D+00 0.34444882D+06 0.34444882D+06 0.34444882D+06 0.10801403D+01  1  2  3  2  7  2        2 -.128512612112D-04 0.100000000000D+01
0.221094171499D-05 0.000000000000D+00 0.000000000000D+00 0.107938255625D-06 0.000000000000D+00  7 -2 2 23 -11 11 23 21 2 0.22452843D-01 0.41228430D+00 0.34444882D+06 0.34444882D+06 0.34444882D+06 0.10801403D+01  1  2 15  2  7  2        2 0.149393259010D-04 0.100000000000D+01
0.333096176009D-04 0.000000000000D+00 0.000000000000D+00 0.107938255625D-06 0.000000000000D+00  7 -2 2 23 -11 11 23 21 2 0.22452843D-01 0.42103015D+00 0.35118927D+06 0.35118927D+06 0.35118927D+06 0.10795259D+01  1  2 12  2  7  2        2 0.207622452964D-03 0.100000000000D+01
-.335072592009D-04 0.000000000000D+00 0.000000000000D+00 0.107938255625D-06 0.000000000000D+00  7 -2 2 23 -11 11 23 21 2 0.22452843D-01 0.41228430D+00 0.34444882D+06 0.34444882D+06 0.34444882D+06 0.10801403D+01  1  2  4  2  7  2        2 -.226408440285D-03 0.100000000000D+01
-.134348417647D-02 0.000000000000D+00 -.139537173258D-03 0.107938255625D-06 0.000000000000D+00  7 -2 2 23 -11 11 23 21 2 0.22452843D-01 0.42072676D+00 0.34444882D+06 0.34444882D+06 0.34444882D+06 0.10801403D+01  1  2  5  2  7  2        2 -.841526491141D-02 0.100000000000D+01
0.134606476565D-02 0.000000000000D+00 0.139508510920D-03 0.107938255625D-06 0.000000000000D+00  7 -2 2 23 -11 11 23 21 2 0.22452843D-01 0.41228430D+00 0.34444882D+06 0.34444882D+06 0.34444882D+06 0.10801403D+01  1  2  6  2  7  2        2 0.909535519708D-02 0.100000000000D+01
0.155457188198D-05 0.000000000000D+00 0.000000000000D+00 0.107938255625D-06 0.000000000000D+00  7 -2 21 23 -11 11 23 -2 2 0.22452843D-01 0.42103015D+00 0.35118927D+06 0.35118927D+06 0.35118927D+06 0.10795259D+01  1  2 12  4  7  2        2 0.868418529882D-06 0.100000000000D+01
-.493345242534D-05 0.000000000000D+00 -.514575961697D-06 0.107938255625D-06 0.000000000000D+00  7 -2 21 23 -11 11 23 -2 2 0.22452843D-01 0.42072676D+00 0.34444882D+06 0.34444882D+06 0.34444882D+06 0.10801403D+01  1  2  5  4  7  2        2 -.277845358338D-05 0.100000000000D+01
  </mgrwgt>
  </event>
  <event>
  8     66 0.27870365E-05 0.21799547E+03 0.75467711E-02 0.95357765E-01
       -2 -1    0    0    0  501 0.00000000E+00 0.00000000E+00 0.60338476E+03 0.60338484E+03 0.32000000E+00 0.0000E+00 0.9000E+01
        2 -1    0    0  501    0 0.00000000E+00 0.00000000E+00 -.96300214E+02 0.96300745E+02 0.32000000E+00 0.0000E+00 0.9000E+01
       25  2    1    2    0    0 0.99417308E+02 0.24134970E+02 0.45198874E+03 0.55197947E+03 0.29986866E+03 0.0000E+00 0.0000E+00
       23  2    3    3    0    0 0.12960373E+03 0.10512353E+03 0.28309961E+03 0.34148207E+03 0.92825270E+02 0.0000E+00 0.0000E+00
       23  1    1    2    0    0 -.99417308E+02 -.24134970E+02 0.55095800E+02 0.14770611E+03 0.91188000E+02 0.0000E+00 0.9000E+01
      -11  1    4    4    0    0 0.45327940E+02 0.10377931E+02 0.22475607E+02 0.51647619E+02 0.51099893E-03 0.0000E+00 0.9000E+01
       11  1    4    4    0    0 0.84275789E+02 0.94745597E+02 0.26062401E+03 0.28983445E+03 0.51099893E-03 0.0000E+00 0.9000E+01
       23  1    3    3    0    0 -.30186422E+02 -.80988557E+02 0.16888913E+03 0.21049740E+03 0.91188000E+02 0.0000E+00 0.9000E+01
#aMCatNLO 1  0  0  2  1 0.37011792D+03 0.00000000D+00  -5  7  0 0.00000000D+00 0.00000000D+00 0.00000000D+00 0.00000000D+00 0.00000000D+00
  <mgrwgt>
 0.4764426631D-03    3    2    0
 0.241052476672527D+03 0.000000000000000D+00 0.000000000000000D+00 0.241052476672527D+03
 0.241052476672527D+03 0.000000000000000D+00 0.000000000000000D+00 -.241052476672527D+03
 0.156417415838662D+03 -.994173077183706D+02 -.241349702250040D+02 -.753980024398118D+02
 0.513167546127659D+02 0.453279404383869D+02 0.103779305921695D+02 -.217045082004866D+02
 0.146512875932050D+03 0.842757888767609D+02 0.947455965088428D+02 0.733954097015838D+02
 0.127857906961577D+03 -.301864215967772D+02 -.809885568760083D+02 0.237071009387146D+02
 0.000000000000000D+00 -.000000000000000D+00 0.000000000000000D+00 0.000000000000000D+00
 0.796105470208521D+03 0.000000000000000D+00 0.000000000000000D+00 0.796105470208521D+03
 0.373474365623378D+03 0.000000000000000D+00 0.000000000000000D+00 -.373474365623378D+03
 0.139039362525823D+03 -.113115261053203D+02 -.721379483548158D+02 -.753980024398118D+02
 0.914413053485592D+02 0.878986694772681D+02 -.128160271437535D+02 -.217045082004866D+02
 0.206724237513983D+03 0.189611777941486D+03 0.373550247803792D+02 0.733954097015838D+02
 0.170588203001839D+03 0.588107844692248D+02 -.129477212877760D+03 0.237071009387146D+02
 0.561786727441694D+03 -.325009705782659D+03 0.177076163595950D+03 0.422631104585143D+03
0.934759806157D-05 0.000000000000D+00 0.000000000000D+00 0.749093220342D-07 0.000000000000D+00  7 -2 2 23 -11 11 23 21 0 0.92828471D-01 0.14815465D-01 0.47522027D+05 0.47522027D+05 0.47522027D+05 0.11492422D+01  1  2  2  2  7  2        2 0.471113423869D-03 0.100000000000D+01
-.512928517766D-06 0.000000000000D+00 -.358972378355D-07 0.749093220342D-07 0.000000000000D+00  7 -2 2 23 -11 11 23 21 2 0.92828471D-01 0.14815465D-01 0.47522027D+05 0.47522027D+05 0.47522027D+05 0.11492422D+01  1  2  3  2  7  2        2 -.341432930394D-04 0.100000000000D+01
0.592988715574D-06 0.000000000000D+00 0.000000000000D+00 0.749093220342D-07 0.000000000000D+00  7 -2 2 23 -11 11 23 21 2 0.92828471D-01 0.14815465D-01 0.47522027D+05 0.47522027D+05 0.47522027D+05 0.11492422D+01  1  2 15  2  7  2        2 0.394725322997D-04 0.100000000000D+01
  </mgrwgt>
  </event>
  <event>
  8     66 0.27870365E-05 0.20069078E+03 0.75467711E-02 0.10576818E+00
       -2 -1    0    0    0  501 0.00000000E+00 0.00000000E+00 0.49291229E+02 0.49292268E+02 0.32000000E+00 0.0000E+00 0.9000E+01
        2 -1    0    0  501    0 0.00000000E+00 0.00000000E+00 -.14487063E+04 0.14487063E+04 0.32000000E+00 0.0000E+00 0.9000E+01
       25  2    1    2    0    0 -.16192336E+02 0.81595585E+02 -.13083918E+04 0.13446346E+04 0.29871901E+03 0.0000E+00 0.0000E+00
       23  2    3    3    0    0 0.66710168E+02 0.12495180E+03 -.56195470E+03 0.58685086E+03 0.92399384E+02 0.0000E+00 0.0000E+00
       23  1    1    2    0    0 0.16192336E+02 -.81595585E+02 -.91023253E+02 0.15336400E+03 0.91188000E+02 0.0000E+00 0.9000E+01
      -13  1    4    4    0    0 0.81466927E+02 0.80483294E+02 -.30779340E+03 0.32840708E+03 0.10565837E+00 0.0000E+00 0.9000E+01
       13  1    4    4    0    0 -.14756759E+02 0.44468510E+02 -.25416130E+03 0.25844378E+03 0.10565837E+00 0.0000E+00 0.9000E+01
       23  1    3    3    0    0 -.82902504E+02 -.43356219E+02 -.74643711E+03 0.75778374E+03 0.91188000E+02 0.0000E+00 0.9000E+01
#aMCatNLO 1  0  0  2  1 0.53086819D+00 0.00000000D+00  -5  7  0 0.00000000D+00 0.00000000D+00 0.00000000D+00 0.00000000D+00 0.00000000D+00
  <mgrwgt>
 0.7142434112D-03   10    2    0
 0.267225220207992D+03 0.000000000000000D+00 0.000000000000000D+00 0.267225220207992D+03
 0.267225220207992D+03 0.000000000000000D+00 0.000000000000000D+00 -.267225220207992D+03
 0.191523351522975D+03 0.161923364802080D+02 -.815955857289908D+02 0.146444226459932D+03
 0.114552548361766D+03 0.814670507880931D+02 0.804833412770788D+02 -.279959799652685D+01
 0.588852159882231D+02 -.147568827407162D+02 0.444684628032764D+02 -.356687382685462D+02
 0.169489324543021D+03 -.829025045275849D+02 -.433562183513645D+02 -.107975890194858D+03
 0.000000000000000D+00 -.000000000000000D+00 -.000000000000000D+00 -.000000000000000D+00
 0.267479344784649D+03 0.000000000000000D+00 0.000000000000000D+00 0.267479344784649D+03
 0.267502742860100D+03 0.000000000000000D+00 0.000000000000000D+00 -.267502742860100D+03
 0.191502042209845D+03 0.163629666491553D+02 -.815114880586311D+02 0.146444226459932D+03
 0.114660530893258D+03 0.815691606405419D+02 0.805336676687404D+02 -.279959799652685D+01
 0.588916243796756D+02 -.147044155087810D+02 0.444943220754274D+02 -.356687382685462D+02
 0.169396506588113D+03 -.827515376528922D+02 -.432818120342316D+02 -.107975890194858D+03
 0.531383573855990D+00 -.476174128024044D+00 -.234689651305094D+00 -.233980754507606D-01
0.110894891143D-05 0.000000000000D+00 0.000000000000D+00 0.297339548547D-07 0.000000000000D+00  7 -2 2 23 -13 13 23 21 0 0.75833486D-02 0.22287797D+00 0.43148974D+05 0.43148974D+05 0.43148974D+05 0.11529677D+01  1  2  2  2  7  2        2 0.181524132758D-03 0.100000000000D+01
-.568557449823D-07 0.000000000000D+00 -.425865581283D-08 0.297339548547D-07 0.000000000000D+00  7 -2 2 23 -13 13 23 21 2 0.75833486D-02 0.22287797D+00 0.43148974D+05 0.43148974D+05 0.43148974D+05 0.11529677D+01  1  2  3  2  7  2        2 -.123717587167D-04 0.100000000000D+01
0.670473179322D-07 0.000000000000D+00 0.000000000000D+00 0.297339548547D-07 0.000000000000D+00  7 -2 2 23 -13 13 23 21 2 0.75833486D-02 0.22287797D+00 0.43148974D+05 0.43148974D+05 0.43148974D+05 0.11529677D+01  1  2 15  2  7  2        2 0.145894357785D-04 0.100000000000D+01
-.781063898702D-04 0.000000000000D+00 0.000000000000D+00 0.297339548547D-07 0.000000000000D+00  7 -2 2 23 -13 13 23 21 2 0.75833486D-02 0.22287797D+00 0.43148974D+05 0.43148974D+05 0.43148974D+05 0.11529677D+01  1  2  4  2  7  2        2 -.169958798360D-01 0.100000000000D+01
-.927625695414D-03 0.000000000000D+00 -.731336622093D-04 0.297339548547D-07 0.000000000000D+00  7 -2 2 23 -13 13 23 21 2 0.75833486D-02 0.22324219D+00 0.43148974D+05 0.43148974D+05 0.43148974D+05 0.11529677D+01  1  2  5  2  7  2        2 -.201264791048D+00 0.100000000000D+01
0.927743970903D-03 0.000000000000D+00 0.731335647175D-04 0.297339548547D-07 0.000000000000D+00  7 -2 2 23 -13 13 23 21 2 0.75833486D-02 0.22287797D+00 0.43148974D+05 0.43148974D+05 0.43148974D+05 0.11529677D+01  1  2  6  2  7  2        2 0.201876249488D+00 0.100000000000D+01
0.781064394092D-04 0.000000000000D+00 0.000000000000D+00 0.297339548547D-07 0.747899382020D-06  7 -2 2 23 -13 13 23 21 2 0.75905602D-02 0.22310944D+00 0.43251532D+05 0.43251532D+05 0.43251532D+05 0.11528756D+01  1  2 11  2  7  2        2 0.169375995274D-01 0.100000000000D+01
0.320987839952D-17 0.000000000000D+00 0.000000000000D+00 0.297339548547D-07 0.000000000000D+00  7 -2 21 23 -13 13 23 -2 2 0.75833486D-02 0.22321531D+00 0.43251532D+05 0.43251532D+05 0.43251532D+05 0.11528756D+01  1  2 12  4  7  2        2 0.285794323668D-15 0.100000000000D+01
-.283230303996D-06 0.000000000000D+00 -.223355239398D-07 0.297339548547D-07 0.000000000000D+00  7 -2 21 23 -13 13 23 -2 2 0.75833486D-02 0.22324219D+00 0.43148974D+05 0.43148974D+05 0.43148974D+05 0.11529677D+01  1  2  5  4  7  2        2 -.252143129184D-04 0.100000000000D+01
0.284954669888D-07 0.000000000000D+00 0.000000000000D+00 0.297339548547D-07 0.145422217395D-09  7 -2 21 23 -13 13 23 -2 2 0.75905602D-02 0.22310944D+00 0.43251532D+05 0.43251532D+05 0.43251532D+05 0.11528756D+01  1  2 11  4  7  2        2 0.253778283694D-05 0.100000000000D+01
  </mgrwgt>
  </event>
  <event>
  8     66 0.27870365E-05 0.35624111E+03 0.75467711E-02 0.96521067E-01
       -2 -1    0    0    0  501 0.00000000E+00 0.00000000E+00 0.59215875E+03 0.59215884E+03 0.32000000E+00 0.0000E+00 0.9000E+01
        2 -1    0    0  501    0 0.00000000E+00 0.00000000E+00 -.26276869E+03 0.26276888E+03 0.32000000E+00 0.0000E+00 0.9000E+01
       25  2    1    2    0    0 -.15029799E+02 -.32511351E+03 0.24960387E+03 0.50764430E+03 0.29912531E+03 0.0000E+00 0.0000E+00
       23  2    3    3    0    0 -.17679035E+02 -.53694368E+02 0.18513147E+03 0.21413568E+03 0.91568506E+02 0.0000E+00 0.0000E+00
       23  1    1    2    0    0 0.15029799E+02 0.32511351E+03 0.79786196E+02 0.34728343E+03 0.91188000E+02 0.0000E+00 0.9000E+01
      -13  1    4    4    0    0 0.16958185E+02 -.50607885E+02 0.16616159E+03 0.17452342E+03 0.10565837E+00 0.0000E+00 0.9000E+01
       13  1    4    4    0    0 -.34637220E+02 -.30864829E+01 0.18969887E+02 0.39612261E+02 0.10565837E+00 0.0000E+00 0.9000E+01
       23  1    3    3    0    0 0.26492359E+01 -.27141914E+03 0.64472391E+02 0.29350862E+03 0.91188000E+02 0.0000E+00 0.9000E+01
#aMCatNLO 1  0  0  2  1 0.11849484D+03 0.00000000D+00  -5  7  0 0.00000000D+00 0.00000000D+00 0.00000000D+00 0.00000000D+00 0.00000000D+00
  <mgrwgt>
 0.4722930650D-03    3    2    0
 0.394462798167073D+03 0.000000000000000D+00 0.000000000000000D+00 0.394462798167073D+03
 0.394462798167073D+03 0.000000000000000D+00 0.000000000000000D+00 -.394462798167073D+03
 0.343025311274614D+03 0.150297990592615D+02 0.325113510627298D+03 -.585356573284865D+02
 0.119748959160467D+03 0.169582538925565D+02 -.506079481795801D+02 0.107196391851516D+03
 0.350058844576212D+02 -.346372888399214D+02 -.308641966903502D+01 0.401798234276603D+01
 0.291145441441443D+03 0.264923588810342D+01 -.271419142778683D+03 -.526787168657957D+02
 0.000000000000000D+00 -.000000000000000D+00 0.000000000000000D+00 0.000000000000000D+00
 0.130105378252964D+04 0.000000000000000D+00 0.000000000000000D+00 0.130105378252964D+04
 0.402778316723729D+03 0.000000000000000D+00 0.000000000000000D+00 -.402778316723729D+03
 0.304041880662659D+03 0.363399677657485D+02 0.281743140851366D+03 -.585356573284865D+02
 0.129037560195509D+03 0.251516575536240D+02 -.672831304082314D+02 0.107196391851516D+03
 0.335203514761246D+02 -.323804820248569D+02 -.767946383636688D+01 0.401798234276603D+01
 0.331175002412147D+03 0.231444082801870D+02 -.313130835328332D+03 -.526787168657957D+02
 0.906057304506927D+03 -.522555515747026D+02 0.106350288721564D+03 0.898275465805908D+03
0.286543774187D-04 0.000000000000D+00 0.000000000000D+00 0.176408784516D-06 0.000000000000D+00  7 -2 2 23 -13 13 23 21 0 0.91101368D-01 0.40425974D-01 0.12690773D+06 0.12690773D+06 0.12690773D+06 0.11133273D+01  1  2  2  2  7  2        2 0.467981394713D-03 0.100000000000D+01
-.157180533560D-05 0.000000000000D+00 -.110040354159D-06 0.176408784516D-06 0.000000000000D+00  7 -2 2 23 -13 13 23 21 2 0.91101368D-01 0.40425974D-01 0.12690773D+06 0.12690773D+06 0.12690773D+06 0.11133273D+01  1  2  3  2  7  2        2 -.318186747141D-04 0.100000000000D+01
0.178479680792D-05 0.000000000000D+00 0.000000000000D+00 0.176408784516D-06 0.000000000000D+00  7 -2 2 23 -13 13 23 21 2 0.91101368D-01 0.40425974D-01 0.12690773D+06 0.12690773D+06 0.12690773D+06 0.11133273D+01  1  2 15  2  7  2        2 0.361303450089D-04 0.100000000000D+01
  </mgrwgt>
  </event>
  <event>
  8     66 0.27870365E-05 0.25797195E+03 0.75467711E-02 0.94374657E-01
       -2 -1    0    0    0  501 0.00000000E+00 0.00000000E+00 0.19556236E+03 0.19556263E+03 0.32000000E+00 0.0000E+00 0.9000E+01
        2 -1    0    0  501    0 0.00000000E+00 0.00000000E+00 -.57537477E+03 0.57537486E+03 0.32000000E+00 0.0000E+00 0.9000E+01
       25  2    1    2    0    0 -.41361182E+02 -.17251709E+03 -.78470907E+01 0.34886363E+03 0.30028546E+03 0.0000E+00 0.0000E+00
       23  2    3    3    0    0 -.31550612E+02 0.27005531E+02 0.60573321E+02 0.11885900E+03 0.93453705E+02 0.0000E+00 0.0000E+00
       23  1    1    2    0    0 0.41361182E+02 0.17251709E+03 -.37196532E+03 0.42207386E+03 0.91188000E+02 0.0000E+00 0.9000E+01
      -11  1    4    4    0    0 0.29053015E+01 -.30071290E+02 0.37835992E+02 0.48417822E+02 0.51099893E-03 0.0000E+00 0.9000E+01
       11  1    4    4    0    0 -.34455913E+02 0.57076821E+02 0.22737329E+02 0.70441178E+02 0.51099893E-03 0.0000E+00 0.9000E+01
       23  1    3    3    0    0 -.98105702E+01 -.19952262E+03 -.68420411E+02 0.23000463E+03 0.91188000E+02 0.0000E+00 0.9000E+01
#aMCatNLO 1  0  0  1  1 0.37790174D+03 0.00000000D+00  -5  7  0 0.00000000D+00 0.00000000D+00 0.00000000D+00 0.00000000D+00 0.00000000D+00
  <mgrwgt>
 0.4397822454D-03    5    2    0
 0.335442670199646D+03 0.000000000000000D+00 0.000000000000000D+00 0.335442670199646D+03
 0.335442670199646D+03 0.000000000000000D+00 0.000000000000000D+00 -.335442670199646D+03
 0.274436636494483D+03 0.413611819313432D+02 0.172517090704797D+03 -.188486928327670D+03
 0.770589100976742D+02 0.290530146765493D+01 -.300712900412681D+02 0.708897197347923D+02
 0.938188099426236D+02 -.344559132129611D+02 0.570768208209879D+02 0.660075425135634D+02
 0.225570983864512D+03 -.981057018603702D+01 -.199522621484516D+03 0.515896660793145D+02
 0.000000000000000D+00 0.000000000000000D+00 -.000000000000000D+00 0.000000000000000D+00
 0.815273457520674D+03 0.000000000000000D+00 0.000000000000000D+00 0.815273457520674D+03
 0.467974930266898D+03 0.000000000000000D+00 0.000000000000000D+00 -.467974930266898D+03
 0.316055263207791D+03 -.108842679671229D+03 0.210241829779261D+03 -.188486928327670D+03
 0.827297620045854D+02 -.377402613287320D+02 -.198628757257588D+02 0.708897197347923D+02
 0.134334661601342D+03 -.924914806461721D+02 0.716528551192892D+02 0.660075425135634D+02
 0.236878279478906D+03 -.127444131602322D+03 -.169978138649773D+03 0.515896660793145D+02
 0.513250421494949D+03 0.366518553248455D+03 -.920536705230191D+02 0.347298527253775D+03
0.665373005927D-05 0.000000000000D+00 0.000000000000D+00 0.130275973323D-06 0.000000000000D+00  7 -2 2 23 -11 11 23 21 0 0.30086544D-01 0.88519222D-01 0.66549526D+05 0.66549526D+05 0.66549526D+05 0.11365306D+01  1  2  2  1  7  1       -2 0.422968655038D-03 0.100000000000D+01
-.338658620217D-06 0.000000000000D+00 -.255520753949D-07 0.130275973323D-06 0.000000000000D+00  7 -2 2 23 -11 11 23 21 2 0.30086544D-01 0.88519222D-01 0.66549526D+05 0.66549526D+05 0.66549526D+05 0.11365306D+01  1  2  3  1  7  1       -2 -.278078491543D-04 0.100000000000D+01
0.422412271812D-06 0.000000000000D+00 0.000000000000D+00 0.130275973323D-06 0.000000000000D+00  7 -2 2 23 -11 11 23 21 2 0.30086544D-01 0.88519222D-01 0.66549526D+05 0.66549526D+05 0.66549526D+05 0.11365306D+01  1  2 15  1  7  1       -2 0.346850073622D-04 0.100000000000D+01
0.131799967442D-06 0.000000000000D+00 -.216986161285D-05 0.130275973323D-06 0.000000000000D+00  7 -2 2 23 -11 11 23 21 2 0.95724610D-01 0.88519222D-01 0.66549526D+05 0.66549526D+05 0.66549526D+05 0.11365306D+01  1  2  5  1  7  1       -2 0.106256783798D-05 0.100000000000D+01
0.112793517037D-06 0.000000000000D+00 -.288914269256D-06 0.130275973323D-06 0.000000000000D+00  7 21 2 23 -11 11 23 2 2 0.95724610D-01 0.88519222D-01 0.66549526D+05 0.66549526D+05 0.66549526D+05 0.11365306D+01  1  2  5  3  7  1       -2 0.887386434017D-05 0.100000000000D+01
  </mgrwgt>
  </event>
  <event>
  8     66 0.27870365E-05 0.19317202E+03 0.75467711E-02 0.10259488E+00
       -2 -1    0    0    0  501 0.00000000E+00 0.00000000E+00 0.30385624E+02 0.30387309E+02 0.32000000E+00 0.0000E+00 0.9000E+01
        2 -1    0    0  501    0 0.00000000E+00 0.00000000E+00 -.22236556E+04 0.22236556E+04 0.32000000E+00 0.0000E+00 0.9000E+01
       25  2    1    2    0    0 -.11032310E+03 0.10917659E+03 -.15204868E+04 0.15575926E+04 0.30020602E+03 0.0000E+00 0.0000E+00
       23  2    3    3    0    0 -.85321033E+02 -.50601241E+02 -.85350740E+03 0.86525530E+03 0.10174328E+03 0.0000E+00 0.0000E+00
       23  1    1    2    0    0 0.11032310E+03 -.10917659E+03 -.67278311E+03 0.69645034E+03 0.91188000E+02 0.0000E+00 0.9000E+01
      -11  1    4    4    0    0 -.74071265E+01 -.58342654E+02 -.48284914E+03 0.48641754E+03 0.51099893E-03 0.0000E+00 0.9000E+01
       11  1    4    4    0    0 -.77913907E+02 0.77414134E+01 -.37065826E+03 0.37883776E+03 0.51099893E-03 0.0000E+00 0.9000E+01
       23  1    3    3    0    0 -.25002063E+02 0.15977783E+03 -.66697945E+03 0.69233727E+03 0.91188000E+02 0.0000E+00 0.9000E+01
#aMCatNLO 1  0  0  2  1 0.20270589D+02 0.00000000D+00  -5  7  0 0.00000000D+00 0.00000000D+00 0.00000000D+00 0.00000000D+00 0.00000000D+00
  <mgrwgt>
 0.5826032830D-03    9    2    0
 0.259940547073500D+03 0.000000000000000D+00 0.000000000000000D+00 0.259940547073500D+03
 0.259940547073500D+03 0.000000000000000D+00 0.000000000000000D+00 -.259940547073500D+03
 0.181260628135715D+03 0.110323096297124D+03 -.109176590198324D+03 0.212002486833758D+02
 0.719154746182343D+02 -.740712693331849D+01 -.583426543185268D+02 -.413896683633549D+02
 0.787929266957300D+02 -.779139063234753D+02 0.774141266672109D+01 -.882150942973664D+01
 0.187912064697320D+03 -.250020630403298D+02 0.159777831850129D+03 0.290109291097158D+02
 0.000000000000000D+00 0.000000000000000D+00 -.000000000000000D+00 -.000000000000000D+00
 0.263443334840426D+03 0.000000000000000D+00 0.000000000000000D+00 0.263443334840426D+03
 0.291216965246895D+03 0.000000000000000D+00 0.000000000000000D+00 -.291216965246895D+03
 0.177078325041831D+03 0.103339850879665D+03 -.109146262105269D+03 0.212002486833758D+02
 0.722490476006038D+02 -.102165793532065D+02 -.583304529237125D+02 -.413896683633549D+02
 0.818920069245367D+02 -.810453055654728D+02 0.775501227004673D+01 -.882150942973664D+01
 0.189056747918285D+03 -.323483638258835D+02 0.159809736685276D+03 0.290109291097158D+02
 0.343841726020646D+02 0.202703978648978D+02 -.880339263413896D-01 -.277736304064688D+02
0.225414088706D-05 0.000000000000D+00 0.000000000000D+00 0.266354870569D-08 0.000000000000D+00  7 -2 2 23 -11 11 23 21 0 0.46748428D-02 0.34210099D+00 0.63197992D+05 0.63197992D+05 0.63197992D+05 0.11384531D+01  1  2  2  2  7  2        2 0.292863102837D-03 0.100000000000D+01
-.125059795197D-06 0.000000000000D+00 -.865649453523D-08 0.266354870569D-08 0.000000000000D+00  7 -2 2 23 -11 11 23 21 2 0.46748428D-02 0.34210099D+00 0.63197992D+05 0.63197992D+05 0.63197992D+05 0.11384531D+01  1  2  3  2  7  2        2 -.210587005066D-04 0.100000000000D+01
0.144051362329D-06 0.000000000000D+00 0.000000000000D+00 0.266354870569D-08 0.000000000000D+00  7 -2 2 23 -11 11 23 21 2 0.46748428D-02 0.34210099D+00 0.63197992D+05 0.63197992D+05 0.63197992D+05 0.11384531D+01  1  2 15  2  7  2        2 0.242566725147D-04 0.100000000000D+01
0.927042925535D-05 0.000000000000D+00 0.000000000000D+00 0.266354870569D-08 0.000000000000D+00  7 -2 2 23 -11 11 23 21 2 0.46748428D-02 0.38539345D+00 0.68520070D+05 0.68520070D+05 0.68520070D+05 0.11354494D+01  1  2 12  2  7  2        2 0.108269677640D-02 0.100000000000D+01
-.943143083457D-05 0.000000000000D+00 0.000000000000D+00 0.266354870569D-08 0.000000000000D+00  7 -2 2 23 -11 11 23 21 2 0.46748428D-02 0.34210099D+00 0.63197992D+05 0.63197992D+05 0.63197992D+05 0.11384531D+01  1  2  4  2  7  2        2 -.158814970855D-02 0.100000000000D+01
-.153667751078D-04 0.000000000000D+00 -.185996672351D-05 0.266354870569D-08 0.000000000000D+00  7 -2 2 23 -11 11 23 21 2 0.46748428D-02 0.38488444D+00 0.63197992D+05 0.63197992D+05 0.63197992D+05 0.11384531D+01  1  2  5  2  7  2        2 -.181491490712D-02 0.100000000000D+01
0.154911112156D-04 0.000000000000D+00 0.184712764458D-05 0.266354870569D-08 0.000000000000D+00  7 -2 2 23 -11 11 23 21 2 0.46748428D-02 0.34210099D+00 0.63197992D+05 0.63197992D+05 0.63197992D+05 0.11384531D+01  1  2  6  2  7  2        2 0.260853355059D-02 0.100000000000D+01
0.174856993897D-06 0.000000000000D+00 0.000000000000D+00 0.266354870569D-08 0.000000000000D+00  7 -2 21 23 -11 11 23 -2 2 0.46748428D-02 0.38539345D+00 0.68520070D+05 0.68520070D+05 0.68520070D+05 0.11354494D+01  1  2 12  4  7  2        2 0.259006224787D-05 0.100000000000D+01
-.278815280461D-06 0.000000000000D+00 -.347542174144D-07 0.266354870569D-08 0.000000000000D+00  7 -2 21 23 -11 11 23 -2 2 0.46748428D-02 0.38488444D+00 0.63197992D+05 0.63197992D+05 0.63197992D+05 0.11384531D+01  1  2  5  4  7  2        2 -.421356540611D-05 0.100000000000D+01
  </mgrwgt>
  </event>
  <event>
  8     66 0.27870365E-05 0.49445302E+03 0.75467711E-02 0.89513354E-01
       -2 -1    0    0    0  501 0.00000000E+00 0.00000000E+00 0.98997717E+03 0.98997723E+03 0.32000000E+00 0.0000E+00 0.9000E+01
        2 -1    0    0  501    0 0.00000000E+00 0.00000000E+00 -.55636750E+03 0.55636759E+03 0.32000000E+00 0.0000E+00 0.9000E+01
       25  2    1    2    0    0 0.56952147E+03 -.12522077E+03 0.64483150E+03 0.91947573E+03 0.29932091E+03 0.0000E+00 0.0000E+00
       23  2    3    3    0    0 0.10003531E+03 0.47535975E+02 0.19082552E+03 0.23778751E+03 0.88666731E+02 0.0000E+00 0.0000E+00
       23  1    1    2    0    0 -.56952147E+03 0.12522077E+03 -.21122183E+03 0.62686909E+03 0.91188000E+02 0.0000E+00 0.9000E+01
      -13  1    4    4    0    0 -.50439294E+01 -.39974087E+01 -.59969745E+01 0.87974637E+01 0.10565837E+00 0.0000E+00 0.9000E+01
       13  1    4    4    0    0 0.10507924E+03 0.51533383E+02 0.19682250E+03 0.22899005E+03 0.10565837E+00 0.0000E+00 0.9000E+01
       23  1    3    3    0    0 0.46948616E+03 -.17275674E+03 0.45400598E+03 0.68168821E+03 0.91188000E+02 0.0000E+00 0.9000E+01
#aMCatNLO 1  0  0  1  2 0.34766152D+03 0.00000000D+00  -5  7  0 0.00000000D+00 0.00000000D+00 0.00000000D+00 0.00000000D+00 0.00000000D+00
  <mgrwgt>
 0.6274118874D-03    9    2    0
 0.742153109963161D+03 0.000000000000000D+00 0.000000000000000D+00 0.742153109963161D+03
 0.742153109963161D+03 0.000000000000000D+00 0.000000000000000D+00 -.742153109963161D+03
 0.714774070701786D+03 -.569521470850418D+03 0.125220770371994D+03 -.403177099686258D+03
 0.109168173405852D+02 -.504408576968105D+01 -.399748753777154D+01 -.881783380321743D+01
 0.181063581281564D+03 0.105079400683100D+03 0.515334621275523D+02 0.138154414695058D+03
 0.577551750602388D+03 0.469486155936998D+03 -.172756744961775D+03 0.273840518794417D+03
 0.000000000000000D+00 -.000000000000000D+00 -.000000000000000D+00 0.000000000000000D+00
 0.994143196470997D+03 0.000000000000000D+00 0.000000000000000D+00 0.994143196470997D+03
 0.892539148187823D+03 0.000000000000000D+00 0.000000000000000D+00 -.892539148187823D+03
 0.629060667255059D+03 -.431560851153597D+03 0.196482899468477D+03 -.403177099686258D+03
 0.973288670388222D+01 -.292414803770812D+01 -.290245566081744D+01 -.881783380321743D+01
 0.213370713884325D+03 0.145572772564154D+03 0.724498939388980D+02 0.138154414695058D+03
 0.672313834635609D+03 0.597799724418885D+03 -.106477700245383D+03 0.273840518794417D+03
 0.362204242179947D+03 -.308887497791734D+03 -.159552637501174D+03 0.101604048283174D+03
0.274030649731D-03 0.000000000000D+00 0.000000000000D+00 0.263213916985D-06 0.000000000000D+00  7 -2 2 23 -13 13 23 21 0 0.15230419D+00 0.85595011D-01 0.37343643D+06 0.37343643D+06 0.37343643D+06 0.10775856D+01  1  2  2  1  7  1       -2 0.508954434290D-03 0.100000000000D+01
-.145250945717D-04 0.000000000000D+00 -.105234984890D-05 0.263213916985D-06 0.000000000000D+00  7 -2 2 23 -13 13 23 21 2 0.15230419D+00 0.85595011D-01 0.37343643D+06 0.37343643D+06 0.37343643D+06 0.10775856D+01  1  2  3  1  7  1       -2 -.313258101899D-04 0.100000000000D+01
0.172224561730D-04 0.000000000000D+00 0.000000000000D+00 0.263213916985D-06 0.000000000000D+00  7 -2 2 23 -13 13 23 21 2 0.15230419D+00 0.85595011D-01 0.37343643D+06 0.37343643D+06 0.37343643D+06 0.10775856D+01  1  2 15  1  7  1       -2 0.371431242953D-04 0.100000000000D+01
0.645015178146D-04 0.000000000000D+00 0.000000000000D+00 0.263213916985D-06 0.000000000000D+00  7 -2 2 23 -13 13 23 21 2 0.21517489D+00 0.85595011D-01 0.64905273D+06 0.64905273D+06 0.64905273D+06 0.10605932D+01  1  2 12  1  7  1       -2 0.463139678658D-04 0.100000000000D+01
-.129789050421D-03 0.000000000000D+00 0.000000000000D+00 0.263213916985D-06 0.000000000000D+00  7 -2 2 23 -13 13 23 21 2 0.15230419D+00 0.85595011D-01 0.37343643D+06 0.37343643D+06 0.37343643D+06 0.10775856D+01  1  2  4  1  7  1       -2 -.279911923337D-03 0.100000000000D+01
-.192237369747D-03 0.000000000000D+00 -.995482292944D-04 0.263213916985D-06 0.000000000000D+00  7 -2 2 23 -13 13 23 21 2 0.22849553D+00 0.85595011D-01 0.37343643D+06 0.37343643D+06 0.37343643D+06 0.10775856D+01  1  2  5  1  7  1       -2 -.119777688742D-03 0.100000000000D+01
0.221783586967D-03 0.000000000000D+00 0.918846024619D-04 0.263213916985D-06 0.000000000000D+00  7 -2 2 23 -13 13 23 21 2 0.15230419D+00 0.85595011D-01 0.37343643D+06 0.37343643D+06 0.37343643D+06 0.10775856D+01  1  2  6  1  7  1       -2 0.478313618839D-03 0.100000000000D+01
0.276090585476D-05 0.000000000000D+00 0.000000000000D+00 0.263213916985D-06 0.000000000000D+00  7 21 2 23 -13 13 23 2 2 0.21517489D+00 0.85595011D-01 0.64905273D+06 0.64905273D+06 0.64905273D+06 0.10605932D+01  1  2 12  3  7  1       -2 0.149347209633D-04 0.100000000000D+01
-.578246578312D-05 0.000000000000D+00 -.478746470240D-05 0.263213916985D-06 0.000000000000D+00  7 21 2 23 -13 13 23 2 2 0.22849553D+00 0.85595011D-01 0.37343643D+06 0.37343643D+06 0.37343643D+06 0.10775856D+01  1  2  5  3  7  1       -2 -.272325565732D-04 0.100000000000D+01
  </mgrwgt>
  </event>
  <event>
  8     66 0.27870365E-05 0.82238965E+02 0.75467711E-02 0.10225620E+00
       -2 -1    0    0    0  501 0.00000000E+00 0.00000000E+00 0.26429870E+02 0.26431807E+02 0.32000000E+00 0.0000E+00 0.9000E+01
        2 -1    0    0  501    0 0.00000000E+00 0.00000000E+00 -.25242569E+04 0.25242569E+04 0.32000000E+00 0.0000E+00 0.9000E+01
       25  2    1    2    0    0 0.13624704E+03 0.21881126E+02 -.12916972E+04 0.13332708E+04 0.30014542E+03 0.0000E+00 0.0000E+00
       23  2    3    3    0    0 0.16161129E+03 -.23854363E+02 -.48956497E+03 0.52427977E+03 0.92239801E+02 0.0000E+00 0.0000E+00
       23  1    1    2    0    0 -.13624704E+03 -.21881126E+02 -.12061298E+04 0.12174179E+04 0.91188000E+02 0.0000E+00 0.9000E+01
      -13  1    4    4    0    0 0.15283370E+03 -.47483644E+02 -.44730191E+03 0.47507036E+03 0.10565837E+00 0.0000E+00 0.9000E+01
       13  1    4    4    0    0 0.87775913E+01 0.23629281E+02 -.42263057E+02 0.49209412E+02 0.10565837E+00 0.0000E+00 0.9000E+01
       23  1    3    3    0    0 -.25364253E+02 0.45735488E+02 -.80213222E+03 0.80899099E+03 0.91188000E+02 0.0000E+00 0.9000E+01
#aMCatNLO 1  0  0  2  1 0.73813147D+02 0.00000000D+00  -5  7  0 0.00000000D+00 0.00000000D+00 0.00000000D+00 0.00000000D+00 0.00000000D+00
  <mgrwgt>
 0.8329846780D-03    9    2    0
 0.258298812186197D+03 0.000000000000000D+00 0.000000000000000D+00 0.258298812186197D+03
 0.258298812186197D+03 0.000000000000000D+00 0.000000000000000D+00 -.258298812186197D+03
 0.179154021713213D+03 -.136247042795021D+03 -.218811259668115D+02 -.688394640308491D+02
 0.182877161350355D+03 0.152833892117065D+03 -.474837355447618D+02 0.884937987806391D+02
 0.386219089878903D+02 0.877740337237781D+01 0.236293730190604D+02 0.292619509710743D+02
 0.115944532320936D+03 -.253642526944217D+02 0.457354884925129D+02 -.489162857208644D+02
 0.000000000000000D+00 -.000000000000000D+00 -.000000000000000D+00 -.000000000000000D+00
 0.289380138681389D+03 0.000000000000000D+00 0.000000000000000D+00 0.289380138681389D+03
 0.308785533488922D+03 0.000000000000000D+00 0.000000000000000D+00 -.308785533488922D+03
 0.161654303404852D+03 -.113578553058007D+03 -.133380261846644D+02 -.688394640308491D+02
 0.202776250137682D+03 0.178485203297133D+03 -.378164964169431D+02 0.884937987806391D+02
 0.413783889680389D+02 0.140985349279050D+02 0.256347539844527D+02 0.292619509710743D+02
 0.116035369665848D+03 -.993436545337688D+01 0.515505678320192D+02 -.489162857208644D+02
 0.763213599938900D+02 -.690708197136545D+02 -.260307992148644D+02 -.194053948075326D+02
0.435793187557D-05 0.000000000000D+00 0.000000000000D+00 0.164239360725D-06 0.000000000000D+00  7 -2 2 23 -13 13 23 21 0 0.40662844D-02 0.38834736D+00 0.51931167D+05 0.51931167D+05 0.51931167D+05 0.11458506D+01  1  2  2  2  7  2        2 0.475674211975D-03 0.100000000000D+01
-.237487217911D-06 0.000000000000D+00 -.167356058720D-07 0.164239360725D-06 0.000000000000D+00  7 -2 2 23 -13 13 23 21 2 0.40662844D-02 0.38834736D+00 0.51931167D+05 0.51931167D+05 0.51931167D+05 0.11458506D+01  1  2  3  2  7  2        2 -.340349695556D-04 0.100000000000D+01
0.281449248213D-06 0.000000000000D+00 0.000000000000D+00 0.164239360725D-06 0.000000000000D+00  7 -2 2 23 -13 13 23 21 2 0.40662844D-02 0.38834736D+00 0.51931167D+05 0.51931167D+05 0.51931167D+05 0.11458506D+01  1  2 15  2  7  2        2 0.403352933207D-04 0.100000000000D+01
0.261839957288D-05 0.000000000000D+00 0.000000000000D+00 0.164239360725D-06 0.000000000000D+00  7 -2 2 23 -13 13 23 21 2 0.40662844D-02 0.48387615D+00 0.72092654D+05 0.72092654D+05 0.72092654D+05 0.11335737D+01  1  2 12  2  7  2        2 0.154676324674D-03 0.100000000000D+01
-.265382619697D-05 0.000000000000D+00 0.000000000000D+00 0.164239360725D-06 0.000000000000D+00  7 -2 2 23 -13 13 23 21 2 0.40662844D-02 0.38834736D+00 0.51931167D+05 0.51931167D+05 0.51931167D+05 0.11458506D+01  1  2  4  2  7  2        2 -.380327390308D-03 0.100000000000D+01
-.656408959440D-05 0.000000000000D+00 -.194208643986D-05 0.164239360725D-06 0.000000000000D+00  7 -2 2 23 -13 13 23 21 2 0.40662844D-02 0.48211387D+00 0.51931167D+05 0.51931167D+05 0.51931167D+05 0.11458506D+01  1  2  5  2  7  2        2 -.407138910453D-03 0.100000000000D+01
0.686743176667D-05 0.000000000000D+00 0.189753263780D-05 0.164239360725D-06 0.000000000000D+00  7 -2 2 23 -13 13 23 21 2 0.40662844D-02 0.38834736D+00 0.51931167D+05 0.51931167D+05 0.51931167D+05 0.11458506D+01  1  2  6  2  7  2        2 0.984191204730D-03 0.100000000000D+01
0.805413093032D-07 0.000000000000D+00 0.000000000000D+00 0.164239360725D-06 0.000000000000D+00  7 -2 21 23 -13 13 23 -2 2 0.40662844D-02 0.48387615D+00 0.72092654D+05 0.72092654D+05 0.72092654D+05 0.11335737D+01  1  2 12  4  7  2        2 0.289715014467D-06 0.100000000000D+01
-.173813102377D-06 0.000000000000D+00 -.589885088872D-07 0.164239360725D-06 0.000000000000D+00  7 -2 21 23 -13 13 23 -2 2 0.40662844D-02 0.48211387D+00 0.51931167D+05 0.51931167D+05 0.51931167D+05 0.11458506D+01  1  2  5  4  7  2        2 -.680801389272D-06 0.100000000000D+01
  </mgrwgt>
  </event>
  <event>
  9     66 0.27870365E-05 0.41368152E+03 0.75467711E-02 0.96650729E-01
       -2 -1    0    0    0  502 0.00000000E+00 0.00000000E+00 0.13751168E+04 0.13751168E+04 0.32000000E+00 0.0000E+00 0.9000E+01
        2 -1    0    0  501    0 0.00000000E+00 0.00000000E+00 -.19176440E+03 0.19176467E+03 0.32000000E+00 0.0000E+00 0.9000E+01
       25  2    1    2    0    0 0.20874008E+03 -.34057269E+03 0.95183777E+03 0.10748300E+04 0.29950340E+03 0.0000E+00 0.0000E+00
       23  2    3    3    0    0 0.12168561E+03 -.14707630E+03 0.70935188E+03 0.73996590E+03 0.89053972E+02 0.0000E+00 0.0000E+00
       23  1    1    2    0    0 -.19723088E+03 0.34302582E+03 0.24491661E+03 0.47420052E+03 0.91188000E+02 0.0000E+00 0.9000E+01
      -13  1    4    4    0    0 0.47404269E+02 -.56739035E+02 0.44214897E+03 0.44828809E+03 0.10565837E+00 0.0000E+00 0.9000E+01
       13  1    4    4    0    0 0.74281342E+02 -.90337267E+02 0.26720291E+03 0.29167781E+03 0.10565837E+00 0.0000E+00 0.9000E+01
       23  1    3    3    0    0 0.87054473E+02 -.19349639E+03 0.24248589E+03 0.33486413E+03 0.91188000E+02 0.0000E+00 0.9000E+01
       21  1    1    2  501  502 -.11509204E+02 -.24531345E+01 -.13401998E+02 0.17850930E+02 0.75000000E+00 0.0000E+00 0.9000E+01
#aMCatNLO 2  0  0  1  1 0.11767738D+02 0.00000000D+00  -5  7  0 0.00000000D+00 0.00000000D+00 0.00000000D+00 0.00000000D+00 0.00000000D+00
  <mgrwgt>
 0.3046897490D-04    4    2    0
 0.491715396799980D+03 0.000000000000000D+00 0.000000000000000D+00 0.491715396799980D+03
 0.491715396799980D+03 0.000000000000000D+00 0.000000000000000D+00 -.491715396799980D+03
 0.450336261233547D+03 -.202492340325095D+03 0.341904366038380D+03 -.191274027069461D+03
 0.167639526020704D+03 0.454400484871508D+02 -.571576439384623D+02 0.150901346638576D+03
 0.133622246165287D+03 0.727139274041018D+02 -.906714091993954D+02 0.659263603236471D+02
 0.231832760180422D+03 0.843383644338420D+02 -.194075312900522D+03 -.255536798927619D+02
 0.000000000000000D+00 -.000000000000000D+00 -.000000000000000D+00 -.000000000000000D+00
 0.492544210062273D+03 0.000000000000000D+00 0.000000000000000D+00 0.492544210062273D+03
 0.535373860398211D+03 0.000000000000000D+00 0.000000000000000D+00 -.535373860398211D+03
 0.448851578287026D+03 -.197230878940132D+03 0.343025822567177D+03 -.191274027069461D+03
 0.168040739708211D+03 0.474042306949178D+02 -.567389874475217D+02 0.150901346638576D+03
 0.134256614974816D+03 0.742813799671702D+02 -.903373138251602D+02 0.659263603236471D+02
 0.232352264516522D+03 0.870544727658042D+02 -.193496386781154D+03 -.255536798927619D+02
 0.444168729739084D+02 -.115092044877603D+02 -.245313451334102D+01 -.428296503359377D+02
-.419035824049D-06 0.000000000000D+00 0.000000000000D+00 0.183292479809D-06 0.000000000000D+00  7 -2 2 23 -13 13 23 21 2 0.21119911D+00 0.27096227D-01 0.17113240D+06 0.17113240D+06 0.17113240D+06 0.11030629D+01  1  2  8  1  7  1       -2 -.134079888105D-05 0.100000000000D+01
-.209604943961D-05 0.000000000000D+00 0.000000000000D+00 0.183292479809D-06 0.000000000000D+00  7 -2 2 23 -13 13 23 21 2 0.22631969D+00 0.27096227D-01 0.17113240D+06 0.17113240D+06 0.17113240D+06 0.11030629D+01  1  2  9  1  7  1       -2 -.533404866739D-05 0.100000000000D+01
0.209104843778D-05 0.000000000000D+00 0.000000000000D+00 0.183292479809D-06 0.000000000000D+00  7 -2 2 23 -13 13 23 21 2 0.21119911D+00 0.27096227D-01 0.17113240D+06 0.17113240D+06 0.17113240D+06 0.11030629D+01  1  2 10  1  7  1       -2 0.669077736242D-05 0.100000000000D+01
0.105808825193D-04 0.000000000000D+00 0.000000000000D+00 0.183292479809D-06 0.860642437751D-08  7 -2 2 23 -13 13 23 21 2 0.21155509D+00 0.29502049D-01 0.17625645D+06 0.17625645D+06 0.17625645D+06 0.11020657D+01  1  2  1  1  7  1       -2 0.304530450811D-04 0.100000000000D+01
  </mgrwgt>
  </event>
  <event>
  9     66 0.27870365E-05 0.26625204E+03 0.75467711E-02 0.99044716E-01
       -2 -1    0    0    0  502 0.00000000E+00 0.00000000E+00 0.94081302E+02 0.94081847E+02 0.32000000E+00 0.0000E+00 0.9000E+01
        2 -1    0    0  501    0 0.00000000E+00 0.00000000E+00 -.31494275E+04 0.31494275E+04 0.32000000E+00 0.0000E+00 0.9000E+01
       25  2    1    2    0    0 -.48167010E+02 0.12642897E+03 -.10205776E+04 0.10725078E+04 0.30064914E+03 0.0000E+00 0.0000E+00
       23  2    3    3    0    0 0.58485275E+02 0.41848721E+02 -.17690161E+03 0.21307018E+03 0.94513903E+02 0.0000E+00 0.0000E+00
       23  1    1    2    0    0 0.24284025E+01 -.27292200E+03 -.19906152E+04 0.20113071E+04 0.91188000E+02 0.0000E+00 0.9000E+01
      -11  1    4    4    0    0 0.61676699E+02 0.24017308E+02 -.18248251E+03 0.19411521E+03 0.51099893E-03 0.0000E+00 0.9000E+01
       11  1    4    4    0    0 -.31914243E+01 0.17831413E+02 0.55809007E+01 0.18954971E+02 0.51099893E-03 0.0000E+00 0.9000E+01
       23  1    3    3    0    0 -.10665228E+03 0.84580251E+02 -.84367601E+03 0.85943760E+03 0.91188000E+02 0.0000E+00 0.9000E+01
       21  1    1    2  501  502 0.45738607E+02 0.14649303E+03 -.44153372E+02 0.15969443E+03 0.75000000E+00 0.0000E+00 0.9000E+01
#aMCatNLO 2  0  0  1  2 0.15346735D+03 0.00000000D+00  -5  7  0 0.00000000D+00 0.00000000D+00 0.00000000D+00 0.00000000D+00 0.00000000D+00
  <mgrwgt>
 0.1121980028D-03    2    2    0
 0.323681966850671D+03 0.000000000000000D+00 0.000000000000000D+00 0.323681966850671D+03
 0.323681966850671D+03 0.000000000000000D+00 0.000000000000000D+00 -.323681966850671D+03
 0.260290532189178D+03 0.224110192371367D+02 -.208921058632954D+03 -.123635137722914D+03
 0.856777972467327D+02 0.672348833574396D+02 0.418192333297090D+02 0.327308283530846D+02
 0.120063834715253D+03 0.493358715727946D+01 0.438544520542896D+02 0.111659174093807D+03
 0.181331769550179D+03 -.945794897518558D+02 0.123247373248955D+03 -.207548647239780D+02
 0.000000000000000D+00 0.000000000000000D+00 0.000000000000000D+00 0.000000000000000D+00
 0.861900248917182D+03 0.000000000000000D+00 0.000000000000000D+00 0.861900248917182D+03
 0.343778426667060D+03 0.000000000000000D+00 0.000000000000000D+00 -.343778426667060D+03
 0.313198365810171D+03 0.242840247572645D+01 -.272922004579722D+03 -.123635137722914D+03
 0.738386985578502D+02 0.616766990335476D+02 0.240173078500311D+02 0.327308283530846D+02
 0.113119033015793D+03 -.319142432498538D+01 0.178314127846016D+02 0.111659174093807D+03
 0.165150066361124D+03 -.106652284475448D+03 0.845802511319347D+02 -.207548647239780D+02
 0.540372511839303D+03 0.457386072911595D+02 0.146493032813155D+03 0.518121822250122D+03
-.107698865548D-04 0.000000000000D+00 0.000000000000D+00 0.221410837481D-07 0.000000000000D+00  7 -2 2 23 -11 11 23 21 2 0.14328238D-01 0.45620271D+00 0.11880907D+06 0.11880907D+06 0.11880907D+06 0.11156310D+01  1  2 13  1  7  1       -2 -.115186121698D-03 0.100000000000D+01
0.282438568951D-04 0.000000000000D+00 0.000000000000D+00 0.221410837481D-07 0.105428779558D-10  7 -2 2 23 -11 11 23 21 2 0.14474079D-01 0.48452699D+00 0.11880907D+06 0.11880907D+06 0.11880907D+06 0.11156310D+01  1  2  1  1  7  1       -2 0.227384124540D-03 0.100000000000D+01
  </mgrwgt>
  </event>
  <event>
  8     66 0.27870365E-05 0.25625126E+03 0.75467711E-02 0.97300775E-01
       -2 -1    0    0    0  501 0.00000000E+00 0.00000000E+00 0.16553208E+03 0.16553239E+03 0.32000000E+00 0.0000E+00 0.9000E+01
        2 -1    0    0  501    0 0.00000000E+00 0.00000000E+00 -.98050464E+03 0.98050470E+03 0.32000000E+00 0.0000E+00 0.9000E+01
       25  2    1    2    0    0 0.29292776E+02 0.17021164E+03 -.87539244E+03 0.94159667E+03 0.30076951E+03 0.0000E+00 0.0000E+00
       23  2    3    3    0    0 0.95752597E+02 0.33322644E+01 -.23224951E+03 0.26764288E+03 0.92267072E+02 0.0000E+00 0.0000E+00
       23  1    1    2    0    0 -.29292776E+02 -.17021164E+03 0.60419879E+02 0.20444041E+03 0.91188000E+02 0.0000E+00 0.9000E+01
      -11  1    4    4    0    0 -.43841133E+01 -.13510469E+02 -.99505441E+02 0.10051411E+03 0.51099893E-03 0.0000E+00 0.9000E+01
       11  1    4    4    0    0 0.10013671E+03 0.16842733E+02 -.13274407E+03 0.16712877E+03 0.51099893E-03 0.0000E+00 0.9000E+01
       23  1    3    3    0    0 -.66459821E+02 0.16687938E+03 -.64314293E+03 0.67395379E+03 0.91188000E+02 0.0000E+00 0.9000E+01
#aMCatNLO 1  0  0  1  1 0.26253784D+03 0.00000000D+00  -5  7  0 0.00000000D+00 0.00000000D+00 0.00000000D+00 0.00000000D+00 0.00000000D+00
  <mgrwgt>
 0.3420432826D-03    5    2    0
 0.402871171639032D+03 0.000000000000000D+00 0.000000000000000D+00 0.402871171639032D+03
 0.402871171639032D+03 0.000000000000000D+00 0.000000000000000D+00 -.402871171639032D+03
 0.351895168252590D+03 -.292927756826274D+02 -.170211639645166D+03 0.292719813332870D+03
 0.423195975908193D+02 -.438411333513901D+01 -.135104689142809D+02 -.398647102112857D+02
 0.103448697728522D+03 0.100136710475276D+03 0.168427333598549D+02 -.197634665452893D+02
 0.308078879706133D+03 -.664598214575092D+02 0.166879375199592D+03 -.233091636576295D+03
 0.000000000000000D+00 0.000000000000000D+00 -.000000000000000D+00 0.000000000000000D+00
 0.719003767756576D+03 0.000000000000000D+00 0.000000000000000D+00 0.719003767756576D+03
 0.482073107500434D+03 0.000000000000000D+00 0.000000000000000D+00 -.482073107500434D+03
 0.315311374493279D+03 -.356128910954663D+02 -.644425667632285D+02 0.292719813332870D+03
 0.402003042637795D+02 -.516578328314468D+01 -.428982216699392D+00 -.398647102112857D+02
 0.112333629310002D+03 0.980927119177647D+02 0.510496771066054D+02 -.197634665452893D+02
 0.379590142650180D+03 -.729737677525194D+02 0.275892267436711D+03 -.233091636576295D+03
 0.353641424539770D+03 0.156597302133657D+02 -.262070395563388D+03 0.236930660256142D+03
0.853045631152D-05 0.000000000000D+00 0.000000000000D+00 0.266809730949D-06 0.000000000000D+00  7 -2 2 23 -11 11 23 21 0 0.25466502D-01 0.15084690D+00 0.65664708D+05 0.65664708D+05 0.65664708D+05 0.11370276D+01  1  2  2  1  7  1       -2 0.374951760334D-03 0.100000000000D+01
-.355953209082D-06 0.000000000000D+00 -.327591983570D-07 0.266809730949D-06 0.000000000000D+00  7 -2 2 23 -11 11 23 21 2 0.25466502D-01 0.15084690D+00 0.65664708D+05 0.65664708D+05 0.65664708D+05 0.11370276D+01  1  2  3  1  7  1       -2 -.202273065441D-04 0.100000000000D+01
0.536844236795D-06 0.000000000000D+00 0.000000000000D+00 0.266809730949D-06 0.000000000000D+00  7 -2 2 23 -11 11 23 21 2 0.25466502D-01 0.15084690D+00 0.65664708D+05 0.65664708D+05 0.65664708D+05 0.11370276D+01  1  2 15  1  7  1       -2 0.305065740862D-04 0.100000000000D+01
-.253789976641D-05 0.000000000000D+00 -.269961363486D-05 0.266809730949D-06 0.000000000000D+00  7 -2 2 23 -11 11 23 21 2 0.53251661D-01 0.15084690D+00 0.65664708D+05 0.65664708D+05 0.65664708D+05 0.11370276D+01  1  2  5  1  7  1       -2 -.375074219936D-04 0.100000000000D+01
-.356313377294D-07 0.000000000000D+00 -.215356609743D-06 0.266809730949D-06 0.000000000000D+00  7 21 2 23 -11 11 23 2 2 0.53251661D-01 0.15084690D+00 0.65664708D+05 0.65664708D+05 0.65664708D+05 0.11370276D+01  1  2  5  3  7  1       -2 -.568032330310D-05 0.100000000000D+01
  </mgrwgt>
  </event>
  <event>
  8     66 0.27870365E-05 0.26160571E+03 0.75467711E-02 0.98731227E-01
       -2 -1    0    0    0  501 0.00000000E+00 0.00000000E+00 0.13129431E+03 0.13129470E+03 0.32000000E+00 0.0000E+00 0.9000E+01
        2 -1    0    0  501    0 0.00000000E+00 0.00000000E+00 -.11223716E+04 0.11223716E+04 0.32000000E+00 0.0000E+00 0.9000E+01
       25  2    1    2    0    0 0.15695531E+03 0.64935296E+02 -.12681493E+03 0.36816297E+03 0.30101558E+03 0.0000E+00 0.0000E+00
       23  2    3    3    0    0 0.65702417E+02 -.80583668E+02 -.55044863E+01 0.13895927E+03 0.92026323E+02 0.0000E+00 0.0000E+00
       23  1    1    2    0    0 -.15695531E+03 -.64935296E+02 -.86426234E+03 0.88550336E+03 0.91188000E+02 0.0000E+00 0.9000E+01
      -13  1    4    4    0    0 -.76740920E+01 -.58962576E+02 -.16427740E+02 0.61687591E+02 0.10565837E+00 0.0000E+00 0.9000E+01
       13  1    4    4    0    0 0.73376509E+02 -.21621092E+02 0.10923254E+02 0.77271678E+02 0.10565837E+00 0.0000E+00 0.9000E+01
       23  1    3    3    0    0 0.91252889E+02 0.14551896E+03 -.12131045E+03 0.22920370E+03 0.91188000E+02 0.0000E+00 0.9000E+01
#aMCatNLO 1  0  0  1  1 0.17010076D+03 0.00000000D+00  -5  7  0 0.00000000D+00 0.00000000D+00 0.00000000D+00 0.00000000D+00 0.00000000D+00
  <mgrwgt>
 0.3747309685D-03    4    2    0
 0.383876639305397D+03 0.000000000000000D+00 0.000000000000000D+00 0.383876639305397D+03
 0.383876639305397D+03 0.000000000000000D+00 0.000000000000000D+00 -.383876639305397D+03
 0.330281863961398D+03 -.156955305820961D+03 -.649352958945635D+02 -.268177735167461D+03
 0.795235075929408D+02 -.767419861295536D+01 -.589626247836911D+02 0.528062857447018D+02
 0.140277812871216D+03 0.733766155400089D+02 -.216210422190215D+02 0.117585150462076D+03
 0.217670094185239D+03 0.912528888939079D+02 0.145518962897276D+03 0.977862989606840D+02
 0.000000000000000D+00 0.000000000000000D+00 -.000000000000000D+00 -.000000000000000D+00
 0.450987335755340D+03 0.000000000000000D+00 0.000000000000000D+00 0.450987335755340D+03
 0.518329767691732D+03 0.000000000000000D+00 0.000000000000000D+00 -.518329767691732D+03
 0.330555493943995D+03 -.170277659810745D+03 0.615663563850458D+01 -.268177735167461D+03
 0.689250488126937D+02 -.106668929484826D+02 -.429927428120925D+02 0.528062857447018D+02
 0.135976784541528D+03 0.678073760077537D+02 0.809802963734555D+01 0.117585150462076D+03
 0.250913683433041D+03 0.818063300929835D+02 0.195928531057184D+03 0.977862989606840D+02
 0.182946092715815D+03 0.313308466584906D+02 -.167190453520941D+03 -.673424319363915D+02
0.934244906016D-05 0.000000000000D+00 0.000000000000D+00 0.143681038092D-06 0.000000000000D+00  7 -2 2 23 -13 13 23 21 0 0.20199158D-01 0.17267258D+00 0.68437548D+05 0.68437548D+05 0.68437548D+05 0.11354940D+01  1  2  2  1  7  1       -2 0.498530335031D-03 0.100000000000D+01
-.426222055153D-06 0.000000000000D+00 -.358774643144D-07 0.143681038092D-06 0.000000000000D+00  7 -2 2 23 -13 13 23 21 2 0.20199158D-01 0.17267258D+00 0.68437548D+05 0.68437548D+05 0.68437548D+05 0.11354940D+01  1  2  3  1  7  1       -2 -.293248927596D-04 0.100000000000D+01
0.571480201373D-06 0.000000000000D+00 0.000000000000D+00 0.143681038092D-06 0.000000000000D+00  7 -2 2 23 -13 13 23 21 2 0.20199158D-01 0.17267258D+00 0.68437548D+05 0.68437548D+05 0.68437548D+05 0.11354940D+01  1  2 15  1  7  1       -2 0.393189310992D-04 0.100000000000D+01
-.194461751211D-05 0.000000000000D+00 0.000000000000D+00 0.143681038092D-06 0.000000000000D+00  7 -2 2 23 -13 13 23 21 2 0.20199158D-01 0.17267258D+00 0.68437548D+05 0.68437548D+05 0.68437548D+05 0.11354940D+01  1  2  4  1  7  1       -2 -.133793404897D-03 0.100000000000D+01
  </mgrwgt>
  </event>
  <event>
  8     66 0.27870365E-05 0.23374790E+03 0.75467711E-02 0.10411818E+00
       -2 -1    0    0    0  501 0.00000000E+00 0.00000000E+00 0.38269740E+02 0.38271078E+02 0.32000000E+00 0.0000E+00 0.9000E+01
        2 -1    0    0  501    0 0.00000000E+00 0.00000000E+00 -.20121642E+04 0.20121642E+04 0.32000000E+00 0.0000E+00 0.9000E+01
       25  2    1    2    0    0 0.31423310E+01 -.17101810E+03 -.10156427E+04 0.10727755E+04 0.30010007E+03 0.0000E+00 0.0000E+00
       23  2    3    3    0    0 -.33795014E+02 0.25438161E+02 -.15161487E+03 0.18124938E+03 0.89861367E+02 0.0000E+00 0.0000E+00
       23  1    1    2    0    0 -.31423310E+01 0.17101810E+03 -.95825170E+03 0.97765978E+03 0.91188000E+02 0.0000E+00 0.9000E+01
      -13  1    4    4    0    0 0.16699869E+01 0.17529445E+02 -.14277032E+03 0.14385217E+03 0.10565837E+00 0.0000E+00 0.9000E+01
       13  1    4    4    0    0 -.35465000E+02 0.79087167E+01 -.88445460E+01 0.37397209E+02 0.10565837E+00 0.0000E+00 0.9000E+01
       23  1    3    3    0    0 0.36937345E+02 -.19645626E+03 -.86402787E+03 0.89152613E+03 0.91188000E+02 0.0000E+00 0.9000E+01
#aMCatNLO 1  0  0  2  2 0.45983048D+00 0.00000000D+00  -5  7  0 0.00000000D+00 0.00000000D+00 0.00000000D+00 0.00000000D+00 0.00000000D+00
  <mgrwgt>
 0.2901358015D-03    6    2    0
 0.277500266771993D+03 0.000000000000000D+00 0.000000000000000D+00 0.277500266771993D+03
 0.277500266771993D+03 0.000000000000000D+00 0.000000000000000D+00 -.277500266771993D+03
 0.203856372861081D+03 -.314233101947176D+01 0.171018097675656D+03 -.631276915088772D+02
 0.236863781508250D+02 0.167003812647644D+01 0.175294578399496D+02 -.158421460161629D+02
 0.106706959047596D+03 -.354650515733290D+02 0.790870343762264D+01 0.100329744522859D+03
 0.220750823484483D+03 0.369373444663243D+02 -.196456258953229D+03 -.213599069978192D+02
 0.000000000000000D+00 -.000000000000000D+00 -.000000000000000D+00 0.000000000000000D+00
 0.279749792507424D+03 0.000000000000000D+00 0.000000000000000D+00 0.279749792507424D+03
 0.277523861750798D+03 0.000000000000000D+00 0.000000000000000D+00 -.277523861750798D+03
 0.203984725884681D+03 -.307335402162772D+01 0.171172328692655D+03 -.631276915088772D+02
 0.237002092171018D+02 0.167805248438388D+01 0.175473777641169D+02 -.158421460161629D+02
 0.106700981047129D+03 -.354289584991658D+02 0.798940674030010D+01 0.100329744522859D+03
 0.220614807885012D+03 0.370119913724283D+02 -.196289350148786D+03 -.213599069978192D+02
 0.227293022429711D+01 -.187731336018593D+00 -.419763048286337D+00 0.222593075662594D+01
0.241402724111D-05 0.000000000000D+00 0.000000000000D+00 0.138776948141D-06 0.000000000000D+00  7 -2 2 23 -13 13 23 21 0 0.58877572D-02 0.30956382D+00 0.54638080D+05 0.54638080D+05 0.54638080D+05 0.11439221D+01  1  2  2  2  7  2        2 0.289998834887D-03 0.100000000000D+01
-.129312218220D-06 0.000000000000D+00 -.927050023384D-08 0.138776948141D-06 0.000000000000D+00  7 -2 2 23 -13 13 23 21 2 0.58877572D-02 0.30956382D+00 0.54638080D+05 0.54638080D+05 0.54638080D+05 0.11439221D+01  1  2  3  2  7  2        2 -.203276189634D-04 0.100000000000D+01
0.149726098749D-06 0.000000000000D+00 0.000000000000D+00 0.138776948141D-06 0.000000000000D+00  7 -2 2 23 -13 13 23 21 2 0.58877572D-02 0.30956382D+00 0.54638080D+05 0.54638080D+05 0.54638080D+05 0.11439221D+01  1  2 15  2  7  2        2 0.235366396627D-04 0.100000000000D+01
-.214722046667D-05 0.000000000000D+00 0.000000000000D+00 0.138776948141D-06 0.000000000000D+00  7 -2 2 23 -13 13 23 21 2 0.58877572D-02 0.30956382D+00 0.54638080D+05 0.54638080D+05 0.54638080D+05 0.11439221D+01  1  2  4  2  7  2        2 -.337538711172D-03 0.100000000000D+01
0.214729656271D-05 0.000000000000D+00 0.000000000000D+00 0.138776948141D-06 0.458007264501D-05  7 -2 2 23 -13 13 23 21 2 0.59354857D-02 0.30959015D+00 0.54745469D+05 0.54745469D+05 0.54745469D+05 0.11438477D+01  1  2 11  2  7  2        2 0.333401501908D-03 0.100000000000D+01
0.318464391693D-07 0.000000000000D+00 0.000000000000D+00 0.138776948141D-06 0.733266524081D-10  7 -2 21 23 -13 13 23 -2 2 0.59354857D-02 0.30959015D+00 0.54745469D+05 0.54745469D+05 0.54745469D+05 0.11438477D+01  1  2 11  4  7  2        2 0.106515519666D-05 0.100000000000D+01
  </mgrwgt>
  </event>
  <event>
  8     66 0.27870365E-05 0.17469829E+03 0.75467711E-02 0.10506865E+00
       -2 -1    0    0    0  501 0.00000000E+00 0.00000000E+00 0.95141866E+02 0.95142405E+02 0.32000000E+00 0.0000E+00 0.9000E+01
        2 -1    0    0  501    0 0.00000000E+00 0.00000000E+00 -.86711388E+03 0.86711394E+03 0.32000000E+00 0.0000E+00 0.9000E+01
       25  2    1    2    0    0 -.82320769E+02 -.10306491E+03 -.23698551E+03 0.40375398E+03 0.29909205E+03 0.0000E+00 0.0000E+00
       23  2    3    3    0    0 0.52150992E+02 -.39605614E+02 -.19369525E+03 0.22403465E+03 0.91571533E+02 0.0000E+00 0.0000E+00
       23  1    1    2    0    0 0.82320769E+02 0.10306491E+03 -.53498650E+03 0.55850237E+03 0.91188000E+02 0.0000E+00 0.9000E+01
      -11  1    4    4    0    0 0.34738289E+02 0.10068935E+02 -.17566509E+02 0.40208387E+02 0.51099893E-03 0.0000E+00 0.9000E+01
       11  1    4    4    0    0 0.17412703E+02 -.49674548E+02 -.17612874E+03 0.18382627E+03 0.51099893E-03 0.0000E+00 0.9000E+01
       23  1    3    3    0    0 -.13447176E+03 -.63459299E+02 -.43290263E+02 0.17971932E+03 0.91188000E+02 0.0000E+00 0.9000E+01
#aMCatNLO 1  0  0  2  1 0.13559839D+02 0.00000000D+00  -5  7  0 0.00000000D+00 0.00000000D+00 0.00000000D+00 0.00000000D+00 0.00000000D+00
  <mgrwgt>
 0.4154396065D-03    9    2    0
 0.287226601404227D+03 0.000000000000000D+00 0.000000000000000D+00 0.287226601404227D+03
 0.287226601404227D+03 0.000000000000000D+00 0.000000000000000D+00 -.287226601404227D+03
 0.216602219545074D+03 0.823207694175756D+02 0.103064913133419D+03 -.145609700127264D+03
 0.437458126957073D+02 0.347382889229355D+02 0.100689345539795D+02 0.246082093631827D+02
 0.712356244119233D+02 0.174127030927057D+02 -.496745484990115D+02 -.479974081360779D+02
 0.242869546155749D+03 -.134471761433217D+03 -.634592991883871D+02 0.168998898900159D+03
 0.000000000000000D+00 -.000000000000000D+00 -.000000000000000D+00 -.000000000000000D+00
 0.290402559478816D+03 0.000000000000000D+00 0.000000000000000D+00 0.290402559478816D+03
 0.302154171456726D+03 0.000000000000000D+00 0.000000000000000D+00 -.302154171456726D+03
 0.219412369608993D+03 0.870425023066386D+02 0.105109250851105D+03 -.145609700127264D+03
 0.446049191712978D+02 0.356950655235502D+02 0.104831838429569D+02 0.246082093631827D+02
 0.711667725768922D+02 0.189548214026642D+02 -.490068676495750D+02 -.479974081360779D+02
 0.239429157646066D+03 -.129248803970918D+03 -.611979495549128D+02 0.168998898900159D+03
 0.179435119322938D+02 -.124435852619351D+02 -.538761748957402D+01 -.117516119779100D+02
0.159523383077D-05 0.000000000000D+00 0.000000000000D+00 0.948114276062D-07 0.000000000000D+00  7 -2 2 23 -11 11 23 21 0 0.14637256D-01 0.13340218D+00 0.44857261D+05 0.44857261D+05 0.44857261D+05 0.11514648D+01  1  2  2  2  7  2        2 0.204730452336D-03 0.100000000000D+01
-.786232080973D-07 0.000000000000D+00 -.612611794485D-08 0.948114276062D-07 0.000000000000D+00  7 -2 2 23 -11 11 23 21 2 0.14637256D-01 0.13340218D+00 0.44857261D+05 0.44857261D+05 0.44857261D+05 0.11514648D+01  1  2  3  2  7  2        2 -.133785847511D-04 0.100000000000D+01
0.100483694917D-06 0.000000000000D+00 0.000000000000D+00 0.948114276062D-07 0.000000000000D+00  7 -2 2 23 -11 11 23 21 2 0.14637256D-01 0.13340218D+00 0.44857261D+05 0.44857261D+05 0.44857261D+05 0.11514648D+01  1  2 15  2  7  2        2 0.170983817766D-04 0.100000000000D+01
0.729815584249D-05 0.000000000000D+00 0.000000000000D+00 0.948114276062D-07 0.000000000000D+00  7 -2 2 23 -11 11 23 21 2 0.14637256D-01 0.14104849D+00 0.47752014D+05 0.47752014D+05 0.47752014D+05 0.11490568D+01  1  2 12  2  7  2        2 0.115020096439D-02 0.100000000000D+01
-.737938167057D-05 0.000000000000D+00 0.000000000000D+00 0.948114276062D-07 0.000000000000D+00  7 -2 2 23 -11 11 23 21 2 0.14637256D-01 0.13340218D+00 0.44857261D+05 0.44857261D+05 0.44857261D+05 0.11514648D+01  1  2  4  2  7  2        2 -.125568118472D-02 0.100000000000D+01
-.250326878184D-04 0.000000000000D+00 -.346195545634D-05 0.948114276062D-07 0.000000000000D+00  7 -2 2 23 -11 11 23 21 2 0.14637256D-01 0.14122262D+00 0.44857261D+05 0.44857261D+05 0.44857261D+05 0.11514648D+01  1  2  5  2  7  2        2 -.395538951956D-02 0.100000000000D+01
0.251946270555D-04 0.000000000000D+00 0.345634520545D-05 0.948114276062D-07 0.000000000000D+00  7 -2 2 23 -11 11 23 21 2 0.14637256D-01 0.13340218D+00 0.44857261D+05 0.44857261D+05 0.44857261D+05 0.11514648D+01  1  2  6  2  7  2        2 0.428713685807D-02 0.100000000000D+01
0.102042790565D-06 0.000000000000D+00 0.000000000000D+00 0.948114276062D-07 0.000000000000D+00  7 -2 21 23 -11 11 23 -2 2 0.14637256D-01 0.14104849D+00 0.47752014D+05 0.47752014D+05 0.47752014D+05 0.11490568D+01  1  2 12  4  7  2        2 0.139588333204D-04 0.100000000000D+01
-.242049194608D-06 0.000000000000D+00 -.340168366876D-07 0.948114276062D-07 0.000000000000D+00  7 -2 21 23 -11 11 23 -2 2 0.14637256D-01 0.14122262D+00 0.44857261D+05 0.44857261D+05 0.44857261D+05 0.11514648D+01  1  2  5  4  7  2        2 -.332365944022D-04 0.100000000000D+01
  </mgrwgt>
  </event>
  <event>
  8     66 0.27870365E-05 0.21450264E+03 0.75467711E-02 0.93227585E-01
       -2 -1    0    0    0  501 0.00000000E+00 0.00000000E+00 0.55924836E+03 0.55924845E+03 0.32000000E+00 0.0000E+00 0.9000E+01
        2 -1    0    0  501    0 0.00000000E+00 0.00000000E+00 -.84589847E+02 0.84590453E+02 0.32000000E+00 0.0000E+00 0.9000E+01
       25  2    1    2    0    0 -.55068926E+02 0.62127508E+02 0.32256199E+03 0.44803028E+03 0.29965393E+03 0.0000E+00 0.0000E+00
       23  2    3    3    0    0 0.25489097E+02 0.13596774E+03 0.20568616E+03 0.26386409E+03 0.90446328E+02 0.0000E+00 0.0000E+00
       23  1    1    2    0    0 0.55068926E+02 -.62127508E+02 0.15209651E+03 0.19580862E+03 0.91188000E+02 0.0000E+00 0.9000E+01
      -11  1    4    4    0    0 -.17749772E+02 0.11302336E+03 0.16152121E+03 0.19793543E+03 0.51099893E-03 0.0000E+00 0.9000E+01
       11  1    4    4    0    0 0.43238869E+02 0.22944385E+02 0.44164949E+02 0.65928654E+02 0.51099893E-03 0.0000E+00 0.9000E+01
       23  1    3    3    0    0 -.80558023E+02 -.73840236E+02 0.11687583E+03 0.18416620E+03 0.91188000E+02 0.0000E+00 0.9000E+01
#aMCatNLO 1  0  0  2  1 0.48546384D+03 0.00000000D+00  -5  7  0 0.00000000D+00 0.00000000D+00 0.00000000D+00 0.00000000D+00 0.00000000D+00
  <mgrwgt>
 0.5187633886D-03    5    2    0
 0.217501626380054D+03 0.000000000000000D+00 0.000000000000000D+00 0.217501626380054D+03
 0.217501626380054D+03 0.000000000000000D+00 0.000000000000000D+00 -.217501626380054D+03
 0.123850339818445D+03 0.550689258353719D+02 -.621275083018757D+02 0.114560660212382D+02
 0.116714333546233D+03 -.177497722198041D+02 0.113023359624896D+03 0.230846576840093D+02
 0.493885109607005D+02 0.432388693606721D+02 0.229443849705261D+02 -.657117871087531D+01
 0.145050068434728D+03 -.805580229762400D+02 -.738402362935463D+02 -.279695449943722D+02
 0.000000000000000D+00 0.000000000000000D+00 -.000000000000000D+00 -.000000000000000D+00
 0.457034390420183D+03 0.000000000000000D+00 0.000000000000000D+00 0.457034390420183D+03
 0.775302192971431D+03 0.000000000000000D+00 0.000000000000000D+00 -.775302192971431D+03
 0.951345628302406D+02 0.757441504381236D+01 0.233820548490094D+02 0.114560660212382D+02
 0.294779953420746D+03 -.106996654615035D+03 0.273704284620355D+03 0.230846576840093D+02
 0.729623295902549D+02 0.167028239684186D+02 0.707201302393225D+02 -.657117871087531D+01
 0.188968969737312D+03 -.153001696586465D+03 0.565880338415474D+02 -.279695449943722D+02
 0.580490767813060D+03 0.235721112189269D+03 -.424394503550234D+03 -.318267802551249D+03
0.624613651999D-05 0.000000000000D+00 0.000000000000D+00 0.629184565249D-07 0.000000000000D+00  7 -2 2 23 -11 11 23 21 0 0.86038262D-01 0.13013876D-01 0.46011384D+05 0.46011384D+05 0.46011384D+05 0.11504847D+01  1  2  2  2  7  2        2 0.438831467926D-03 0.100000000000D+01
-.346926251483D-06 0.000000000000D+00 -.239868088823D-07 0.629184565249D-07 0.000000000000D+00  7 -2 2 23 -11 11 23 21 2 0.86038262D-01 0.13013876D-01 0.46011384D+05 0.46011384D+05 0.46011384D+05 0.11504847D+01  1  2  3  2  7  2        2 -.322615465821D-04 0.100000000000D+01
0.403701184599D-06 0.000000000000D+00 0.000000000000D+00 0.629184565249D-07 0.000000000000D+00  7 -2 2 23 -11 11 23 21 2 0.86038262D-01 0.13013876D-01 0.46011384D+05 0.46011384D+05 0.46011384D+05 0.11504847D+01  1  2 15  2  7  2        2 0.375411907185D-04 0.100000000000D+01
0.566592772900D-05 0.000000000000D+00 -.358106048832D-05 0.629184565249D-07 0.000000000000D+00  7 -2 2 23 -11 11 23 21 2 0.86038262D-01 0.91892161D-01 0.46011384D+05 0.46011384D+05 0.46011384D+05 0.11504847D+01  1  2  5  2  7  2        2 0.580102371791D-04 0.100000000000D+01
0.101019304963D-05 0.000000000000D+00 -.855301808322D-06 0.629184565249D-07 0.000000000000D+00  7 -2 21 23 -11 11 23 -2 2 0.86038262D-01 0.91892161D-01 0.46011384D+05 0.46011384D+05 0.46011384D+05 0.11504847D+01  1  2  5  4  7  2        2 0.166420393314D-04 0.100000000000D+01
  </mgrwgt>
  </event>
  <event>
  9     66 -.27870365E-05 0.22895463E+03 0.75467711E-02 0.10382023E+00
       -2 -1    0    0    0  501 0.00000000E+00 0.00000000E+00 0.45586696E+02 0.45587819E+02 0.32000000E+00 0.0000E+00 0.9000E+01
        2 -1    0    0  502    0 0.00000000E+00 0.00000000E+00 -.13822482E+04 0.13822482E+04 0.32000000E+00 0.0000E+00 0.9000E+01
       25  2    1    2    0    0 -.87539502E+02 -.53978934E+02 -.70963892E+03 0.77715838E+03 0.29968459E+03 0.0000E+00 0.0000E+00
       23  2    3    3    0    0 -.16651810E+03 -.20035181E+02 -.42816999E+03 0.46905157E+03 0.92466990E+02 0.0000E+00 0.0000E+00
       23  1    1    2    0    0 0.97991212E+02 0.70926078E+02 -.58293551E+03 0.60229714E+03 0.91188000E+02 0.0000E+00 0.9000E+01
      -11  1    4    4    0    0 -.12648655E+03 -.45075917E+02 -.23961686E+03 0.27467603E+03 0.51099893E-03 0.0000E+00 0.9000E+01
       11  1    4    4    0    0 -.40031554E+02 0.25040736E+02 -.18855313E+03 0.19437553E+03 0.51099893E-03 0.0000E+00 0.9000E+01
       23  1    3    3    0    0 0.78978598E+02 -.33943753E+02 -.28146893E+03 0.30810681E+03 0.91188000E+02 0.0000E+00 0.9000E+01
       21  1    1    2  502  501 -.10451711E+02 -.16947144E+02 -.44087085E+02 0.48380548E+02 0.75000000E+00 0.0000E+00 0.9000E+01
#aMCatNLO 2  0  0  2  1 0.19910900D+02 0.00000000D+00  -5  7  0 0.00000000D+00 0.00000000D+00 0.00000000D+00 0.00000000D+00 0.00000000D+00
  <mgrwgt>
 -.2359175601D-03    3    2    0
 0.240703356928578D+03 0.000000000000000D+00 0.000000000000000D+00 0.240703356928578D+03
 0.240703356928578D+03 0.000000000000000D+00 0.000000000000000D+00 -.240703356928578D+03
 0.156060162440367D+03 0.945557860567827D+02 0.653556342858686D+02 -.531729945290797D+02
 0.148038348044756D+03 -.129650851531752D+03 -.502067459114557D+02 0.508457653486933D+02
 0.507003149427568D+02 -.411314909594125D+02 0.232572197811221D+02 -.183799922416490D+02
 0.126607888429275D+03 0.762265564343818D+02 -.384061081555350D+02 0.207072214220354D+02
 0.000000000000000D+00 -.000000000000000D+00 -.000000000000000D+00 0.000000000000000D+00
 0.252807315857391D+03 0.000000000000000D+00 0.000000000000000D+00 0.252807315857391D+03
 0.249239082640121D+03 0.000000000000000D+00 0.000000000000000D+00 -.249239082640121D+03
 0.160547204667594D+03 0.979912124181781D+02 0.709260778853901D+02 -.531729945290797D+02
 0.143582646716924D+03 -.126486545969023D+03 -.450759167756877D+02 0.508457653486933D+02
 0.506693976993125D+02 -.400315538788615D+02 0.250407356611547D+02 -.183799922416490D+02
 0.127019044554593D+03 0.789785980545490D+02 -.339437529728001D+02 0.207072214220354D+02
 0.202281048590888D+02 -.104517106248424D+02 -.169471437980569D+02 0.356823321726970D+01
-.238863995342D-05 0.000000000000D+00 0.000000000000D+00 0.688220583506D-07 0.000000000000D+00  7 -2 2 23 -11 11 23 21 2 0.66774517D-02 0.21759785D+00 0.57172020D+05 0.57172020D+05 0.57172020D+05 0.11422099D+01  1  2 13  2  7  2        2 -.643646849491D-03 0.100000000000D+01
-.925417216797D-07 0.000000000000D+00 0.000000000000D+00 0.688220583506D-07 0.000000000000D+00  7 -2 2 23 -11 11 23 21 2 0.66774517D-02 0.20536519D+00 0.52420224D+05 0.52420224D+05 0.52420224D+05 0.11454940D+01  1  2  8  2  7  2        2 -.276891718867D-04 0.100000000000D+01
0.167082164376D-05 0.000000000000D+00 0.000000000000D+00 0.688220583506D-07 0.121085550367D-08  7 -2 2 23 -11 11 23 21 2 0.70132326D-02 0.21264777D+00 0.57172020D+05 0.57172020D+05 0.57172020D+05 0.11422099D+01  1  2  1  2  7  2        2 0.435418461257D-03 0.100000000000D+01
  </mgrwgt>
  </event>
  <event>
  8     66 0.27870365E-05 0.17878519E+03 0.75467711E-02 0.99425910E-01
       -2 -1    0    0    0  501 0.00000000E+00 0.00000000E+00 0.40916903E+02 0.40918155E+02 0.32000000E+00 0.0000E+00 0.9000E+01
        2 -1    0    0  501    0 0.00000000E+00 0.00000000E+00 -.21454979E+04 0.21454979E+04 0.32000000E+00 0.0000E+00 0.9000E+01
       25  2    1    2    0    0 -.65245244E+02 -.49474812E+02 -.58705860E+03 0.66395289E+03 0.29915036E+03 0.0000E+00 0.0000E+00
       23  2    3    3    0    0 0.43840368E+02 0.10605055E+02 -.68057070E+02 0.12248534E+03 0.91304157E+02 0.0000E+00 0.0000E+00
       23  1    1    2    0    0 0.65245244E+02 0.49474812E+02 -.15175224E+04 0.15224632E+04 0.91188000E+02 0.0000E+00 0.9000E+01
      -11  1    4    4    0    0 0.55028591E+02 0.26617962E+02 -.10913087E+02 0.62094744E+02 0.51099893E-03 0.0000E+00 0.9000E+01
       11  1    4    4    0    0 -.11188223E+02 -.16012906E+02 -.57143983E+02 0.60390598E+02 0.51099893E-03 0.0000E+00 0.9000E+01
       23  1    3    3    0    0 -.10908561E+03 -.60079867E+02 -.51900153E+03 0.54146754E+03 0.91188000E+02 0.0000E+00 0.9000E+01
#aMCatNLO 1  0  0  2  1 0.25289218D+03 0.00000000D+00  -5  7  0 0.00000000D+00 0.00000000D+00 0.00000000D+00 0.00000000D+00 0.00000000D+00
  <mgrwgt>
 0.6916693600D-03    5    2    0
 0.296291279731362D+03 0.000000000000000D+00 0.000000000000000D+00 0.296291279731362D+03
 0.296291279731362D+03 0.000000000000000D+00 0.000000000000000D+00 -.296291279731362D+03
 0.227798137023787D+03 0.652452439925521D+02 0.494748120122505D+02 -.192020938962950D+03
 0.190348951085841D+03 0.550285910219031D+02 0.266179618309246D+02 0.180266639891000D+03
 0.198703671718445D+02 -.111882227394320D+02 -.160129064687718D+02 0.363895450633001D+01
 0.154565104181252D+03 -.109085612275023D+03 -.600798673744033D+02 0.811534456562003D+01
 0.000000000000000D+00 0.000000000000000D+00 -.000000000000000D+00 -.000000000000000D+00
 0.358017467109318D+03 0.000000000000000D+00 0.000000000000000D+00 0.358017467109318D+03
 0.767846572278090D+03 0.000000000000000D+00 0.000000000000000D+00 -.767846572278090D+03
 0.232872445355938D+03 -.180995707354812D+02 0.933524986330456D+02 -.192020938962950D+03
 0.191469595928125D+03 -.140502633217303D+02 0.629851951483682D+02 0.180266639891000D+03
 0.226457085545717D+02 -.188802581979938D+02 -.119633597461813D+02 0.363895450633001D+01
 0.197301426637355D+03 -.172745528800579D+03 -.265654864650555D+02 0.811534456562003D+01
 0.481574862911419D+03 0.223775621055785D+03 -.117808847570177D+03 -.409829105168772D+03
0.723214517927D-05 0.000000000000D+00 0.000000000000D+00 0.214789674775D-06 0.000000000000D+00  7 -2 2 23 -11 11 23 21 0 0.62950063D-02 0.33007669D+00 0.31964143D+05 0.31964143D+05 0.31964143D+05 0.11647891D+01  1  2  2  2  7  2        2 0.672869506989D-03 0.100000000000D+01
-.277124839405D-06 0.000000000000D+00 -.277733417560D-07 0.214789674775D-06 0.000000000000D+00  7 -2 2 23 -11 11 23 21 2 0.62950063D-02 0.33007669D+00 0.31964143D+05 0.31964143D+05 0.31964143D+05 0.11647891D+01  1  2  3  2  7  2        2 -.349811264772D-04 0.100000000000D+01
0.427622226326D-06 0.000000000000D+00 0.000000000000D+00 0.214789674775D-06 0.000000000000D+00  7 -2 2 23 -11 11 23 21 2 0.62950063D-02 0.33007669D+00 0.31964143D+05 0.31964143D+05 0.31964143D+05 0.11647891D+01  1  2 15  2  7  2        2 0.539782258987D-04 0.100000000000D+01
-.221544351182D-05 0.000000000000D+00 -.162798612822D-05 0.214789674775D-06 0.000000000000D+00  7 -2 2 23 -11 11 23 21 2 0.62950063D-02 0.86379952D+00 0.31964143D+05 0.31964143D+05 0.31964143D+05 0.11647891D+01  1  2  5  2  7  2        2 -.197203250794D-06 0.100000000000D+01
-.138854147605D-06 0.000000000000D+00 -.173722171636D-06 0.214789674775D-06 0.000000000000D+00  7 -2 21 23 -11 11 23 -2 2 0.62950063D-02 0.86379952D+00 0.31964143D+05 0.31964143D+05 0.31964143D+05 0.11647891D+01  1  2  5  4  7  2        2 -.431479741263D-10 0.100000000000D+01
  </mgrwgt>
  </event>
  <event>
  8     66 0.27870365E-05 0.78656086E+03 0.75467711E-02 0.85412522E-01
       -2 -1    0    0    0  501 0.00000000E+00 0.00000000E+00 0.76866052E+03 0.76866058E+03 0.32000000E+00 0.0000E+00 0.9000E+01
        2 -1    0    0  501    0 0.00000000E+00 0.00000000E+00 -.84409767E+03 0.84409773E+03 0.32000000E+00 0.0000E+00 0.9000E+01
       25  2    1    2    0    0 0.75517314E+03 -.63055963E+02 -.20154111E+03 0.83914343E+03 0.29879820E+03 0.0000E+00 0.0000E+00
       23  2    3    3    0    0 0.30518581E+03 0.86239974E+02 -.10328695E+03 0.34644981E+03 0.93720696E+02 0.0000E+00 0.0000E+00
       23  1    1    2    0    0 -.75517314E+03 0.63055963E+02 0.12610396E+03 0.77361488E+03 0.91188000E+02 0.0000E+00 0.9000E+01
      -11  1    4    4    0    0 0.10016261E+03 -.98251153E+01 -.85187150E+01 0.10100322E+03 0.51099893E-03 0.0000E+00 0.9000E+01
       11  1    4    4    0    0 0.20502320E+03 0.96065089E+02 -.94768239E+02 0.24544660E+03 0.51099893E-03 0.0000E+00 0.9000E+01
       23  1    3    3    0    0 0.44998733E+03 -.14929594E+03 -.98254158E+02 0.49269362E+03 0.91188000E+02 0.0000E+00 0.9000E+01
#aMCatNLO 1  0  0  1  2 0.73178497D+03 0.00000000D+00  -5  7  0 0.00000000D+00 0.00000000D+00 0.00000000D+00 0.00000000D+00 0.00000000D+00
  <mgrwgt>
 0.6794724201D-03    5    2    0
 0.805496525292765D+03 0.000000000000000D+00 0.000000000000000D+00 0.805496525292765D+03
 0.805496525292765D+03 0.000000000000000D+00 0.000000000000000D+00 -.805496525292765D+03
 0.780367579879962D+03 -.755173135480000D+03 0.630559627560094D+02 0.162467810331542D+03
 0.100714992800340D+03 0.100162612121316D+03 -.982511525302648D+01 -.379842310334483D+01
 0.241277881845460D+03 0.205023195540151D+03 0.960650892100927D+02 -.833786794893848D+02
 0.488632596059770D+03 0.449987327818533D+03 -.149295936713076D+03 -.752907077388127D+02
 0.000000000000000D+00 -.000000000000000D+00 -.000000000000000D+00 0.000000000000000D+00
 0.126305430923412D+04 0.000000000000000D+00 0.000000000000000D+00 0.126305430923412D+04
 0.123854972310424D+04 0.000000000000000D+00 0.000000000000000D+00 -.123854972310424D+04
 0.570905866102704D+03 -.499282371411395D+03 0.204791554538673D+03 0.162467810331542D+03
 0.148257059330979D+03 0.147310470196246D+03 0.162896591111768D+02 -.379842310334483D+01
 0.367615597041933D+03 0.320329403926107D+03 0.159932160541424D+03 -.833786794893848D+02
 0.682630375668426D+03 0.671789493510346D+03 -.264417128514556D+02 -.752907077388127D+02
 0.732195134194317D+03 -.640146996221304D+03 -.354571661339818D+03 0.245045861298818D+02
0.321228043683D-03 0.000000000000D+00 0.000000000000D+00 0.149488849192D-06 0.000000000000D+00  7 -2 2 23 -11 11 23 21 0 0.11825547D+00 0.12986119D+00 0.61867798D+06 0.61867798D+06 0.61867798D+06 0.10620341D+01  1  2  2  1  7  1       -2 0.686422711338D-03 0.100000000000D+01
-.178337233074D-04 0.000000000000D+00 -.123360026903D-05 0.149488849192D-06 0.000000000000D+00  7 -2 2 23 -11 11 23 21 2 0.11825547D+00 0.12986119D+00 0.61867798D+06 0.61867798D+06 0.61867798D+06 0.10620341D+01  1  2  3  1  7  1       -2 -.429830434872D-04 0.100000000000D+01
0.199900729110D-04 0.000000000000D+00 0.000000000000D+00 0.149488849192D-06 0.000000000000D+00  7 -2 2 23 -11 11 23 21 2 0.11825547D+00 0.12986119D+00 0.61867798D+06 0.61867798D+06 0.61867798D+06 0.10620341D+01  1  2 15  1  7  1       -2 0.481803019164D-04 0.100000000000D+01
-.556954386587D-04 0.000000000000D+00 -.918314583120D-04 0.149488849192D-06 0.000000000000D+00  7 -2 2 23 -11 11 23 21 2 0.24868912D+00 0.12986119D+00 0.61867798D+06 0.61867798D+06 0.61867798D+06 0.10620341D+01  1  2  5  1  7  1       -2 -.144322756658D-04 0.100000000000D+01
0.121351017430D-05 0.000000000000D+00 -.738303073078D-05 0.149488849192D-06 0.000000000000D+00  7 21 2 23 -11 11 23 2 2 0.24868912D+00 0.12986119D+00 0.61867798D+06 0.61867798D+06 0.61867798D+06 0.10620341D+01  1  2  5  3  7  1       -2 0.228472595668D-05 0.100000000000D+01
  </mgrwgt>
  </event>
  <event>
  8     66 0.27870365E-05 0.38316599E+03 0.75467711E-02 0.90063845E-01
       -2 -1    0    0    0  501 0.00000000E+00 0.00000000E+00 0.61135176E+03 0.61135185E+03 0.32000000E+00 0.0000E+00 0.9000E+01
        2 -1    0    0  501    0 0.00000000E+00 0.00000000E+00 -.28013209E+03 0.28013227E+03 0.32000000E+00 0.0000E+00 0.9000E+01
       25  2    1    2    0    0 0.14488507E+03 -.30075375E+03 0.61579307E+02 0.45277501E+03 0.29961425E+03 0.0000E+00 0.0000E+00
       23  2    3    3    0    0 0.10595328E+03 -.34628379E+02 -.40783199E+02 0.15089469E+03 0.93170353E+02 0.0000E+00 0.0000E+00
       23  1    1    2    0    0 -.14488507E+03 0.30075375E+03 0.26964037E+03 0.43870911E+03 0.91188000E+02 0.0000E+00 0.9000E+01
      -11  1    4    4    0    0 0.10205218E+03 -.63273197E+00 -.61978756E+01 0.10224217E+03 0.51099893E-03 0.0000E+00 0.9000E+01
       11  1    4    4    0    0 0.39011011E+01 -.33995647E+02 -.34585323E+02 0.48652515E+02 0.51099893E-03 0.0000E+00 0.9000E+01
       23  1    3    3    0    0 0.38931788E+02 -.26612537E+03 0.10236251E+03 0.30188033E+03 0.91188000E+02 0.0000E+00 0.9000E+01
#aMCatNLO 1  0  0  2  1 0.57357434D+03 0.00000000D+00  -5  7  0 0.00000000D+00 0.00000000D+00 0.00000000D+00 0.00000000D+00 0.00000000D+00
  <mgrwgt>
 0.4552186291D-03    3    2    0
 0.413834951002244D+03 0.000000000000000D+00 0.000000000000000D+00 0.413834951002244D+03
 0.413834951002244D+03 0.000000000000000D+00 0.000000000000000D+00 -.413834951002244D+03
 0.364628468810319D+03 -.144885071873590D+03 0.300753750368734D+03 0.114865863119916D+03
 0.112605438681803D+03 0.102052182745166D+03 -.632731963987073D+00 -.475913486668569D+02
 0.662441436456855D+02 0.390110111155257D+01 -.339956473780407D+02 -.567218118259243D+02
 0.284191850866681D+03 0.389317880168719D+02 -.266125371026707D+03 -.105527026271345D+02
 0.000000000000000D+00 0.000000000000000D+00 0.000000000000000D+00 0.000000000000000D+00
 0.122621328072241D+04 0.000000000000000D+00 0.000000000000000D+00 0.122621328072241D+04
 0.617296018993099D+03 0.000000000000000D+00 0.000000000000000D+00 -.617296018993099D+03
 0.251501631482364D+03 -.172130005117387D+03 0.110067770588379D+03 0.114865863119916D+03
 0.127432880246682D+03 0.914378206614869D+02 -.749221426062597D+02 -.475913486668569D+02
 0.103535931281537D+03 -.360648016928670D+01 -.865408483336512D+02 -.567218118259243D+02
 0.524517635043246D+03 0.317110054717261D+01 -.516412705804130D+03 -.105527026271345D+02
 0.836521221661679D+03 0.811275640780139D+02 0.567807926155662D+03 0.608917261729310D+03
0.319938641755D-04 0.000000000000D+00 0.000000000000D+00 0.162876108626D-06 0.000000000000D+00  7 -2 2 23 -11 11 23 21 0 0.94054138D-01 0.43097265D-01 0.14681617D+06 0.14681617D+06 0.14681617D+06 0.11082879D+01  1  2  2  2  7  2        2 0.450702888730D-03 0.100000000000D+01
-.176462406358D-05 0.000000000000D+00 -.122864862612D-06 0.162876108626D-06 0.000000000000D+00  7 -2 2 23 -11 11 23 21 2 0.94054138D-01 0.43097265D-01 0.14681617D+06 0.14681617D+06 0.14681617D+06 0.11082879D+01  1  2  3  2  7  2        2 -.305338129893D-04 0.100000000000D+01
0.202559979595D-05 0.000000000000D+00 0.000000000000D+00 0.162876108626D-06 0.000000000000D+00  7 -2 2 23 -11 11 23 21 2 0.94054138D-01 0.43097265D-01 0.14681617D+06 0.14681617D+06 0.14681617D+06 0.11082879D+01  1  2 15  2  7  2        2 0.350495534075D-04 0.100000000000D+01
  </mgrwgt>
  </event>
  <event>
  8     66 0.27870365E-05 0.54647645E+03 0.75467711E-02 0.86435815E-01
       -2 -1    0    0    0  501 0.00000000E+00 0.00000000E+00 0.73329944E+03 0.73329951E+03 0.32000000E+00 0.0000E+00 0.9000E+01
        2 -1    0    0  501    0 0.00000000E+00 0.00000000E+00 -.14518271E+04 0.14518272E+04 0.32000000E+00 0.0000E+00 0.9000E+01
       25  2    1    2    0    0 0.97784040E+03 0.17187630E+03 -.18230932E+03 0.10530672E+04 0.30000085E+03 0.0000E+00 0.0000E+00
       23  2    3    3    0    0 0.18356761E+03 -.28409166E+02 -.41610485E+02 0.21694821E+03 0.10407183E+03 0.0000E+00 0.0000E+00
       23  1    1    2    0    0 -.97784040E+03 -.17187630E+03 -.53621838E+03 0.11320595E+04 0.91188000E+02 0.0000E+00 0.9000E+01
      -13  1    4    4    0    0 0.20382720E+02 0.16167565E+02 0.24106331E+02 0.35467898E+02 0.10565837E+00 0.0000E+00 0.9000E+01
       13  1    4    4    0    0 0.16318489E+03 -.44576730E+02 -.65716816E+02 0.18148031E+03 0.10565837E+00 0.0000E+00 0.9000E+01
       23  1    3    3    0    0 0.79427279E+03 0.20028546E+03 -.14069883E+03 0.83611898E+03 0.91188000E+02 0.0000E+00 0.9000E+01
#aMCatNLO 1  0  0  1  2 0.18222973D+03 0.00000000D+00  -5  7  0 0.00000000D+00 0.00000000D+00 0.00000000D+00 0.00000000D+00 0.00000000D+00
  <mgrwgt>
 0.5035274580D-03    9    2    0
 0.103180625502034D+04 0.000000000000000D+00 0.000000000000000D+00 0.103180625502034D+04
 0.103180625502034D+04 0.000000000000000D+00 0.000000000000000D+00 -.103180625502034D+04
 0.101201444417458D+04 -.977840399704026D+03 -.171876296596856D+03 -.173622219916681D+03
 0.459498341595976D+02 0.203825722843231D+02 0.161676264475123D+02 0.378753991585906D+02
 0.169284868695532D+03 0.163185029999379D+03 -.445767933161040D+02 -.639705018103405D+01
 0.836363363010979D+03 0.794272797420324D+03 0.200285463465448D+03 0.142143870939124D+03
 0.000000000000000D+00 0.000000000000000D+00 -.000000000000000D+00 0.000000000000000D+00
 0.190512838421432D+04 0.000000000000000D+00 0.000000000000000D+00 0.190512838421432D+04
 0.104537148869328D+04 0.000000000000000D+00 0.000000000000000D+00 -.104537148869328D+04
 0.102792393294565D+04 -.100534629860052D+04 -.862931354158333D+02 -.173622219916681D+03
 0.469371362795733D+02 0.191301130696933D+02 0.200645875772572D+02 0.378753991585906D+02
 0.161786782440466D+03 0.158720962130576D+03 -.306870803721087D+02 -.639705018103405D+01
 0.834995039167787D+03 0.771736717043706D+03 0.270405295088426D+03 0.142143870939124D+03
 0.878856982074128D+03 0.557585063565420D+02 -.173489666877742D+03 0.859756895521043D+03
0.461556526971D-03 0.000000000000D+00 0.000000000000D+00 0.515320107470D-07 0.000000000000D+00  7 -2 2 23 -13 13 23 21 0 0.11281531D+00 0.22335803D+00 0.10164529D+07 0.10164529D+07 0.10164529D+07 0.10473925D+01  1  2  2  1  7  1       -2 0.463591647636D-03 0.100000000000D+01
-.256253188209D-04 0.000000000000D+00 -.177249859419D-05 0.515320107470D-07 0.000000000000D+00  7 -2 2 23 -13 13 23 21 2 0.11281531D+00 0.22335803D+00 0.10164529D+07 0.10164529D+07 0.10164529D+07 0.10473925D+01  1  2  3  1  7  1       -2 -.282357227844D-04 0.100000000000D+01
0.292869679499D-04 0.000000000000D+00 0.000000000000D+00 0.515320107470D-07 0.000000000000D+00  7 -2 2 23 -13 13 23 21 2 0.11281531D+00 0.22335803D+00 0.10164529D+07 0.10164529D+07 0.10164529D+07 0.10473925D+01  1  2 15  1  7  1       -2 0.322703773564D-04 0.100000000000D+01
0.355239272032D-02 0.000000000000D+00 0.000000000000D+00 0.515320107470D-07 0.000000000000D+00  7 -2 2 23 -13 13 23 21 2 0.20845443D+00 0.22335803D+00 0.12183468D+07 0.12183468D+07 0.12183468D+07 0.10422018D+01  1  2 12  1  7  1       -2 0.668245854675D-03 0.100000000000D+01
-.303870287913D-02 0.000000000000D+00 0.000000000000D+00 0.515320107470D-07 0.000000000000D+00  7 -2 2 23 -13 13 23 21 2 0.11281531D+00 0.22335803D+00 0.10164529D+07 0.10164529D+07 0.10164529D+07 0.10473925D+01  1  2  4  1  7  1       -2 -.334824993668D-02 0.100000000000D+01
-.357893746708D-02 0.000000000000D+00 -.140330410329D-03 0.515320107470D-07 0.000000000000D+00  7 -2 2 23 -13 13 23 21 2 0.20912170D+00 0.22335803D+00 0.10164529D+07 0.10164529D+07 0.10164529D+07 0.10473925D+01  1  2  5  1  7  1       -2 -.681772960661D-03 0.100000000000D+01
0.308264718942D-02 0.000000000000D+00 0.117277408893D-03 0.515320107470D-07 0.000000000000D+00  7 -2 2 23 -13 13 23 21 2 0.11281531D+00 0.22335803D+00 0.10164529D+07 0.10164529D+07 0.10164529D+07 0.10473925D+01  1  2  6  1  7  1       -2 0.339667077280D-02 0.100000000000D+01
0.237969692536D-03 0.000000000000D+00 0.000000000000D+00 0.515320107470D-07 0.000000000000D+00  7 21 2 23 -13 13 23 2 2 0.20845443D+00 0.22335803D+00 0.12183468D+07 0.12183468D+07 0.12183468D+07 0.10422018D+01  1  2 12  3  7  1       -2 0.333163137484D-03 0.100000000000D+01
-.233088891009D-03 0.000000000000D+00 -.944432503146D-05 0.515320107470D-07 0.000000000000D+00  7 21 2 23 -13 13 23 2 2 0.20912170D+00 0.22335803D+00 0.10164529D+07 0.10164529D+07 0.10164529D+07 0.10473925D+01  1  2  5  3  7  1       -2 -.332155711875D-03 0.100000000000D+01
  </mgrwgt>
  </event>
  <event>
  8     66 0.27870365E-05 0.10891300E+03 0.75467711E-02 0.10462487E+00
       -2 -1    0    0    0  501 0.00000000E+00 0.00000000E+00 0.30935766E+03 0.30935783E+03 0.32000000E+00 0.0000E+00 0.9000E+01
        2 -1    0    0  501    0 0.00000000E+00 0.00000000E+00 -.17985016E+03 0.17985044E+03 0.32000000E+00 0.0000E+00 0.9000E+01
       25  2    1    2    0    0 -.20425408E+02 -.48880588E+02 -.20998126E+02 0.30543203E+03 0.30006882E+03 0.0000E+00 0.0000E+00
       23  2    3    3    0    0 -.41865213E+02 -.13827165E+03 -.37669919E+02 0.17488079E+03 0.91063290E+02 0.0000E+00 0.0000E+00
       23  1    1    2    0    0 0.20425408E+02 0.48880588E+02 0.15050563E+03 0.18377624E+03 0.91188000E+02 0.0000E+00 0.9000E+01
      -13  1    4    4    0    0 0.11777170E+02 -.49059725E+02 0.21835426E+02 0.54975952E+02 0.10565837E+00 0.0000E+00 0.9000E+01
       13  1    4    4    0    0 -.53642383E+02 -.89211924E+02 -.59505345E+02 0.11990484E+03 0.10565837E+00 0.0000E+00 0.9000E+01
       23  1    3    3    0    0 0.21439805E+02 0.89391061E+02 0.16671793E+02 0.13055124E+03 0.91188000E+02 0.0000E+00 0.9000E+01
#aMCatNLO 1  0  0  2  1 0.58273545D+02 0.00000000D+00  -5  7  0 0.00000000D+00 0.00000000D+00 0.00000000D+00 0.00000000D+00 0.00000000D+00
  <mgrwgt>
 0.2885932806D-03    9    2    0
 0.235877370948774D+03 0.000000000000000D+00 0.000000000000000D+00 0.235877370948774D+03
 0.235877370948774D+03 0.000000000000000D+00 0.000000000000000D+00 -.235877370948774D+03
 0.149258165904458D+03 0.204254090782846D+02 0.488805891683726D+02 0.105623100748370D+03
 0.510154518657246D+02 0.117772578384050D+02 -.490596696302093D+02 0.755124775427945D+01
 0.140676663915057D+03 -.536424706250892D+02 -.892119777195162D+02 -.946236341876539D+02
 0.130804460212308D+03 0.214398037083995D+02 0.893910581813528D+02 -.185507143149954D+02
 0.000000000000000D+00 0.000000000000000D+00 -.000000000000000D+00 -.000000000000000D+00
 0.249866261247655D+03 0.000000000000000D+00 0.000000000000000D+00 0.249866261247655D+03
 0.307278320944260D+03 0.000000000000000D+00 0.000000000000000D+00 -.307278320944260D+03
 0.154959045876483D+03 0.130907519812991D+02 0.661017954053722D+02 0.105623100748370D+03
 0.452576583940066D+02 0.945611944100275D+01 -.436098166217146D+02 0.755124775427945D+01
 0.134203665123091D+03 -.602698173961625D+02 -.736514812928087D+02 -.946236341876539D+02
 0.140919869298331D+03 0.148885478797059D+02 0.104772898974380D+03 -.185507143149954D+02
 0.818043435000048D+02 0.228343980941548D+02 -.536133964652291D+02 -.574120596966055D+02
0.247595817723D-05 0.000000000000D+00 0.000000000000D+00 0.225511784390D-06 0.000000000000D+00  7 -2 2 23 -13 13 23 21 0 0.47593521D-01 0.27669290D-01 0.37926220D+05 0.37926220D+05 0.37926220D+05 0.11580053D+01  1  2  2  2  7  2        2 0.243955639276D-03 0.100000000000D+01
-.131412748953D-06 0.000000000000D+00 -.950833133531D-08 0.225511784390D-06 0.000000000000D+00  7 -2 2 23 -13 13 23 21 2 0.47593521D-01 0.27669290D-01 0.37926220D+05 0.37926220D+05 0.37926220D+05 0.11580053D+01  1  2  3  2  7  2        2 -.173630551473D-04 0.100000000000D+01
0.151618001582D-06 0.000000000000D+00 0.000000000000D+00 0.225511784390D-06 0.000000000000D+00  7 -2 2 23 -13 13 23 21 2 0.47593521D-01 0.27669290D-01 0.37926220D+05 0.37926220D+05 0.37926220D+05 0.11580053D+01  1  2 15  2  7  2        2 0.200326965516D-04 0.100000000000D+01
0.359101669775D-05 0.000000000000D+00 0.000000000000D+00 0.225511784390D-06 0.000000000000D+00  7 -2 2 23 -13 13 23 21 2 0.47593521D-01 0.36681771D-01 0.50882533D+05 0.50882533D+05 0.50882533D+05 0.11466276D+01  1  2 12  2  7  2        2 0.340109054769D-03 0.100000000000D+01
-.386654027733D-05 0.000000000000D+00 0.000000000000D+00 0.225511784390D-06 0.000000000000D+00  7 -2 2 23 -13 13 23 21 2 0.47593521D-01 0.27669290D-01 0.37926220D+05 0.37926220D+05 0.37926220D+05 0.11580053D+01  1  2  4  2  7  2        2 -.510870920815D-03 0.100000000000D+01
-.522419773933D-05 0.000000000000D+00 -.130187735321D-05 0.225511784390D-06 0.000000000000D+00  7 -2 2 23 -13 13 23 21 2 0.47593521D-01 0.37833877D-01 0.37926220D+05 0.37926220D+05 0.37926220D+05 0.11580053D+01  1  2  5  2  7  2        2 -.487735520325D-03 0.100000000000D+01
0.542503984324D-05 0.000000000000D+00 0.124065343134D-05 0.225511784390D-06 0.000000000000D+00  7 -2 2 23 -13 13 23 21 2 0.47593521D-01 0.27669290D-01 0.37926220D+05 0.37926220D+05 0.37926220D+05 0.11580053D+01  1  2  6  2  7  2        2 0.716789403805D-03 0.100000000000D+01
0.132713033277D-06 0.000000000000D+00 0.000000000000D+00 0.225511784390D-06 0.000000000000D+00  7 -2 21 23 -13 13 23 -2 2 0.47593521D-01 0.36681771D-01 0.50882533D+05 0.50882533D+05 0.50882533D+05 0.11466276D+01  1  2 12  4  7  2        2 0.560171739789D-04 0.100000000000D+01
-.177021942384D-06 0.000000000000D+00 -.518747258436D-07 0.225511784390D-06 0.000000000000D+00  7 -2 21 23 -13 13 23 -2 2 0.47593521D-01 0.37833877D-01 0.37926220D+05 0.37926220D+05 0.37926220D+05 0.11580053D+01  1  2  5  4  7  2        2 -.723411915387D-04 0.100000000000D+01
  </mgrwgt>
  </event>
  <event>
  8     66 0.27870365E-05 0.68007460E+03 0.75467711E-02 0.88990407E-01
       -2 -1    0    0    0  501 0.00000000E+00 0.00000000E+00 0.55249988E+03 0.55249997E+03 0.32000000E+00 0.0000E+00 0.9000E+01
        2 -1    0    0  501    0 0.00000000E+00 0.00000000E+00 -.85450182E+03 0.85450188E+03 0.32000000E+00 0.0000E+00 0.9000E+01
       25  2    1    2    0    0 0.23023739E+03 -.60590348E+03 -.92483994E+02 0.71973095E+03 0.29888303E+03 0.0000E+00 0.0000E+00
       23  2    3    3    0    0 0.10552905E+03 -.51531392E+03 -.82181464E+02 0.54034301E+03 0.92368618E+02 0.0000E+00 0.0000E+00
       23  1    1    2    0    0 -.23023739E+03 0.60590348E+03 -.20951795E+03 0.68727091E+03 0.91188000E+02 0.0000E+00 0.9000E+01
      -11  1    4    4    0    0 0.99549767E+02 -.44824006E+03 -.10158252E+03 0.47026409E+03 0.51099893E-03 0.0000E+00 0.9000E+01
       11  1    4    4    0    0 0.59792850E+01 -.67073860E+02 0.19401052E+02 0.70078922E+02 0.51099893E-03 0.0000E+00 0.9000E+01
       23  1    3    3    0    0 0.12470834E+03 -.90589562E+02 -.10302530E+02 0.17938794E+03 0.91188000E+02 0.0000E+00 0.9000E+01
#aMCatNLO 1  0  0  1  1 0.30283198D+03 0.00000000D+00  -5  7  0 0.00000000D+00 0.00000000D+00 0.00000000D+00 0.00000000D+00 0.00000000D+00
  <mgrwgt>
 0.6169967921D-03    4    2    0
 0.687104258304837D+03 0.000000000000000D+00 0.000000000000000D+00 0.687104258304837D+03
 0.687104258304837D+03 0.000000000000000D+00 0.000000000000000D+00 -.687104258304837D+03
 0.657626994654133D+03 -.230237390157721D+03 0.605903477976412D+03 -.634801725208349D+02
 0.459161996278398D+03 0.995497665613452D+02 -.448240056250658D+03 -.659375729379956D+00
 0.760149038200937D+02 0.597928499756183D+01 -.670738595069868D+02 0.352648709700322D+02
 0.181404621857050D+03 0.124708338598814D+03 -.905895622187677D+02 0.288746772801827D+02
 0.000000000000000D+00 0.000000000000000D+00 0.000000000000000D+00 -.000000000000000D+00
 0.792975141728760D+03 0.000000000000000D+00 0.000000000000000D+00 0.792975141728760D+03
 0.960085033935179D+03 0.000000000000000D+00 0.000000000000000D+00 -.960085033935179D+03
 0.571235597150400D+03 -.283645329616004D+03 0.483229190748580D+03 -.634801725208349D+02
 0.551988849771557D+03 0.556038579388636D+02 -.549180722966574D+03 -.659375729379956D+00
 0.908650654228381D+02 -.127353183775147D+01 -.837330705660664D+02 0.352648709700322D+02
 0.193090737095198D+03 0.108432291470584D+03 -.127974499750421D+03 0.288746772801827D+02
 0.345879926223946D+03 0.120882712044308D+03 0.277659102534482D+03 -.167109892206418D+03
0.160467272655D-03 0.000000000000D+00 0.000000000000D+00 0.273092561778D-06 0.000000000000D+00  7 -2 2 23 -11 11 23 21 0 0.84999993D-01 0.13146183D+00 0.46250146D+06 0.46250146D+06 0.46250146D+06 0.10709115D+01  1  2  2  1  7  1       -2 0.761439161508D-03 0.100000000000D+01
-.891370222586D-05 0.000000000000D+00 -.616236579000D-06 0.273092561778D-06 0.000000000000D+00  7 -2 2 23 -11 11 23 21 2 0.84999993D-01 0.13146183D+00 0.46250146D+06 0.46250146D+06 0.46250146D+06 0.10709115D+01  1  2  3  1  7  1       -2 -.485080710168D-04 0.100000000000D+01
0.999126527277D-05 0.000000000000D+00 0.000000000000D+00 0.273092561778D-06 0.000000000000D+00  7 -2 2 23 -11 11 23 21 2 0.84999993D-01 0.13146183D+00 0.46250146D+06 0.46250146D+06 0.46250146D+06 0.10709115D+01  1  2 15  1  7  1       -2 0.543721332751D-04 0.100000000000D+01
-.276198732718D-04 0.000000000000D+00 0.000000000000D+00 0.273092561778D-06 0.000000000000D+00  7 -2 2 23 -11 11 23 21 2 0.84999993D-01 0.13146183D+00 0.46250146D+06 0.46250146D+06 0.46250146D+06 0.10709115D+01  1  2  4  1  7  1       -2 -.150306431626D-03 0.100000000000D+01
  </mgrwgt>
  </event>
  <event>
  8     66 0.27870365E-05 0.25146718E+03 0.75467711E-02 0.96553217E-01
       -2 -1    0    0    0  501 0.00000000E+00 0.00000000E+00 0.26139621E+03 0.26139640E+03 0.32000000E+00 0.0000E+00 0.9000E+01
        2 -1    0    0  501    0 0.00000000E+00 0.00000000E+00 -.47203986E+03 0.47203997E+03 0.32000000E+00 0.0000E+00 0.9000E+01
       25  2    1    2    0    0 0.12453936E+03 -.84077709E+02 -.36828762E+03 0.49733050E+03 0.29853433E+03 0.0000E+00 0.0000E+00
       23  2    3    3    0    0 0.99820346E+02 -.16169638E+03 -.24692309E+03 0.32505082E+03 0.92613191E+02 0.0000E+00 0.0000E+00
       23  1    1    2    0    0 -.12453936E+03 0.84077709E+02 0.15764396E+03 0.23610587E+03 0.91188000E+02 0.0000E+00 0.9000E+01
      -13  1    4    4    0    0 -.12880772E+02 -.20820570E+02 -.62200449E+02 0.66845474E+02 0.10565837E+00 0.0000E+00 0.9000E+01
       13  1    4    4    0    0 0.11270112E+03 -.14087581E+03 -.18472264E+03 0.25820534E+03 0.10565837E+00 0.0000E+00 0.9000E+01
       23  1    3    3    0    0 0.24719012E+02 0.77618671E+02 -.12136453E+03 0.17227968E+03 0.91188000E+02 0.0000E+00 0.9000E+01
#aMCatNLO 1  0  0  1  1 0.30264999D+03 0.00000000D+00  -5  7  0 0.00000000D+00 0.00000000D+00 0.00000000D+00 0.00000000D+00 0.00000000D+00
  <mgrwgt>
 0.4386325734D-03    5    2    0
 0.351268473719791D+03 0.000000000000000D+00 0.000000000000000D+00 0.351268473719791D+03
 0.351268473719791D+03 0.000000000000000D+00 0.000000000000000D+00 -.351268473719791D+03
 0.293757269477166D+03 -.124539357831765D+03 0.840777093845414D+02 0.235369856103496D+03
 0.511355637281203D+02 -.128809344216240D+02 -.208204136353647D+02 -.448936274127052D+02
 0.214176192095368D+03 0.112701280212917D+03 -.140875966981558D+03 -.115428872583302D+03
 0.143467922138929D+03 0.247190120404718D+02 0.776186712323815D+02 -.750473561074890D+02
 0.000000000000000D+00 -.000000000000000D+00 0.000000000000000D+00 0.000000000000000D+00
 0.613747621951180D+03 0.000000000000000D+00 0.000000000000000D+00 0.613747621951180D+03
 0.481492234862811D+03 0.000000000000000D+00 0.000000000000000D+00 -.481492234862811D+03
 0.256707799407184D+03 -.187835620492567D+02 0.428001351287587D+02 0.235369856103496D+03
 0.537707038310984D+02 0.727374284206411D+01 -.286869913599949D+02 -.448936274127052D+02
 0.300499276080066D+03 0.211581148860974D+03 -.179469796192735D+03 -.115428872583302D+03
 0.153976585989388D+03 0.818642923431821D+02 0.553142808809187D+02 -.750473561074890D+02
 0.330285491506255D+03 -.281935621996964D+03 0.110042371543052D+03 0.132255387088369D+03
0.891701137129D-05 0.000000000000D+00 0.000000000000D+00 0.476049663964D-07 0.000000000000D+00  7 -2 2 23 -13 13 23 21 0 0.40214824D-01 0.72621540D-01 0.63235741D+05 0.63235741D+05 0.63235741D+05 0.11384308D+01  1  2  2  1  7  1       -2 0.419783396366D-03 0.100000000000D+01
-.428101018483D-06 0.000000000000D+00 -.342436715688D-07 0.476049663964D-07 0.000000000000D+00  7 -2 2 23 -13 13 23 21 2 0.40214824D-01 0.72621540D-01 0.63235741D+05 0.63235741D+05 0.63235741D+05 0.11384308D+01  1  2  3  1  7  1       -2 -.261195359402D-04 0.100000000000D+01
0.542805473937D-06 0.000000000000D+00 0.000000000000D+00 0.476049663964D-07 0.000000000000D+00  7 -2 2 23 -13 13 23 21 2 0.40214824D-01 0.72621540D-01 0.63235741D+05 0.63235741D+05 0.63235741D+05 0.11384308D+01  1  2 15  1  7  1       -2 0.331179475706D-04 0.100000000000D+01
-.343548707817D-06 0.000000000000D+00 -.273362432390D-05 0.476049663964D-07 0.000000000000D+00  7 -2 2 23 -13 13 23 21 2 0.91541024D-01 0.72621540D-01 0.63235741D+05 0.63235741D+05 0.63235741D+05 0.11384308D+01  1  2  5  1  7  1       -2 -.385114955994D-05 0.100000000000D+01
0.142209281256D-06 0.000000000000D+00 -.244443019631D-06 0.476049663964D-07 0.000000000000D+00  7 21 2 23 -13 13 23 2 2 0.91541024D-01 0.72621540D-01 0.63235741D+05 0.63235741D+05 0.63235741D+05 0.11384308D+01  1  2  5  3  7  1       -2 0.157019150022D-04 0.100000000000D+01
  </mgrwgt>
  </event>
  <event>
  8     66 0.27870365E-05 0.19475398E+03 0.75467711E-02 0.99140185E-01
       -2 -1    0    0    0  501 0.00000000E+00 0.00000000E+00 0.43743228E+02 0.43744398E+02 0.32000000E+00 0.0000E+00 0.9000E+01
        2 -1    0    0  501    0 0.00000000E+00 0.00000000E+00 -.32558794E+04 0.32558795E+04 0.32000000E+00 0.0000E+00 0.9000E+01
       25  2    1    2    0    0 -.77176303E+02 -.20102095E+03 -.86111748E+03 0.93700456E+03 0.30014767E+03 0.0000E+00 0.0000E+00
       23  2    3    3    0    0 0.47043353E+02 -.17356088E+03 -.59519805E+03 0.62843856E+03 0.91311841E+02 0.0000E+00 0.0000E+00
       23  1    1    2    0    0 0.77176303E+02 0.20102095E+03 -.23510187E+04 0.23626193E+04 0.91188000E+02 0.0000E+00 0.9000E+01
      -13  1    4    4    0    0 -.80570684E+01 -.10165680E+03 -.22039650E+03 0.24284491E+03 0.10565837E+00 0.0000E+00 0.9000E+01
       13  1    4    4    0    0 0.55100421E+02 -.71904082E+02 -.37480155E+03 0.38559366E+03 0.10565837E+00 0.0000E+00 0.9000E+01
       23  1    3    3    0    0 -.12421966E+03 -.27460074E+02 -.26591943E+03 0.30856599E+03 0.91188000E+02 0.0000E+00 0.9000E+01
#aMCatNLO 1  0  0  2  1 0.90855021D+02 0.00000000D+00  -5  7  0 0.00000000D+00 0.00000000D+00 0.00000000D+00 0.00000000D+00 0.00000000D+00
  <mgrwgt>
 0.3789880124D-03    9    2    0
 0.377391882061272D+03 0.000000000000000D+00 0.000000000000000D+00 0.377391882061272D+03
 0.377391882061272D+03 0.000000000000000D+00 0.000000000000000D+00 -.377391882061272D+03
 0.323221818059610D+03 0.771763033614880D+02 0.201020955026959D+03 -.223140059525995D+03
 0.123682187695194D+03 -.805715282984336D+01 -.101656838515259D+03 0.699875204906429D+02
 0.906224530115050D+02 0.551005055180840D+02 -.719040426247873D+02 0.248433807820151D+01
 0.217257305356234D+03 -.124219656049729D+03 -.274600738869128D+02 0.150668200957151D+03
 0.000000000000000D+00 0.000000000000000D+00 -.000000000000000D+00 -.000000000000000D+00
 0.388485308471761D+03 0.000000000000000D+00 0.000000000000000D+00 0.388485308471761D+03
 0.626695302406557D+03 0.000000000000000D+00 0.000000000000000D+00 -.626695302406557D+03
 0.323031639349520D+03 0.398150594778171D+02 0.211323125924144D+03 -.223140059525995D+03
 0.122257175597946D+03 -.222754141439529D+02 -.977362260652331D+02 0.699875204906429D+02
 0.825819119821222D+02 0.450872043155088D+02 -.691429263044871D+02 0.248433807820151D+01
 0.232361583230671D+03 -.150213050372981D+03 -.202925290548979D+02 0.150668200957151D+03
 0.254948300718058D+03 0.875862007236076D+02 -.241514444995260D+02 -.238209993934796D+03
0.194477139375D-04 0.000000000000D+00 0.000000000000D+00 0.794940126681D-06 0.000000000000D+00  7 -2 2 23 -13 13 23 21 0 0.67298186D-02 0.50090462D+00 0.84951155D+05 0.84951155D+05 0.84951155D+05 0.11275813D+01  1  2  2  2  7  2        2 0.355757203335D-03 0.100000000000D+01
-.992737381055D-06 0.000000000000D+00 -.746843422206D-07 0.794940126681D-06 0.000000000000D+00  7 -2 2 23 -13 13 23 21 2 0.67298186D-02 0.50090462D+00 0.84951155D+05 0.84951155D+05 0.84951155D+05 0.11275813D+01  1  2  3  2  7  2        2 -.230895376146D-04 0.100000000000D+01
0.121157855228D-05 0.000000000000D+00 0.000000000000D+00 0.794940126681D-06 0.000000000000D+00  7 -2 2 23 -13 13 23 21 2 0.67298186D-02 0.50090462D+00 0.84951155D+05 0.84951155D+05 0.84951155D+05 0.11275813D+01  1  2 15  2  7  2        2 0.281794451281D-04 0.100000000000D+01
0.340944958188D-04 0.000000000000D+00 0.000000000000D+00 0.794940126681D-06 0.000000000000D+00  7 -2 2 23 -13 13 23 21 2 0.67298186D-02 0.83496090D+00 0.11700201D+06 0.11700201D+06 0.11700201D+06 0.11161686D+01  1  2 12  2  7  2        2 0.493763287550D-05 0.100000000000D+01
-.337890824359D-04 0.000000000000D+00 0.000000000000D+00 0.794940126681D-06 0.000000000000D+00  7 -2 2 23 -13 13 23 21 2 0.67298186D-02 0.50090462D+00 0.84951155D+05 0.84951155D+05 0.84951155D+05 0.11275813D+01  1  2  4  2  7  2        2 -.785881850281D-03 0.100000000000D+01
-.367488210563D-04 0.000000000000D+00 -.381452096515D-05 0.794940126681D-06 0.000000000000D+00  7 -2 2 23 -13 13 23 21 2 0.67298186D-02 0.83337624D+00 0.84951155D+05 0.84951155D+05 0.84951155D+05 0.11275813D+01  1  2  5  2  7  2        2 -.585951179303D-05 0.100000000000D+01
0.346086943575D-04 0.000000000000D+00 0.337340834434D-05 0.794940126681D-06 0.000000000000D+00  7 -2 2 23 -13 13 23 21 2 0.67298186D-02 0.50090462D+00 0.84951155D+05 0.84951155D+05 0.84951155D+05 0.11275813D+01  1  2  6  2  7  2        2 0.804944757205D-03 0.100000000000D+01
0.195585979042D-05 0.000000000000D+00 0.000000000000D+00 0.794940126681D-06 0.000000000000D+00  7 -2 21 23 -13 13 23 -2 2 0.67298186D-02 0.83496090D+00 0.11700201D+06 0.11700201D+06 0.11700201D+06 0.11161686D+01  1  2 12  4  7  2        2 0.120145473222D-08 0.100000000000D+01
-.192631363214D-05 0.000000000000D+00 -.218171948027D-06 0.794940126681D-06 0.000000000000D+00  7 -2 21 23 -13 13 23 -2 2 0.67298186D-02 0.83337624D+00 0.84951155D+05 0.84951155D+05 0.84951155D+05 0.11275813D+01  1  2  5  4  7  2        2 -.132791917805D-08 0.100000000000D+01
  </mgrwgt>
  </event>
  <event>
  8     66 0.27870365E-05 0.15684538E+03 0.75467711E-02 0.10193833E+00
       -2 -1    0    0    0  501 0.00000000E+00 0.00000000E+00 0.18684531E+03 0.18684559E+03 0.32000000E+00 0.0000E+00 0.9000E+01
        2 -1    0    0  501    0 0.00000000E+00 0.00000000E+00 -.24246721E+03 0.24246742E+03 0.32000000E+00 0.0000E+00 0.9000E+01
       25  2    1    2    0    0 0.37333292E+01 -.74099356E+02 -.49027036E+02 0.31157009E+03 0.29860947E+03 0.0000E+00 0.0000E+00
       23  2    3    3    0    0 -.10777341E+03 -.17785069E+01 -.55349257E+02 0.15026516E+03 0.88869605E+02 0.0000E+00 0.0000E+00
       23  1    1    2    0    0 -.37333292E+01 0.74099356E+02 -.65948636E+01 0.11774292E+03 0.91188000E+02 0.0000E+00 0.9000E+01
      -11  1    4    4    0    0 -.11971050E+03 0.92553146E+01 -.36755478E+02 0.12556763E+03 0.51099893E-03 0.0000E+00 0.9000E+01
       11  1    4    4    0    0 0.11937089E+02 -.11033821E+02 -.18593779E+02 0.24697529E+02 0.51099893E-03 0.0000E+00 0.9000E+01
       23  1    3    3    0    0 0.11150674E+03 -.72320849E+02 0.63222205E+01 0.16130493E+03 0.91188000E+02 0.0000E+00 0.9000E+01
#aMCatNLO 1  0  0  2  1 0.12035993D+03 0.00000000D+00  -5  7  0 0.00000000D+00 0.00000000D+00 0.00000000D+00 0.00000000D+00 0.00000000D+00
  <mgrwgt>
 0.6527513904D-03    9    2    0
 0.212847284059751D+03 0.000000000000000D+00 0.000000000000000D+00 0.212847284059751D+03
 0.212847284059751D+03 0.000000000000000D+00 0.000000000000000D+00 -.212847284059751D+03
 0.117882053422559D+03 -.373332916522928D+01 0.740993559552228D+02 0.873354884822909D+01
 0.121832439880250D+03 -.119710499855510D+03 0.925531451154617D+01 -.206610451045213D+02
 0.224779687137908D+02 0.119370893644830D+02 -.110338215236549D+02 -.155248110322359D+02
 0.163502106102902D+03 0.111506739656256D+03 -.723208489431140D+02 0.274523072885281D+02
 0.000000000000000D+00 0.000000000000000D+00 -.000000000000000D+00 -.000000000000000D+00
 0.258862084994046D+03 0.000000000000000D+00 0.000000000000000D+00 0.258862084994046D+03
 0.317330242483420D+03 0.000000000000000D+00 0.000000000000000D+00 -.317330242483420D+03
 0.140142341648595D+03 -.245856516437416D+02 0.103169256256501D+03 0.873354884822909D+01
 0.148462993642728D+03 -.141554510158241D+03 0.397077114728373D+02 -.206610451045213D+02
 0.188569836331469D+02 0.859659221600758D+01 -.637688610732650D+01 -.155248110322359D+02
 0.134920296930549D+03 0.873896394838088D+02 -.386995725461360D+02 0.274523072885281D+02
 0.133809711622447D+03 0.701539301021665D+02 -.978005090758759D+02 -.584681574893737D+02
0.351816602610D-05 0.000000000000D+00 0.000000000000D+00 0.454145969917D-08 0.000000000000D+00  7 -2 2 23 -11 11 23 21 0 0.28745470D-01 0.37302685D-01 0.43069170D+05 0.43069170D+05 0.43069170D+05 0.11530395D+01  1  2  2  2  7  2        2 0.620811822542D-03 0.100000000000D+01
-.195301632291D-06 0.000000000000D+00 -.135106838946D-07 0.454145969917D-08 0.000000000000D+00  7 -2 2 23 -11 11 23 21 2 0.28745470D-01 0.37302685D-01 0.43069170D+05 0.43069170D+05 0.43069170D+05 0.11530395D+01  1  2  3  2  7  2        2 -.458181838861D-04 0.100000000000D+01
0.227858173598D-06 0.000000000000D+00 0.000000000000D+00 0.454145969917D-08 0.000000000000D+00  7 -2 2 23 -11 11 23 21 2 0.28745470D-01 0.37302685D-01 0.43069170D+05 0.43069170D+05 0.43069170D+05 0.11530395D+01  1  2 15  2  7  2        2 0.534560186487D-04 0.100000000000D+01
0.853682347865D-06 0.000000000000D+00 0.000000000000D+00 0.454145969917D-08 0.000000000000D+00  7 -2 2 23 -11 11 23 21 2 0.28745470D-01 0.58052790D-01 0.75638652D+05 0.75638652D+05 0.75638652D+05 0.11318104D+01  1  2 12  2  7  2        2 0.119848334011D-03 0.100000000000D+01
-.185335983057D-05 0.000000000000D+00 0.000000000000D+00 0.454145969917D-08 0.000000000000D+00  7 -2 2 23 -11 11 23 21 2 0.28745470D-01 0.37302685D-01 0.43069170D+05 0.43069170D+05 0.43069170D+05 0.11530395D+01  1  2  4  2  7  2        2 -.434802210961D-03 0.100000000000D+01
-.222358704103D-05 0.000000000000D+00 -.126202406275D-05 0.454145969917D-08 0.000000000000D+00  7 -2 2 23 -11 11 23 21 2 0.28745470D-01 0.65790166D-01 0.43069170D+05 0.43069170D+05 0.43069170D+05 0.11530395D+01  1  2  5  2  7  2        2 -.282512567101D-03 0.100000000000D+01
0.267623539421D-05 0.000000000000D+00 0.108296672256D-05 0.454145969917D-08 0.000000000000D+00  7 -2 2 23 -11 11 23 21 2 0.28745470D-01 0.37302685D-01 0.43069170D+05 0.43069170D+05 0.43069170D+05 0.11530395D+01  1  2  6  2  7  2        2 0.627850591805D-03 0.100000000000D+01
0.437857027760D-07 0.000000000000D+00 0.000000000000D+00 0.454145969917D-08 0.000000000000D+00  7 -2 21 23 -11 11 23 -2 2 0.28745470D-01 0.58052790D-01 0.75638652D+05 0.75638652D+05 0.75638652D+05 0.11318104D+01  1  2 12  4  7  2        2 0.170127436998D-04 0.100000000000D+01
-.741188557617D-07 0.000000000000D+00 -.789274672307D-07 0.454145969917D-08 0.000000000000D+00  7 -2 21 23 -11 11 23 -2 2 0.28745470D-01 0.65790166D-01 0.43069170D+05 0.43069170D+05 0.43069170D+05 0.11530395D+01  1  2  5  4  7  2        2 -.230951583495D-04 0.100000000000D+01
  </mgrwgt>
  </event>
  <event>
  8     66 0.27870365E-05 0.21084653E+03 0.75467711E-02 0.98966822E-01
       -2 -1    0    0    0  501 0.00000000E+00 0.00000000E+00 0.11506506E+03 0.11506551E+03 0.32000000E+00 0.0000E+00 0.9000E+01
        2 -1    0    0  501    0 0.00000000E+00 0.00000000E+00 -.13350344E+04 0.13350344E+04 0.32000000E+00 0.0000E+00 0.9000E+01
       25  2    1    2    0    0 -.23570118E+03 0.15940510E+03 -.39110647E+03 0.56902450E+03 0.29976588E+03 0.0000E+00 0.0000E+00
       23  2    3    3    0    0 0.15362553E+02 0.54963350E+02 -.38557727E+02 0.11455014E+03 0.91531738E+02 0.0000E+00 0.0000E+00
       23  1    1    2    0    0 0.23570118E+03 -.15940510E+03 -.82886285E+03 0.88107543E+03 0.91188000E+02 0.0000E+00 0.9000E+01
      -11  1    4    4    0    0 0.22323697E+02 0.39234843E+02 -.67310276E+02 0.81045627E+02 0.51099893E-03 0.0000E+00 0.9000E+01
       11  1    4    4    0    0 -.69611437E+01 0.15728507E+02 0.28752550E+02 0.33504516E+02 0.51099893E-03 0.0000E+00 0.9000E+01
       23  1    3    3    0    0 -.25106373E+03 0.10444175E+03 -.35254874E+03 0.45447436E+03 0.91188000E+02 0.0000E+00 0.9000E+01
#aMCatNLO 1  0  0  1  2 0.48051935D+02 0.00000000D+00  -5  7  0 0.00000000D+00 0.00000000D+00 0.00000000D+00 0.00000000D+00 0.00000000D+00
  <mgrwgt>
 0.4544893124D-03    9    2    0
 0.391938979538365D+03 0.000000000000000D+00 0.000000000000000D+00 0.391938979538365D+03
 0.391938979538365D+03 0.000000000000000D+00 0.000000000000000D+00 -.391938979538365D+03
 0.339925569897689D+03 0.235701176255357D+03 -.159405097177619D+03 -.162077488356352D+03
 0.451700230009508D+02 0.223236969451329D+02 0.392348427074862D+02 0.161575070079072D+01
 0.106728506559650D+03 -.696114372883226D+01 0.157285071541684D+02 0.105333426096093D+03
 0.292053859618440D+03 -.251063729471658D+03 0.104441747315965D+03 0.551283115594679D+02
 0.000000000000000D+00 -.000000000000000D+00 0.000000000000000D+00 0.000000000000000D+00
 0.419143893344368D+03 0.000000000000000D+00 0.000000000000000D+00 0.419143893344368D+03
 0.414482940953429D+03 0.000000000000000D+00 0.000000000000000D+00 -.414482940953429D+03
 0.356072802841687D+03 0.245934802184916D+03 -.178099832739669D+03 -.162077488356352D+03
 0.438022029632660D+02 0.236319018408631D+02 0.368450206879011D+02 0.161575070079072D+01
 0.105878209558350D+03 -.383507664580164D+01 0.100178237787202D+02 0.105333426096093D+03
 0.279596161143648D+03 -.242658462010933D+03 0.890870476632557D+02 0.551283115594679D+02
 0.482774577908453D+02 -.230731653690439D+02 0.421499406097921D+02 0.466095239093905D+01
0.622953984856D-05 0.000000000000D+00 0.000000000000D+00 0.590205625541D-06 0.000000000000D+00  7 -2 2 23 -11 11 23 21 0 0.17702354D-01 0.20538994D+00 0.10495750D+06 0.10495750D+06 0.10495750D+06 0.11200017D+01  1  2  2  1  7  1       -2 0.311115121033D-03 0.100000000000D+01
-.330822883695D-06 0.000000000000D+00 -.239230732940D-07 0.590205625541D-06 0.000000000000D+00  7 -2 2 23 -11 11 23 21 2 0.17702354D-01 0.20538994D+00 0.10495750D+06 0.10495750D+06 0.10495750D+06 0.11200017D+01  1  2  3  1  7  1       -2 -.207251683815D-04 0.100000000000D+01
0.400488653278D-06 0.000000000000D+00 0.000000000000D+00 0.590205625541D-06 0.000000000000D+00  7 -2 2 23 -11 11 23 21 2 0.17702354D-01 0.20538994D+00 0.10495750D+06 0.10495750D+06 0.10495750D+06 0.11200017D+01  1  2 15  1  7  1       -2 0.250895424202D-04 0.100000000000D+01
0.941613429435D-05 0.000000000000D+00 0.000000000000D+00 0.590205625541D-06 0.000000000000D+00  7 -2 2 23 -11 11 23 21 2 0.19408392D-01 0.20538994D+00 0.12030682D+06 0.12030682D+06 0.12030682D+06 0.11151923D+01  1  2 12  1  7  1       -2 0.501663519092D-03 0.100000000000D+01
-.784095527268D-05 0.000000000000D+00 0.000000000000D+00 0.590205625541D-06 0.000000000000D+00  7 -2 2 23 -11 11 23 21 2 0.17702354D-01 0.20538994D+00 0.10495750D+06 0.10495750D+06 0.10495750D+06 0.11200017D+01  1  2  4  1  7  1       -2 -.491214865438D-03 0.100000000000D+01
-.287569365069D-04 0.000000000000D+00 -.689882414224D-05 0.590205625541D-06 0.000000000000D+00  7 -2 2 23 -11 11 23 21 2 0.20068736D-01 0.20538994D+00 0.10495750D+06 0.10495750D+06 0.10495750D+06 0.11200017D+01  1  2  5  1  7  1       -2 -.146617087628D-02 0.100000000000D+01
0.294443914470D-04 0.000000000000D+00 0.684487876141D-05 0.590205625541D-06 0.000000000000D+00  7 -2 2 23 -11 11 23 21 2 0.17702354D-01 0.20538994D+00 0.10495750D+06 0.10495750D+06 0.10495750D+06 0.11200017D+01  1  2  6  1  7  1       -2 0.184461233096D-02 0.100000000000D+01
0.142263605013D-06 0.000000000000D+00 0.000000000000D+00 0.590205625541D-06 0.000000000000D+00  7 21 2 23 -11 11 23 2 2 0.19408392D-01 0.20538994D+00 0.12030682D+06 0.12030682D+06 0.12030682D+06 0.11151923D+01  1  2 12  3  7  1       -2 0.973955366457D-04 0.100000000000D+01
-.531746868522D-06 0.000000000000D+00 -.135873516093D-06 0.590205625541D-06 0.000000000000D+00  7 21 2 23 -11 11 23 2 2 0.20068736D-01 0.20538994D+00 0.10495750D+06 0.10495750D+06 0.10495750D+06 0.11200017D+01  1  2  5  3  7  1       -2 -.347275827682D-03 0.100000000000D+01
  </mgrwgt>
  </event>
  <event>
  9     66 0.27870365E-05 0.22750622E+03 0.75467711E-02 0.10408307E+00
       21 -1    0    0  502  501 0.00000000E+00 0.00000000E+00 0.42252357E+02 0.42259013E+02 0.75000000E+00 0.0000E+00 0.9000E+01
        2 -1    0    0  501    0 0.00000000E+00 0.00000000E+00 -.18541871E+04 0.18541871E+04 0.32000000E+00 0.0000E+00 0.9000E+01
       25  2    1    2    0    0 0.13651009E+02 -.12684620E+03 -.10028656E+04 0.10547920E+04 0.30094940E+03 0.0000E+00 0.0000E+00
       23  2    3    3    0    0 0.78673742E+02 -.13687292E+03 -.38291312E+03 0.42472473E+03 0.94047270E+02 0.0000E+00 0.0000E+00
       23  1    1    2    0    0 -.26600880E+02 0.13125175E+03 -.38938576E+03 0.42174774E+03 0.91188000E+02 0.0000E+00 0.9000E+01
      -13  1    4    4    0    0 0.19425181E+02 -.11687027E+03 -.21397042E+03 0.24457995E+03 0.10565837E+00 0.0000E+00 0.9000E+01
       13  1    4    4    0    0 0.59248561E+02 -.20002646E+02 -.16894270E+03 0.18014479E+03 0.10565837E+00 0.0000E+00 0.9000E+01
       23  1    3    3    0    0 -.65022733E+02 0.10026719E+02 -.61995243E+03 0.63006726E+03 0.91188000E+02 0.0000E+00 0.9000E+01
        2  1    1    2  502    0 0.12949871E+02 -.44055498E+01 -.41968344E+03 0.41990642E+03 0.32000000E+00 0.0000E+00 0.9000E+01
#aMCatNLO 2  0  0  1  1 0.13678743D+02 0.00000000D+00  -5  7  0 0.00000000D+00 0.00000000D+00 0.00000000D+00 0.00000000D+00 0.00000000D+00
  <mgrwgt>
 0.7651940831D-04    1    2    0
 0.245773653540314D+03 0.000000000000000D+00 0.000000000000000D+00 0.245773653540314D+03
 0.245773653540314D+03 0.000000000000000D+00 0.000000000000000D+00 -.245773653540314D+03
 0.162103908155170D+03 -.223071762427855D+02 0.129791041538594D+03 0.248817426957985D+02
 0.130196783405620D+03 0.228333348706999D+02 -.118029857016144D+03 0.499879393514175D+02
 0.643591809405964D+02 0.609205862947007D+02 -.205713421369477D+02 0.275793755168484D+01
 0.134887434579240D+03 -.614467449226152D+02 0.881015761449761D+01 -.776276195989008D+02
 0.000000000000000D+00 0.000000000000000D+00 -.000000000000000D+00 -.000000000000000D+00
 0.246518872913101D+03 0.000000000000000D+00 0.000000000000000D+00 0.246518872913101D+03
 0.317825118198449D+03 0.000000000000000D+00 0.000000000000000D+00 -.317825118198449D+03
 0.163917614556360D+03 -.266008825649478D+02 0.131251761683542D+03 0.248817426957985D+02
 0.128587782270249D+03 0.194251398641890D+02 -.116870388079431D+03 0.499879393514175D+02
 0.625947628321018D+02 0.592486017383848D+02 -.200025325025195D+02 0.275793755168484D+01
 0.136637436139956D+03 -.650227298586247D+02 0.100267087342365D+02 -.776276195989008D+02
 0.726063953128836D+02 0.129498708209987D+02 -.440554983582806D+01 -.713062452853480D+02
0.293626914942D-07 0.000000000000D+00 0.000000000000D+00 0.687314163649D-08 0.172829348163D-12  7 21 2 23 -13 13 23 2 2 0.65008675D-02 0.28525966D+00 0.55025195D+05 0.55025195D+05 0.55025195D+05 0.11436549D+01  1  2  1  3  7  1       -2 0.765194083067D-04 0.100000000000D+01
  </mgrwgt>
  </event>
  <event>
  8     66 0.27870365E-05 0.67610723E+03 0.75467711E-02 0.88236940E-01
       -2 -1    0    0    0  501 0.00000000E+00 0.00000000E+00 0.23332238E+03 0.23332260E+03 0.32000000E+00 0.0000E+00 0.9000E+01
        2 -1    0    0  501    0 0.00000000E+00 0.00000000E+00 -.25154574E+04 0.25154574E+04 0.32000000E+00 0.0000E+00 0.9000E+01
       25  2    1    2    0    0 0.27512829E+03 -.59650992E+03 -.17673667E+04 0.19092436E+04 0.30017760E+03 0.0000E+00 0.0000E+00
       23  2    3    3    0    0 0.18545776E+03 -.46791656E+03 -.15106217E+04 0.15949026E+04 0.91628698E+02 0.0000E+00 0.0000E+00
       23  1    1    2    0    0 -.27512829E+03 0.59650992E+03 -.51476834E+03 0.83953639E+03 0.91188000E+02 0.0000E+00 0.9000E+01
      -13  1    4    4    0    0 0.40141507E+02 -.18827660E+03 -.67167580E+03 0.69871869E+03 0.10565837E+00 0.0000E+00 0.9000E+01
       13  1    4    4    0    0 0.14531625E+03 -.27963996E+03 -.83894593E+03 0.89618392E+03 0.10565837E+00 0.0000E+00 0.9000E+01
       23  1    3    3    0    0 0.89670530E+02 -.12859336E+03 -.25674492E+03 0.31434099E+03 0.91188000E+02 0.0000E+00 0.9000E+01
#aMCatNLO 1  0  0  1  1 0.43169753D+03 0.00000000D+00  -5  7  0 0.00000000D+00 0.00000000D+00 0.00000000D+00 0.00000000D+00 0.00000000D+00
  <mgrwgt>
 0.3486277745D-03    7    2    0
 0.766102366506624D+03 0.000000000000000D+00 0.000000000000000D+00 0.766102366506624D+03
 0.766102366506624D+03 0.000000000000000D+00 0.000000000000000D+00 -.766102366506624D+03
 0.739411632316370D+03 -.275128289975638D+03 0.596509920419221D+03 0.326947472168382D+03
 0.253079038632970D+03 0.401413669800711D+02 -.188276477022820D+03 -.164285235648962D+03
 0.358192840238034D+03 0.145316392577213D+03 -.279640083130228D+03 -.170254752512387D+03
 0.181521221825874D+03 0.896705304183532D+02 -.128593360266173D+03 0.759251599296681D+01
 0.000000000000000D+00 0.000000000000000D+00 -.000000000000000D+00 0.000000000000000D+00
 0.103233661485675D+04 0.000000000000000D+00 0.000000000000000D+00 0.103233661485675D+04
 0.993007420853147D+03 0.000000000000000D+00 0.000000000000000D+00 -.993007420853147D+03
 0.950749726832135D+03 -.406564916755536D+03 0.789569573016620D+03 0.326947472168382D+03
 0.212718209777268D+03 0.391830533982392D+01 -.135070518625919D+03 -.164285235648962D+03
 0.283969556688275D+03 0.953781669515780D+02 -.206288714285679D+03 -.170254752512387D+03
 0.144421200253308D+03 0.643233810171028D+02 -.913623997825759D+02 0.759251599296681D+01
 0.433485342158910D+03 0.242945063447032D+03 -.356847940322447D+03 0.393291940036017D+02
0.103609065298D-03 0.000000000000D+00 0.000000000000D+00 0.261802721310D-05 0.000000000000D+00  7 -2 2 23 -13 13 23 21 0 0.35895770D-01 0.38699346D+00 0.45712099D+06 0.45712099D+06 0.45712099D+06 0.10712733D+01  1  2  2  1  7  1       -2 0.322008909898D-03 0.100000000000D+01
-.564676995579D-05 0.000000000000D+00 -.397886091637D-06 0.261802721310D-05 0.000000000000D+00  7 -2 2 23 -13 13 23 21 2 0.35895770D-01 0.38699346D+00 0.45712099D+06 0.45712099D+06 0.45712099D+06 0.10712733D+01  1  2  3  1  7  1       -2 -.201405255770D-04 0.100000000000D+01
0.633933313413D-05 0.000000000000D+00 0.000000000000D+00 0.261802721310D-05 0.000000000000D+00  7 -2 2 23 -13 13 23 21 2 0.35895770D-01 0.38699346D+00 0.45712099D+06 0.45712099D+06 0.45712099D+06 0.10712733D+01  1  2 15  1  7  1       -2 0.226107141125D-04 0.100000000000D+01
-.307924701683D-04 0.000000000000D+00 0.000000000000D+00 0.261802721310D-05 0.000000000000D+00  7 -2 2 23 -13 13 23 21 2 0.35895770D-01 0.38699346D+00 0.45712099D+06 0.45712099D+06 0.45712099D+06 0.10712733D+01  1  2  4  1  7  1       -2 -.109828545852D-03 0.100000000000D+01
-.267330811771D-04 0.000000000000D+00 -.336612672277D-04 0.261802721310D-05 0.000000000000D+00  7 -2 2 23 -13 13 23 21 2 0.68509380D-01 0.38699346D+00 0.45712099D+06 0.45712099D+06 0.45712099D+06 0.10712733D+01  1  2  5  1  7  1       -2 -.263040041050D-04 0.100000000000D+01
0.447892087310D-04 0.000000000000D+00 0.276760653991D-04 0.261802721310D-05 0.000000000000D+00  7 -2 2 23 -13 13 23 21 2 0.35895770D-01 0.38699346D+00 0.45712099D+06 0.45712099D+06 0.45712099D+06 0.10712733D+01  1  2  6  1  7  1       -2 0.159751187154D-03 0.100000000000D+01
0.553699635194D-07 0.000000000000D+00 -.236279954966D-05 0.261802721310D-05 0.000000000000D+00  7 21 2 23 -13 13 23 2 2 0.68509380D-01 0.38699346D+00 0.45712099D+06 0.45712099D+06 0.45712099D+06 0.10712733D+01  1  2  5  3  7  1       -2 0.530038864843D-06 0.100000000000D+01
  </mgrwgt>
  </event>
  <event>
  8     66 0.27870365E-05 0.17418738E+03 0.75467711E-02 0.10262304E+00
       -2 -1    0    0    0  501 0.00000000E+00 0.00000000E+00 0.44609913E+02 0.44611061E+02 0.32000000E+00 0.0000E+00 0.9000E+01
        2 -1    0    0  501    0 0.00000000E+00 0.00000000E+00 -.12880746E+04 0.12880746E+04 0.32000000E+00 0.0000E+00 0.9000E+01
       25  2    1    2    0    0 0.27020921E+01 0.11377784E+03 -.98337422E+03 0.10344995E+04 0.30035261E+03 0.0000E+00 0.0000E+00
       23  2    3    3    0    0 0.36209600E+02 0.37640736E+02 -.11080544E+03 0.15324408E+03 0.92075743E+02 0.0000E+00 0.0000E+00
       23  1    1    2    0    0 -.27020921E+01 -.11377784E+03 -.26009045E+03 0.29818617E+03 0.91188000E+02 0.0000E+00 0.9000E+01
      -11  1    4    4    0    0 -.33222069E+01 0.39399111E+02 -.10630277E+03 0.11341784E+03 0.51099893E-03 0.0000E+00 0.9000E+01
       11  1    4    4    0    0 0.39531807E+02 -.17583748E+01 -.45026716E+01 0.39826244E+02 0.51099893E-03 0.0000E+00 0.9000E+01
       23  1    3    3    0    0 -.33507508E+02 0.76137105E+02 -.87256878E+03 0.88125544E+03 0.91188000E+02 0.0000E+00 0.9000E+01
#aMCatNLO 1  0  0  2  2 0.15869925D+03 0.00000000D+00  -5  7  0 0.00000000D+00 0.00000000D+00 0.00000000D+00 0.00000000D+00 0.00000000D+00
  <mgrwgt>
 0.3536968693D-03    4    2    0
 0.239711673970932D+03 0.000000000000000D+00 0.000000000000000D+00 0.239711673970932D+03
 0.239711673970932D+03 0.000000000000000D+00 0.000000000000000D+00 -.239711673970932D+03
 0.154300274947954D+03 -.270209210526639D+01 -.113777841194670D+03 0.504046134431096D+02
 0.395612559479556D+02 -.332220693658947D+01 0.393991108890482D+02 -.132889969621992D+01
 0.990292870900921D+02 0.395318072378568D+02 -.175837479843962D+01 0.907796454947309D+02
 0.186532529955862D+03 -.335075081960010D+02 0.761371051040614D+02 -.139855359241621D+03
 0.000000000000000D+00 0.000000000000000D+00 0.000000000000000D+00 0.000000000000000D+00
 0.339069819754911D+03 0.000000000000000D+00 0.000000000000000D+00 0.339069819754911D+03
 0.325238179448137D+03 0.000000000000000D+00 0.000000000000000D+00 -.325238179448137D+03
 0.175816724515551D+03 -.529341228190523D+02 -.131353046635415D+03 0.504046134431096D+02
 0.384033096615370D+02 -.151856325119087D+02 0.352483302267008D+02 -.132889969621992D+01
 0.921544148174375D+02 0.104404681011215D+02 -.119368655862744D+02 0.907796454947309D+02
 0.198632679391930D+03 -.921159126625482D+02 0.556311702569729D+02 -.139855359241621D+03
 0.159300870816592D+03 0.149795199892388D+03 0.524104117380156D+02 0.138316403067732D+02
0.225118458070D-05 0.000000000000D+00 0.000000000000D+00 0.111877716995D-06 0.000000000000D+00  7 -2 2 23 -11 11 23 21 0 0.68631549D-02 0.19816541D+00 0.30341244D+05 0.30341244D+05 0.30341244D+05 0.11668804D+01  1  2  2  2  7  2        2 0.521353624624D-03 0.100000000000D+01
-.109562225451D-06 0.000000000000D+00 -.864514154042D-08 0.111877716995D-06 0.000000000000D+00  7 -2 2 23 -11 11 23 21 2 0.68631549D-02 0.19816541D+00 0.30341244D+05 0.30341244D+05 0.30341244D+05 0.11668804D+01  1  2  3  2  7  2        2 -.345489501502D-04 0.100000000000D+01
0.146367047405D-06 0.000000000000D+00 0.000000000000D+00 0.111877716995D-06 0.000000000000D+00  7 -2 2 23 -11 11 23 21 2 0.68631549D-02 0.19816541D+00 0.30341244D+05 0.30341244D+05 0.30341244D+05 0.11668804D+01  1  2 15  2  7  2        2 0.461548476551D-04 0.100000000000D+01
-.568480810511D-06 0.000000000000D+00 0.000000000000D+00 0.111877716995D-06 0.000000000000D+00  7 -2 2 23 -11 11 23 21 2 0.68631549D-02 0.19816541D+00 0.30341244D+05 0.30341244D+05 0.30341244D+05 0.11668804D+01  1  2  4  2  7  2        2 -.179262652825D-03 0.100000000000D+01
  </mgrwgt>
  </event>
  <event>
  8     66 0.27870365E-05 0.46711202E+03 0.75467711E-02 0.89165300E-01
       -2 -1    0    0    0  501 0.00000000E+00 0.00000000E+00 0.77169818E+02 0.77170481E+02 0.32000000E+00 0.0000E+00 0.9000E+01
        2 -1    0    0  501    0 0.00000000E+00 0.00000000E+00 -.32906698E+04 0.32906698E+04 0.32000000E+00 0.0000E+00 0.9000E+01
       25  2    1    2    0    0 0.38649596E+03 -.16905838E+03 -.23024525E+04 0.23597318E+04 0.29847456E+03 0.0000E+00 0.0000E+00
       23  2    3    3    0    0 0.23742034E+03 -.21636529E+03 -.13971182E+04 0.14364730E+04 0.91285489E+02 0.0000E+00 0.0000E+00
       23  1    1    2    0    0 -.38649596E+03 0.16905838E+03 -.91104753E+03 0.10081085E+04 0.91188000E+02 0.0000E+00 0.9000E+01
      -13  1    4    4    0    0 0.38357904E+01 -.12423060E+01 -.33475197E+00 0.40472008E+01 0.10565837E+00 0.0000E+00 0.9000E+01
       13  1    4    4    0    0 0.23358455E+03 -.21512299E+03 -.13967835E+04 0.14324258E+04 0.10565837E+00 0.0000E+00 0.9000E+01
       23  1    3    3    0    0 0.14907563E+03 0.47306916E+02 -.90533421E+03 0.92325878E+03 0.91188000E+02 0.0000E+00 0.9000E+01
#aMCatNLO 1  0  0  2  2 0.58044665D+03 0.00000000D+00  -5  7  0 0.00000000D+00 0.00000000D+00 0.00000000D+00 0.00000000D+00 0.00000000D+00
  <mgrwgt>
 0.7805385126D-03    3    2    0
 0.503926118578271D+03 0.000000000000000D+00 0.000000000000000D+00 0.503926118578271D+03
 0.503926118578271D+03 0.000000000000000D+00 0.000000000000000D+00 -.503926118578271D+03
 0.463854860728956D+03 -.386495964136245D+03 0.169058376100103D+03 0.169959452972377D+03
 0.124563575817331D+02 0.383548260678322D+01 -.124201945462771D+01 0.117858943254803D+02
 0.333003336348911D+03 0.233584854216014D+03 -.215123272483615D+03 -.100256249362970D+03
 0.198537682496942D+03 0.149075627313448D+03 0.473069158381390D+02 -.814890979348876D+02
 0.000000000000000D+00 0.000000000000000D+00 -.000000000000000D+00 0.000000000000000D+00
 0.132863297394737D+04 0.000000000000000D+00 0.000000000000000D+00 0.132863297394737D+04
 0.694265628084436D+03 0.000000000000000D+00 0.000000000000000D+00 -.694265628084436D+03
 0.773337439837302D+03 -.709945276213791D+03 0.238384214320427D+03 0.169959452972377D+03
 0.120646868877373D+02 -.257525480359591D+01 0.132012667222558D+00 0.117858943254803D+02
 0.226777160614964D+03 0.872368559504884D+02 -.183756077461751D+03 -.100256249362970D+03
 0.150870346443003D+03 0.577270256908305D+02 0.668859291217538D+02 -.814890979348876D+02
 0.859848968248799D+03 0.567556649376068D+03 -.121646078647652D+03 0.634367345862935D+03
0.111911122123D-03 0.000000000000D+00 0.000000000000D+00 0.195085707151D-06 0.000000000000D+00  7 -2 2 23 -13 13 23 21 0 0.11872332D-01 0.50625695D+00 0.21819364D+06 0.21819364D+06 0.21819364D+06 0.10949331D+01  1  2  2  2  7  2        2 0.774497571728D-03 0.100000000000D+01
-.617378205109D-05 0.000000000000D+00 -.429768175828D-06 0.195085707151D-06 0.000000000000D+00  7 -2 2 23 -13 13 23 21 2 0.11872332D-01 0.50625695D+00 0.21819364D+06 0.21819364D+06 0.21819364D+06 0.10949331D+01  1  2  3  2  7  2        2 -.512239718746D-04 0.100000000000D+01
0.690186796996D-05 0.000000000000D+00 0.000000000000D+00 0.195085707151D-06 0.000000000000D+00  7 -2 2 23 -13 13 23 21 2 0.11872332D-01 0.50625695D+00 0.21819364D+06 0.21819364D+06 0.21819364D+06 0.10949331D+01  1  2 15  2  7  2        2 0.572649127957D-04 0.100000000000D+01
  </mgrwgt>
  </event>
  <event>
  9     66 -.27870365E-05 0.47514409E+03 0.75467711E-02 0.94054854E-01
       -2 -1    0    0    0  502 0.00000000E+00 0.00000000E+00 0.29661166E+03 0.29661183E+03 0.32000000E+00 0.0000E+00 0.9000E+01
        2 -1    0    0  501    0 0.00000000E+00 0.00000000E+00 -.19709407E+04 0.19709407E+04 0.32000000E+00 0.0000E+00 0.9000E+01
       25  2    1    2    0    0 -.14408740E+03 0.38210891E+03 -.15695387E+04 0.16485256E+04 0.29566285E+03 0.0000E+00 0.0000E+00
       23  2    3    3    0    0 -.18830670E+03 0.27305268E+03 -.12408064E+04 0.12876534E+04 0.91833686E+02 0.0000E+00 0.0000E+00
       23  1    1    2    0    0 0.24213130E+03 -.38150593E+03 0.18700699E+02 0.46134511E+03 0.91188000E+02 0.0000E+00 0.9000E+01
      -13  1    4    4    0    0 -.18129854E+02 0.98972078E+02 -.34854742E+03 0.36278021E+03 0.10565837E+00 0.0000E+00 0.9000E+01
       13  1    4    4    0    0 -.17017685E+03 0.17408060E+03 -.89225900E+03 0.92487315E+03 0.10565837E+00 0.0000E+00 0.9000E+01
       23  1    3    3    0    0 0.44219308E+02 0.10905622E+03 -.32873226E+03 0.36087222E+03 0.91188000E+02 0.0000E+00 0.9000E+01
       21  1    1    2  501  502 -.98043899E+02 -.60297360E+00 -.12349108E+03 0.15768189E+03 0.75000000E+00 0.0000E+00 0.9000E+01
#aMCatNLO 2  0  0  1  2 0.98045753D+02 0.00000000D+00  -5  7  0 0.00000000D+00 0.00000000D+00 0.00000000D+00 0.00000000D+00 0.00000000D+00
  <mgrwgt>
 -.2024047086D-03    2    2    0
 0.713590026883138D+03 0.000000000000000D+00 0.000000000000000D+00 0.713590026883138D+03
 0.713590026883138D+03 0.000000000000000D+00 0.000000000000000D+00 -.713590026883138D+03
 0.685877590677383D+03 0.194560099721282D+03 -.381798496838143D+03 0.527720658547675D+03
 0.158771922958028D+03 -.289700631948952D+02 0.989053094654850D+02 -.120776648064973D+03
 0.409334420641983D+03 -.197833605366036D+03 0.173910614095745D+03 -.313323524196675D+03
 0.173196119488882D+03 0.322435688396483D+02 0.108982573276913D+03 -.936204862860264D+02
 0.000000000000000D+00 -.000000000000000D+00 -.000000000000000D+00 -.000000000000000D+00
 0.759017047223153D+03 0.000000000000000D+00 0.000000000000000D+00 0.759017047223153D+03
 0.770209371994780D+03 0.000000000000000D+00 0.000000000000000D+00 -.770209371994780D+03
 0.700698712368593D+03 0.242131295769806D+03 -.381505932223664D+03 0.527720658547675D+03
 0.157197759356513D+03 -.181296531361374D+02 0.989719783881330D+02 -.120776648064973D+03
 0.396781994115443D+03 -.170177051651597D+03 0.174080702923594D+03 -.313323524196675D+03
 0.175865443153052D+03 0.442193079266106D+02 0.109056224515059D+03 -.936204862860264D+02
 0.986825102243325D+02 -.980438989086819D+02 -.602973603121890D+00 -.111923247716273D+02
-.105979129492D-03 0.000000000000D+00 0.000000000000D+00 0.522007827190D-07 0.000000000000D+00  7 -2 2 23 -13 13 23 21 2 0.47218752D-01 0.28093082D+00 0.27664886D+06 0.27664886D+06 0.27664886D+06 0.10871652D+01  1  2 13  1  7  1       -2 -.577829671304D-03 0.100000000000D+01
0.772799129824D-04 0.000000000000D+00 0.000000000000D+00 0.522007827190D-07 0.343495981319D-10  7 -2 2 23 -13 13 23 21 2 0.45632493D-01 0.30322110D+00 0.27664886D+06 0.27664886D+06 0.27664886D+06 0.10871652D+01  1  2  1  1  7  1       -2 0.375424962683D-03 0.100000000000D+01
  </mgrwgt>
  </event>
  <event>
  8     66 0.27870365E-05 0.21447668E+03 0.75467711E-02 0.10221588E+00
       -2 -1    0    0    0  501 0.00000000E+00 0.00000000E+00 0.55180363E+03 0.55180373E+03 0.32000000E+00 0.0000E+00 0.9000E+01
        2 -1    0    0  501    0 0.00000000E+00 0.00000000E+00 -.20913671E+03 0.20913696E+03 0.32000000E+00 0.0000E+00 0.9000E+01
       25  2    1    2    0    0 -.10987313E+03 0.10712558E+03 0.44266337E+03 0.55633732E+03 0.30002060E+03 0.0000E+00 0.0000E+00
       23  2    3    3    0    0 0.50218070E+00 -.65123959E+02 0.13009634E+03 0.17180382E+03 0.91378949E+02 0.0000E+00 0.0000E+00
       23  1    1    2    0    0 0.10987313E+03 -.10712558E+03 -.99996448E+02 0.20460336E+03 0.91188000E+02 0.0000E+00 0.9000E+01
      -13  1    4    4    0    0 0.43212700E+02 -.51610405E+02 0.81671247E+02 0.10583560E+03 0.10565837E+00 0.0000E+00 0.9000E+01
       13  1    4    4    0    0 -.42710519E+02 -.13513554E+02 0.48425089E+02 0.65968212E+02 0.10565837E+00 0.0000E+00 0.9000E+01
       23  1    3    3    0    0 -.11037532E+03 0.17224954E+03 0.31256703E+03 0.38453350E+03 0.91188000E+02 0.0000E+00 0.9000E+01
#aMCatNLO 1  0  0  1  2 0.22226044D+02 0.00000000D+00  -5  7  0 0.00000000D+00 0.00000000D+00 0.00000000D+00 0.00000000D+00 0.00000000D+00
  <mgrwgt>
 0.5889500429D-03    6    2    0
 0.339709473256496D+03 0.000000000000000D+00 0.000000000000000D+00 0.339709473256496D+03
 0.339709473256496D+03 0.000000000000000D+00 0.000000000000000D+00 -.339709473256496D+03
 0.279586695907571D+03 0.109873134536995D+03 -.107125579070680D+03 -.215187066991256D+03
 0.773434530302633D+02 0.432128146792694D+02 -.516104560018322D+02 0.380922985053751D+02
 0.494601968892811D+02 -.427106339088068D+02 -.135135035235390D+02 0.209642087843458D+02
 0.273028600685877D+03 -.110375315307458D+03 0.172249538596051D+03 0.156130559701535D+03
 0.000000000000000D+00 -.000000000000000D+00 0.000000000000000D+00 -.000000000000000D+00
 0.349594577294673D+03 0.000000000000000D+00 0.000000000000000D+00 0.349594577294673D+03
 0.352618643057389D+03 0.000000000000000D+00 0.000000000000000D+00 -.352618643057389D+03
 0.284352682265143D+03 0.113416207524570D+03 -.115639468339428D+03 -.215187066991256D+03
 0.794867207333427D+02 0.441981346867124D+02 -.539781479650150D+02 0.380922985053751D+02
 0.493579740606012D+02 -.420897870487975D+02 -.150053783557835D+02 0.209642087843458D+02
 0.266585016004981D+03 -.106985074258464D+03 0.164102899509948D+03 0.156130559701535D+03
 0.224308272879939D+02 -.853948090402022D+01 0.205200951502778D+02 -.302406576271613D+01
0.134195456272D-04 0.000000000000D+00 0.000000000000D+00 0.801670946877D-06 0.000000000000D+00  7 -2 2 23 -13 13 23 21 0 0.84892893D-01 0.32174905D-01 0.66201927D+05 0.66201927D+05 0.66201927D+05 0.11367250D+01  1  2  2  1  7  1       -2 0.335328880994D-03 0.100000000000D+01
-.675547133059D-06 0.000000000000D+00 -.515345886558D-07 0.801670946877D-06 0.000000000000D+00  7 -2 2 23 -13 13 23 21 2 0.84892893D-01 0.32174905D-01 0.66201927D+05 0.66201927D+05 0.66201927D+05 0.11367250D+01  1  2  3  1  7  1       -2 -.218122064433D-04 0.100000000000D+01
0.827668118186D-06 0.000000000000D+00 0.000000000000D+00 0.801670946877D-06 0.000000000000D+00  7 -2 2 23 -13 13 23 21 2 0.84892893D-01 0.32174905D-01 0.66201927D+05 0.66201927D+05 0.66201927D+05 0.11367250D+01  1  2 15  1  7  1       -2 0.267239204742D-04 0.100000000000D+01
0.251137965549D-04 0.000000000000D+00 0.000000000000D+00 0.801670946877D-06 0.000000000000D+00  7 -2 2 23 -13 13 23 21 2 0.88923442D-01 0.32174905D-01 0.72531874D+05 0.72531874D+05 0.72531874D+05 0.11333502D+01  1  2 12  1  7  1       -2 0.724511040990D-03 0.100000000000D+01
-.171069026830D-04 0.000000000000D+00 0.000000000000D+00 0.801670946877D-06 0.000000000000D+00  7 -2 2 23 -13 13 23 21 2 0.84892893D-01 0.32174905D-01 0.66201927D+05 0.66201927D+05 0.66201927D+05 0.11367250D+01  1  2  4  1  7  1       -2 -.552351234527D-03 0.100000000000D+01
0.269389368151D-06 0.000000000000D+00 0.000000000000D+00 0.801670946877D-06 0.000000000000D+00  7 21 2 23 -13 13 23 2 2 0.88923442D-01 0.32174905D-01 0.72531874D+05 0.72531874D+05 0.72531874D+05 0.11333502D+01  1  2 12  3  7  1       -2 0.765496413985D-04 0.100000000000D+01
  </mgrwgt>
  </event>
  <event>
  8     66 0.27870365E-05 0.31844562E+03 0.75467711E-02 0.89812777E-01
       -2 -1    0    0    0  501 0.00000000E+00 0.00000000E+00 0.48738047E+03 0.48738058E+03 0.32000000E+00 0.0000E+00 0.9000E+01
        2 -1    0    0  501    0 0.00000000E+00 0.00000000E+00 -.25994727E+03 0.25994747E+03 0.32000000E+00 0.0000E+00 0.9000E+01
       25  2    1    2    0    0 -.26497408E+03 0.82907639E+01 0.24119424E+02 0.40101641E+03 0.29992068E+03 0.0000E+00 0.0000E+00
       23  2    3    3    0    0 -.65835375E+02 0.96780395E+02 0.63393516E+02 0.16154962E+03 0.91535790E+02 0.0000E+00 0.0000E+00
       23  1    1    2    0    0 0.26497408E+03 -.82907639E+01 0.20331378E+03 0.34631163E+03 0.91188000E+02 0.0000E+00 0.9000E+01
      -13  1    4    4    0    0 -.65185191E+02 0.78541310E+02 0.70355268E+01 0.10231010E+03 0.10565837E+00 0.0000E+00 0.9000E+01
       13  1    4    4    0    0 -.65018430E+00 0.18239085E+02 0.56357989E+02 0.59239523E+02 0.10565837E+00 0.0000E+00 0.9000E+01
       23  1    3    3    0    0 -.19913871E+03 -.88489631E+02 -.39274092E+02 0.23946679E+03 0.91188000E+02 0.0000E+00 0.9000E+01
#aMCatNLO 1  0  0  2  2 0.65155856D+03 0.00000000D+00  -5  7  0 0.00000000D+00 0.00000000D+00 0.00000000D+00 0.00000000D+00 0.00000000D+00
  <mgrwgt>
 0.6683020777D-03    3    2    0
 0.355940072699350D+03 0.000000000000000D+00 0.000000000000000D+00 0.355940072699350D+03
 0.355940072699350D+03 0.000000000000000D+00 0.000000000000000D+00 -.355940072699350D+03
 0.298600950229029D+03 0.264974080745474D+03 -.829076385527659D+01 0.102797256293476D+03
 0.105156958795724D+03 -.651852765819915D+02 0.785413904607367D+02 -.253005075954811D+02
 0.441838712012367D+02 -.650098374796656D+00 0.182390047627005D+02 0.402384213370349D+02
 0.263938365172710D+03 -.199138705788686D+03 -.884896313681607D+02 -.117735170035030D+03
 0.000000000000000D+00 0.000000000000000D+00 -.000000000000000D+00 0.000000000000000D+00
 0.314419157178898D+04 0.000000000000000D+00 0.000000000000000D+00 0.314419157178898D+04
 0.522394161380857D+03 0.000000000000000D+00 0.000000000000000D+00 -.522394161380857D+03
 0.381771466902463D+03 0.248138062244161D+03 0.255527743623084D+03 0.102797256293476D+03
 0.218092895537416D+03 -.731841906929490D+02 0.203883470717769D+03 -.253005075954811D+02
 0.765941110644104D+02 -.363878558899724D+01 0.650713956934058D+02 0.402384213370349D+02
 0.288581366537400D+03 -.212810971434948D+03 0.125753226369463D+03 -.117735170035030D+03
 0.270154589312815D+04 0.414958854727334D+02 -.650235836403722D+03 0.262179741040812D+04
0.256877705450D-04 0.000000000000D+00 0.000000000000D+00 0.484180032864D-06 0.000000000000D+00  7 -2 2 23 -13 13 23 21 0 0.74981634D-01 0.39991911D-01 0.10140761D+06 0.10140761D+06 0.10140761D+06 0.11212242D+01  1  2  2  2  7  2        2 0.660674175720D-03 0.100000000000D+01
-.140559982617D-05 0.000000000000D+00 -.986478026382D-07 0.484180032864D-06 0.000000000000D+00  7 -2 2 23 -13 13 23 21 2 0.74981634D-01 0.39991911D-01 0.10140761D+06 0.10140761D+06 0.10140761D+06 0.11212242D+01  1  2  3  2  7  2        2 -.454472446279D-04 0.100000000000D+01
0.164151682751D-05 0.000000000000D+00 0.000000000000D+00 0.484180032864D-06 0.000000000000D+00  7 -2 2 23 -13 13 23 21 2 0.74981634D-01 0.39991911D-01 0.10140761D+06 0.10140761D+06 0.10140761D+06 0.11212242D+01  1  2 15  2  7  2        2 0.530751465900D-04 0.100000000000D+01
  </mgrwgt>
  </event>
  <event>
  8     66 0.27870365E-05 0.15928827E+03 0.75467711E-02 0.99580020E-01
       -2 -1    0    0    0  501 0.00000000E+00 0.00000000E+00 0.21309003E+03 0.21309027E+03 0.32000000E+00 0.0000E+00 0.9000E+01
        2 -1    0    0  501    0 0.00000000E+00 0.00000000E+00 -.44910252E+03 0.44910264E+03 0.32000000E+00 0.0000E+00 0.9000E+01
       25  2    1    2    0    0 0.91476327E+02 -.16599291E+03 -.12331812E+02 0.35515893E+03 0.30010703E+03 0.0000E+00 0.0000E+00
       23  2    3    3    0    0 0.52338633E+02 0.17787800E+02 0.72439504E+02 0.12975145E+03 0.92370006E+02 0.0000E+00 0.0000E+00
       23  1    1    2    0    0 -.91476327E+02 0.16599291E+03 -.22368068E+03 0.30703397E+03 0.91188000E+02 0.0000E+00 0.9000E+01
      -11  1    4    4    0    0 -.17969412E+02 -.10713356E+02 0.44018894E+02 0.48737448E+02 0.51099893E-03 0.0000E+00 0.9000E+01
       11  1    4    4    0    0 0.70308045E+02 0.28501156E+02 0.28420610E+02 0.81014000E+02 0.51099893E-03 0.0000E+00 0.9000E+01
       23  1    3    3    0    0 0.39137694E+02 -.18378071E+03 -.84771317E+02 0.22540749E+03 0.91188000E+02 0.0000E+00 0.9000E+01
#aMCatNLO 1  0  0  1  2 0.13549494D+03 0.00000000D+00  -5  7  0 0.00000000D+00 0.00000000D+00 0.00000000D+00 0.00000000D+00 0.00000000D+00
  <mgrwgt>
 0.3708900749D-03    9    2    0
 0.309353176997731D+03 0.000000000000000D+00 0.000000000000000D+00 0.309353176997731D+03
 0.309353176997731D+03 0.000000000000000D+00 0.000000000000000D+00 -.309353176997731D+03
 0.243288735171243D+03 -.914763265586011D+02 0.165992908282010D+03 -.122280797334037D+03
 0.689545223751727D+02 -.179694121961453D+02 -.107133564938918D+02 0.657042645035161D+02
 0.975495319007324D+02 0.703080447490105D+02 0.285011561425278D+02 0.613218893720862D+02
 0.208913564548314D+03 0.391376940057359D+02 -.183780707930646D+03 -.474535654156547D+01
 0.000000000000000D+00 -.000000000000000D+00 0.000000000000000D+00 0.000000000000000D+00
 0.437578570274143D+03 0.000000000000000D+00 0.000000000000000D+00 0.437578570274143D+03
 0.354649374165432D+03 0.000000000000000D+00 0.000000000000000D+00 -.354649374165432D+03
 0.227321698618613D+03 -.406058049389821D+02 0.163580189899208D+03 -.122280797334037D+03
 0.667689996634385D+02 -.329841073416107D+01 -.114091817733357D+02 0.657042645035161D+02
 0.114945635790001D+03 0.932776587778040D+02 0.274117391629357D+02 0.613218893720862D+02
 0.224332776359912D+03 0.859693529944828D+02 -.186001868652844D+03 -.474535654156547D+01
 0.158858834007611D+03 -.135342796099144D+03 0.641912136403536D+01 0.829291961087107D+02
0.474754395964D-05 0.000000000000D+00 0.000000000000D+00 0.214673428270D-06 0.000000000000D+00  7 -2 2 23 -11 11 23 21 0 0.32783109D-01 0.69092723D-01 0.66556549D+05 0.66556549D+05 0.66556549D+05 0.11365267D+01  1  2  2  1  7  1       -2 0.341712883373D-03 0.100000000000D+01
-.253179060623D-06 0.000000000000D+00 -.182318188620D-07 0.214673428270D-06 0.000000000000D+00  7 -2 2 23 -11 11 23 21 2 0.32783109D-01 0.69092723D-01 0.66556549D+05 0.66556549D+05 0.66556549D+05 0.11365267D+01  1  2  3  1  7  1       -2 -.235385338060D-04 0.100000000000D+01
0.298929897616D-06 0.000000000000D+00 0.000000000000D+00 0.214673428270D-06 0.000000000000D+00  7 -2 2 23 -11 11 23 21 2 0.32783109D-01 0.69092723D-01 0.66556549D+05 0.66556549D+05 0.66556549D+05 0.11365267D+01  1  2 15  1  7  1       -2 0.277920752347D-04 0.100000000000D+01
0.187946168297D-05 0.000000000000D+00 0.000000000000D+00 0.214673428270D-06 0.000000000000D+00  7 -2 2 23 -11 11 23 21 2 0.47984175D-01 0.69092723D-01 0.10906747D+06 0.10906747D+06 0.10906747D+06 0.11186418D+01  1  2 12  1  7  1       -2 0.832062888687D-04 0.100000000000D+01
-.326043148137D-05 0.000000000000D+00 0.000000000000D+00 0.214673428270D-06 0.000000000000D+00  7 -2 2 23 -11 11 23 21 2 0.32783109D-01 0.69092723D-01 0.66556549D+05 0.66556549D+05 0.66556549D+05 0.11365267D+01  1  2  4  1  7  1       -2 -.303128451688D-03 0.100000000000D+01
-.388595658392D-05 0.000000000000D+00 -.180825258892D-05 0.214673428270D-06 0.000000000000D+00  7 -2 2 23 -11 11 23 21 2 0.52184686D-01 0.69092723D-01 0.66556549D+05 0.66556549D+05 0.66556549D+05 0.11365267D+01  1  2  5  1  7  1       -2 -.151631950105D-03 0.100000000000D+01
0.441956929742D-05 0.000000000000D+00 0.162903475911D-05 0.214673428270D-06 0.000000000000D+00  7 -2 2 23 -11 11 23 21 2 0.32783109D-01 0.69092723D-01 0.66556549D+05 0.66556549D+05 0.66556549D+05 0.11365267D+01  1  2  6  1  7  1       -2 0.410895676204D-03 0.100000000000D+01
0.863297466482D-07 0.000000000000D+00 0.000000000000D+00 0.214673428270D-06 0.000000000000D+00  7 21 2 23 -11 11 23 2 2 0.47984175D-01 0.69092723D-01 0.10906747D+06 0.10906747D+06 0.10906747D+06 0.11186418D+01  1  2 12  3  7  1       -2 0.413661997538D-04 0.100000000000D+01
-.132113535441D-06 0.000000000000D+00 -.963264827709D-07 0.214673428270D-06 0.000000000000D+00  7 21 2 23 -11 11 23 2 2 0.52184686D-01 0.69092723D-01 0.66556549D+05 0.66556549D+05 0.66556549D+05 0.11365267D+01  1  2  5  3  7  1       -2 -.557841129748D-04 0.100000000000D+01
  </mgrwgt>
  </event>
  <event>
  8     66 0.27870365E-05 0.12040901E+03 0.75467711E-02 0.10240914E+00
       -2 -1    0    0    0  501 0.00000000E+00 0.00000000E+00 0.47633570E+02 0.47634645E+02 0.32000000E+00 0.0000E+00 0.9000E+01
        2 -1    0    0  501    0 0.00000000E+00 0.00000000E+00 -.14881640E+04 0.14881640E+04 0.32000000E+00 0.0000E+00 0.9000E+01
       25  2    1    2    0    0 0.10023130E+03 0.17609524E+02 -.13073451E+04 0.13449846E+04 0.29912561E+03 0.0000E+00 0.0000E+00
       23  2    3    3    0    0 -.65489534E+02 -.88262507E+01 -.32366056E+03 0.34293039E+03 0.92077752E+02 0.0000E+00 0.0000E+00
       23  1    1    2    0    0 -.10023130E+03 -.17609524E+02 -.13318536E+03 0.19081405E+03 0.91188000E+02 0.0000E+00 0.9000E+01
      -11  1    4    4    0    0 -.86980133E+02 -.12601059E+02 -.28811766E+03 0.30122436E+03 0.51099893E-03 0.0000E+00 0.9000E+01
       11  1    4    4    0    0 0.21490599E+02 0.37748084E+01 -.35542900E+02 0.41706028E+02 0.51099893E-03 0.0000E+00 0.9000E+01
       23  1    3    3    0    0 0.16572083E+03 0.26435775E+02 -.98368451E+03 0.10020542E+04 0.91188000E+02 0.0000E+00 0.9000E+01
#aMCatNLO 1  0  0  1  2 0.85061402D+02 0.00000000D+00  -5  7  0 0.00000000D+00 0.00000000D+00 0.00000000D+00 0.00000000D+00 0.00000000D+00
  <mgrwgt>
 0.5845860372D-03    9    2    0
 0.266246907513966D+03 0.000000000000000D+00 0.000000000000000D+00 0.266246907513966D+03
 0.266246907513966D+03 0.000000000000000D+00 0.000000000000000D+00 -.266246907513966D+03
 0.190038625523526D+03 -.100231297188018D+03 -.176095243535222D+02 0.132072024149404D+03
 0.893488697776523D+02 -.869801331884681D+02 -.126010591111040D+02 -.160900674435717D+02
 0.241344277333970D+02 0.214905988858599D+02 0.377480840550483D+01 0.103138539376594D+02
 0.228971891993357D+03 0.165720831490626D+03 0.264357750591214D+02 -.126295810643492D+03
 0.000000000000000D+00 0.000000000000000D+00 0.000000000000000D+00 0.000000000000000D+00
 0.316670393045366D+03 0.000000000000000D+00 0.000000000000000D+00 0.316670393045366D+03
 0.308069662197937D+03 0.000000000000000D+00 0.000000000000000D+00 -.308069662197937D+03
 0.195360433211433D+03 -.100421422173590D+03 -.481971568276753D+02 0.132072024149404D+03
 0.925808992301044D+02 -.870698827452557D+02 -.270401211284915D+02 -.160900674435717D+02
 0.238160915440730D+02 0.214669439454048D+02 -.308388252339893D-01 0.103138539376594D+02
 0.227487515923755D+03 0.165495651027992D+03 -.979164245084171D+01 -.126295810643492D+03
 0.854951153339382D+02 0.528709945449106D+00 0.850597592322424D+02 0.860073084742938D+01
0.266094825299D-05 0.000000000000D+00 0.000000000000D+00 0.796092370991D-07 0.000000000000D+00  7 -2 2 23 -11 11 23 21 0 0.73283269D-02 0.22894839D+00 0.47817198D+05 0.47817198D+05 0.47817198D+05 0.11490045D+01  1  2  2  1  7  1       -2 0.436718063951D-03 0.100000000000D+01
-.140865269101D-06 0.000000000000D+00 -.102187419352D-07 0.796092370991D-07 0.000000000000D+00  7 -2 2 23 -11 11 23 21 2 0.73283269D-02 0.22894839D+00 0.47817198D+05 0.47817198D+05 0.47817198D+05 0.11490045D+01  1  2  3  1  7  1       -2 -.305219372702D-04 0.100000000000D+01
0.165125396607D-06 0.000000000000D+00 0.000000000000D+00 0.796092370991D-07 0.000000000000D+00  7 -2 2 23 -11 11 23 21 2 0.73283269D-02 0.22894839D+00 0.47817198D+05 0.47817198D+05 0.47817198D+05 0.11490045D+01  1  2 15  1  7  1       -2 0.357784926628D-04 0.100000000000D+01
0.133322992993D-05 0.000000000000D+00 0.000000000000D+00 0.796092370991D-07 0.000000000000D+00  7 -2 2 23 -11 11 23 21 2 0.91961072D-02 0.22894839D+00 0.70453833D+05 0.70453833D+05 0.70453833D+05 0.11344211D+01  1  2 12  1  7  1       -2 0.199383005780D-03 0.100000000000D+01
-.139649389536D-05 0.000000000000D+00 0.000000000000D+00 0.796092370991D-07 0.000000000000D+00  7 -2 2 23 -11 11 23 21 2 0.73283269D-02 0.22894839D+00 0.47817198D+05 0.47817198D+05 0.47817198D+05 0.11490045D+01  1  2  4  1  7  1       -2 -.302584869531D-03 0.100000000000D+01
-.276993753061D-05 0.000000000000D+00 -.129558798299D-05 0.796092370991D-07 0.000000000000D+00  7 -2 2 23 -11 11 23 21 2 0.10236009D-01 0.22894839D+00 0.47817198D+05 0.47817198D+05 0.47817198D+05 0.11490045D+01  1  2  5  1  7  1       -2 -.361902764874D-03 0.100000000000D+01
0.309743966929D-05 0.000000000000D+00 0.122647086883D-05 0.796092370991D-07 0.000000000000D+00  7 -2 2 23 -11 11 23 21 2 0.73283269D-02 0.22894839D+00 0.47817198D+05 0.47817198D+05 0.47817198D+05 0.11490045D+01  1  2  6  1  7  1       -2 0.671136752783D-03 0.100000000000D+01
0.420014393917D-07 0.000000000000D+00 0.000000000000D+00 0.796092370991D-07 0.000000000000D+00  7 21 2 23 -11 11 23 2 2 0.91961072D-02 0.22894839D+00 0.70453833D+05 0.70453833D+05 0.70453833D+05 0.11344211D+01  1  2 12  3  7  1       -2 0.935641983145D-04 0.100000000000D+01
-.815052864812D-07 0.000000000000D+00 -.541306488241D-07 0.796092370991D-07 0.000000000000D+00  7 21 2 23 -11 11 23 2 2 0.10236009D-01 0.22894839D+00 0.47817198D+05 0.47817198D+05 0.47817198D+05 0.11490045D+01  1  2  5  3  7  1       -2 -.156984904569D-03 0.100000000000D+01
  </mgrwgt>
  </event>
  <event>
  9     66 -.27870365E-05 0.19927629E+03 0.75467711E-02 0.10468043E+00
       -2 -1    0    0    0  501 0.00000000E+00 0.00000000E+00 0.15892899E+03 0.15892932E+03 0.32000000E+00 0.0000E+00 0.9000E+01
        2 -1    0    0  502    0 0.00000000E+00 0.00000000E+00 -.81046724E+03 0.81046731E+03 0.32000000E+00 0.0000E+00 0.9000E+01
       25  2    1    2    0    0 -.13527949E+03 0.61579673E+01 -.64229198E+02 0.33595776E+03 0.30067219E+03 0.0000E+00 0.0000E+00
       23  2    3    3    0    0 -.90292767E+02 0.35655164E+02 0.79485907E+02 0.15745517E+03 0.95131738E+02 0.0000E+00 0.0000E+00
       23  1    1    2    0    0 0.11729787E+03 -.52714955E+02 -.54704902E+03 0.56931146E+03 0.91188000E+02 0.0000E+00 0.9000E+01
      -11  1    4    4    0    0 0.19388684E+02 -.30069028E+01 0.11843812E+02 0.22918081E+02 0.51099893E-03 0.0000E+00 0.9000E+01
       11  1    4    4    0    0 -.10968145E+03 0.38662066E+02 0.67642096E+02 0.13453709E+03 0.51099893E-03 0.0000E+00 0.9000E+01
       23  1    3    3    0    0 -.44986718E+02 -.29497196E+02 -.14371511E+03 0.17850258E+03 0.91188000E+02 0.0000E+00 0.9000E+01
       21  1    1    2  502  501 0.17981613E+02 0.46556988E+02 -.40260029E+02 0.64127404E+02 0.75000000E+00 0.0000E+00 0.9000E+01
#aMCatNLO 2  0  0  2  1 0.49908832D+02 0.00000000D+00  -5  7  0 0.00000000D+00 0.00000000D+00 0.00000000D+00 0.00000000D+00 0.00000000D+00
  <mgrwgt>
 -.1551203334D-03    2    2    0
 0.332926570284894D+03 0.000000000000000D+00 0.000000000000000D+00 0.332926570284894D+03
 0.332926570284894D+03 0.000000000000000D+00 0.000000000000000D+00 -.332926570284894D+03
 0.271284964663002D+03 0.124610498205582D+03 -.337815123348236D+02 -.220479735734455D+03
 0.423449901395755D+02 0.205248143884474D+02 -.652982626989598D-01 0.370381684263331D+02
 0.244750919630263D+03 -.103086872286707D+03 0.557363831073467D+02 0.214871042767784D+03
 0.107472266136947D+03 -.420484403073225D+02 -.218895725098241D+02 -.314294754596623D+02
 0.000000000000000D+00 0.000000000000000D+00 0.000000000000000D+00 0.000000000000000D+00
 0.360961801595544D+03 0.000000000000000D+00 0.000000000000000D+00 0.360961801595544D+03
 0.356838074506913D+03 0.000000000000000D+00 0.000000000000000D+00 -.356838074506913D+03
 0.271042842599631D+03 0.117297872193490D+03 -.527149550870818D+02 -.220479735734455D+03
 0.419140604623065D+02 0.193886843266393D+02 -.300690274907522D+01 0.370381684263331D+02
 0.244324254331075D+03 -.109681451784724D+03 0.386620662758229D+02 0.214871042767784D+03
 0.110439814515756D+03 -.449867177255012D+02 -.294971962547475D+02 -.314294754596623D+02
 0.500789041936896D+02 0.179816129900958D+02 0.465569878150816D+02 0.412372708863072D+01
-.595280634209D-05 0.000000000000D+00 0.000000000000D+00 0.287250696687D-07 0.000000000000D+00  7 -2 2 23 -11 11 23 21 2 0.22551432D-01 0.12922069D+00 0.50478103D+05 0.50478103D+05 0.50478103D+05 0.11469320D+01  1  2 13  2  7  2        2 -.519516524663D-03 0.100000000000D+01
0.457077849841D-05 0.000000000000D+00 0.000000000000D+00 0.287250696687D-07 0.811902305055D-10  7 -2 2 23 -11 11 23 21 2 0.24450453D-01 0.12468632D+00 0.50478103D+05 0.50478103D+05 0.50478103D+05 0.11469320D+01  1  2  1  2  7  2        2 0.364396191263D-03 0.100000000000D+01
  </mgrwgt>
  </event>
  <event>
  9     66 0.27870365E-05 0.16661651E+03 0.75467711E-02 0.10097756E+00
       -2 -1    0    0    0  501 0.00000000E+00 0.00000000E+00 0.35650810E+03 0.35650825E+03 0.32000000E+00 0.0000E+00 0.9000E+01
        2 -1    0    0  502    0 0.00000000E+00 0.00000000E+00 -.54891132E+03 0.54891141E+03 0.32000000E+00 0.0000E+00 0.9000E+01
       25  2    1    2    0    0 -.21687853E+03 0.30354975E+02 -.33824470E+03 0.50238824E+03 0.30004457E+03 0.0000E+00 0.0000E+00
       23  2    3    3    0    0 -.52130947E+02 -.15310788E+02 0.90798966E+01 0.10467383E+03 0.89006233E+02 0.0000E+00 0.0000E+00
       23  1    1    2    0    0 0.59593366E+02 0.92171237E+02 0.14529962E+03 0.20365200E+03 0.91188000E+02 0.0000E+00 0.9000E+01
      -13  1    4    4    0    0 -.27616182E+02 -.15472645E+02 -.39284226E+02 0.50451143E+02 0.10565837E+00 0.0000E+00 0.9000E+01
       13  1    4    4    0    0 -.24514765E+02 0.16185708E+00 0.48364122E+02 0.54222683E+02 0.10565837E+00 0.0000E+00 0.9000E+01
       23  1    3    3    0    0 -.16474759E+03 0.45665763E+02 -.34732459E+03 0.39771441E+03 0.91188000E+02 0.0000E+00 0.9000E+01
       21  1    1    2  502  501 0.15728517E+03 -.12252621E+03 0.54186303E+00 0.19937942E+03 0.75000000E+00 0.0000E+00 0.9000E+01
#aMCatNLO 2  0  0  2  1 0.19937727D+03 0.00000000D+00  -5  7  0 0.00000000D+00 0.00000000D+00 0.00000000D+00 0.00000000D+00 0.00000000D+00
  <mgrwgt>
 0.6811295114D-04    1    2    0
 0.324620439508044D+03 0.000000000000000D+00 0.000000000000000D+00 0.324620439508044D+03
 0.324620439508044D+03 0.000000000000000D+00 0.000000000000000D+00 -.324620439508044D+03
 0.261691952332477D+03 0.120532350587401D+03 0.446993548380141D+02 0.208905114132049D+03
 0.394198866424701D+02 -.180603518137854D+02 -.229167269987461D+02 -.265061271960359D+02
 0.673700650588854D+02 -.823713336354510D+01 -.125185028550702D+02 0.656822836559237D+02
 0.280758974982256D+03 -.942348654100704D+02 -.926412498419781D+01 -.248081270591937D+03
 0.000000000000000D+00 0.000000000000000D+00 -.000000000000000D+00 0.000000000000000D+00
 0.471895909569501D+03 0.000000000000000D+00 0.000000000000000D+00 0.471895909569501D+03
 0.414690668754702D+03 0.000000000000000D+00 0.000000000000000D+00 -.414690668754702D+03
 0.252989138481375D+03 0.595933659142868D+02 0.921712366957804D+02 0.208905114132049D+03
 0.412871886860344D+02 -.276161861240737D+02 -.154726673403230D+02 -.265061271960359D+02
 0.701082168931917D+02 -.245147605511228D+02 0.161878987825455D+00 0.656822836559237D+02
 0.314780395786451D+03 -.164747587239667D+03 0.456657629704495D+02 -.248081270591937D+03
 0.207421638477152D+03 0.157285168000576D+03 -.122526211313732D+03 0.572052408147992D+02
0.246194487009D-05 0.000000000000D+00 0.000000000000D+00 0.210498411526D-06 0.387530817024D-10  7 -2 2 23 -13 13 23 21 2 0.54847333D-01 0.84447782D-01 0.87616725D+05 0.87616725D+05 0.87616725D+05 0.11264641D+01  1  2  1  2  7  2        2 0.681129511426D-04 0.100000000000D+01
  </mgrwgt>
  </event>
  <event>
  8     66 0.27870365E-05 0.17667327E+03 0.75467711E-02 0.95672711E-01
       -4 -1    0    0    0  501 0.00000000E+00 0.00000000E+00 0.58263749E+03 0.58263955E+03 0.15500000E+01 0.0000E+00 0.9000E+01
        4 -1    0    0  501    0 0.00000000E+00 0.00000000E+00 -.36136277E+03 0.36136609E+03 0.15500000E+01 0.0000E+00 0.9000E+01
       25  2    1    2    0    0 0.34056680E+03 0.14590042E+03 -.44383776E+02 0.47907300E+03 0.30044691E+03 0.0000E+00 0.0000E+00
       23  2    3    3    0    0 0.19627021E+03 0.68007938E+02 -.13631103E+03 0.27013614E+03 0.10604603E+03 0.0000E+00 0.0000E+00
       23  1    1    2    0    0 -.34056680E+03 -.14590042E+03 0.26565849E+03 0.46493264E+03 0.91188000E+02 0.0000E+00 0.9000E+01
      -11  1    4    4    0    0 0.95540146E+02 0.20158459E+02 -.48743209E+01 0.97765239E+02 0.51099893E-03 0.0000E+00 0.9000E+01
       11  1    4    4    0    0 0.10073007E+03 0.47849479E+02 -.13143670E+03 0.17237090E+03 0.51099893E-03 0.0000E+00 0.9000E+01
       23  1    3    3    0    0 0.14429658E+03 0.77892484E+02 0.91927249E+02 0.20893687E+03 0.91188000E+02 0.0000E+00 0.9000E+01
#aMCatNLO 1  0  0  2  1 0.12887306D+03 0.00000000D+00  -5  7  0 0.00000000D+00 0.00000000D+00 0.00000000D+00 0.00000000D+00 0.00000000D+00
  <mgrwgt>
 0.2997918984D-04    9    2    0
 0.458852959553199D+03 0.000000000000000D+00 0.000000000000000D+00 0.458852959553199D+03
 0.458852959553199D+03 0.000000000000000D+00 0.000000000000000D+00 -.458852959553199D+03
 0.414201894245752D+03 -.340566795685188D+03 -.145900422193906D+03 0.161168490509566D+03
 0.101742289143504D+03 0.955401454736696D+02 0.201584594553212D+02 -.285868941198354D+02
 0.209002377082710D+03 0.100730065538591D+03 0.478494786803131D+02 -.176765027403151D+03
 0.192759358634431D+03 0.144296584672928D+03 0.778924840582720D+02 0.441834310134204D+02
 0.000000000000000D+00 0.000000000000000D+00 -.000000000000000D+00 -.000000000000000D+00
 0.479103300938269D+03 0.000000000000000D+00 0.000000000000000D+00 0.479103300938269D+03
 0.727011472258001D+03 0.000000000000000D+00 0.000000000000000D+00 -.727011472258001D+03
 0.445563086798516D+03 -.389676551372037D+03 -.111301913510444D+03 0.161168490509566D+03
 0.934029313041724D+02 0.843934550280998D+02 0.280114585342027D+02 -.285868941198354D+02
 0.203359268530881D+03 0.771759779481502D+02 0.644436623131009D+02 -.176765027403151D+03
 0.184385250521232D+03 0.122754093384494D+03 0.930694700049950D+02 0.441834310134204D+02
 0.279404236041468D+03 0.105353025011293D+03 -.742226773418551D+02 -.247908171319731D+03
0.401914654701D-04 0.000000000000D+00 0.000000000000D+00 0.577336673867D-08 0.000000000000D+00  7 -4 4 23 -11 11 23 21 0 0.89636951D-01 0.55594687D-01 0.15145646D+06 0.15145646D+06 0.15145646D+06 0.11072209D+01  1  2  2  2  7  2        4 0.273452002645D-04 0.100000000000D+01
-.215921367298D-05 0.000000000000D+00 -.154345810061D-06 0.577336673867D-08 0.000000000000D+00  7 -4 4 23 -11 11 23 21 2 0.89636951D-01 0.55594687D-01 0.15145646D+06 0.15145646D+06 0.15145646D+06 0.11072209D+01  1  2  3  2  7  2        4 -.180099051630D-05 0.100000000000D+01
0.248485380291D-05 0.000000000000D+00 0.000000000000D+00 0.577336673867D-08 0.000000000000D+00  7 -4 4 23 -11 11 23 21 2 0.89636951D-01 0.55594687D-01 0.15145646D+06 0.15145646D+06 0.15145646D+06 0.11072209D+01  1  2 15  2  7  2        4 0.207260549960D-05 0.100000000000D+01
0.838083473661D-04 0.000000000000D+00 0.000000000000D+00 0.577336673867D-08 0.000000000000D+00  7 -4 4 23 -11 11 23 21 2 0.89636951D-01 0.88715142D-01 0.20827538D+06 0.20827538D+06 0.20827538D+06 0.10964756D+01  1  2 12  2  7  2        4 0.215901710629D-04 0.100000000000D+01
-.874885648742D-04 0.000000000000D+00 0.000000000000D+00 0.577336673867D-08 0.000000000000D+00  7 -4 4 23 -11 11 23 21 2 0.89636951D-01 0.55594687D-01 0.15145646D+06 0.15145646D+06 0.15145646D+06 0.11072209D+01  1  2  4  2  7  2        4 -.729738226442D-04 0.100000000000D+01
-.968885305992D-04 0.000000000000D+00 -.153324894533D-04 0.577336673867D-08 0.000000000000D+00  7 -4 4 23 -11 11 23 21 2 0.89636951D-01 0.90205735D-01 0.15145646D+06 0.15145646D+06 0.15145646D+06 0.11072209D+01  1  2  5  2  7  2        4 -.243384356316D-04 0.100000000000D+01
0.946418369186D-04 0.000000000000D+00 0.136966306427D-04 0.577336673867D-08 0.000000000000D+00  7 -4 4 23 -11 11 23 21 2 0.89636951D-01 0.55594687D-01 0.15145646D+06 0.15145646D+06 0.15145646D+06 0.11072209D+01  1  2  6  2  7  2        4 0.789403350249D-04 0.100000000000D+01
0.448270544012D-05 0.000000000000D+00 0.000000000000D+00 0.577336673867D-08 0.000000000000D+00  7 -4 21 23 -11 11 23 -4 2 0.89636951D-01 0.88715142D-01 0.20827538D+06 0.20827538D+06 0.20827538D+06 0.10964756D+01  1  2 12  4  7  2        4 0.255615459237D-04 0.100000000000D+01
-.465867653503D-05 0.000000000000D+00 -.842661648019D-06 0.577336673867D-08 0.000000000000D+00  7 -4 21 23 -11 11 23 -4 2 0.89636951D-01 0.90205735D-01 0.15145646D+06 0.15145646D+06 0.15145646D+06 0.11072209D+01  1  2  5  4  7  2        4 -.264174191458D-04 0.100000000000D+01
  </mgrwgt>
  </event>
  <event>
  6     66 0.27870365E-05 0.19178482E+03 0.75467711E-02 0.10063834E+00
       -2 -1    0    0    0  501 0.00000000E+00 0.00000000E+00 0.23435974E+03 0.23435996E+03 0.32000000E+00 0.0000E+00 0.9000E+01
        2 -1    0    0  501    0 0.00000000E+00 0.00000000E+00 -.79914600E+03 0.79914607E+03 0.32000000E+00 0.0000E+00 0.9000E+01
       23  1    1    2    0    0 -.19105662E+03 0.11213925E+03 0.10009123E+03 0.25963696E+03 0.91188000E+02 0.0000E+00 0.9000E+01
      -13  1    1    2    0    0 -.61069883E+01 0.18506093E+02 -.13325344E+03 0.13467093E+03 0.10565837E+00 0.0000E+00 0.9000E+01
       13  1    1    2    0    0 0.21362570E+03 -.11632285E+03 -.28125747E+03 0.37185040E+03 0.10565837E+00 0.0000E+00 0.9000E+01
       23  1    1    2    0    0 -.16462085E+02 -.14322492E+02 -.25036658E+03 0.26734773E+03 0.91188000E+02 0.0000E+00 0.9000E+01
#aMCatNLO 1  0  0  1  2 0.13696079D+02 0.00000000D+00  -5  7  0 0.00000000D+00 0.00000000D+00 0.00000000D+00 0.00000000D+00 0.00000000D+00
  <mgrwgt>
 0.1006482904D-02    9    2    0
 0.432767603858141D+03 0.000000000000000D+00 0.000000000000000D+00 0.432767603858141D+03
 0.432767603858141D+03 0.000000000000000D+00 0.000000000000000D+00 -.432767603858141D+03
 0.375336225295464D+03 -.191056748807107D+03 0.112139324550238D+03 0.288936188975562D+03
 0.738532804315498D+02 -.610638147971326D+01 0.185057028461103D+02 -.712359326316208D+02
 0.260485262980023D+03 0.213625761160674D+03 -.116322547394851D+03 -.931969493377698D+02
 0.155860439009246D+03 -.164626308738537D+02 -.143224800014969D+02 -.124503307006171D+03
 0.000000000000000D+00 -.000000000000000D+00 0.000000000000000D+00 0.000000000000000D+00
 0.454539350791594D+03 0.000000000000000D+00 0.000000000000000D+00 0.454539350791594D+03
 0.434981122963935D+03 0.000000000000000D+00 0.000000000000000D+00 -.434981122963935D+03
 0.372686163781007D+03 -.189043699904828D+03 0.106574310020640D+03 0.288936188975562D+03
 0.735542888377335D+02 -.570968393450805D+01 0.174090441407886D+02 -.712359326316208D+02
 0.263398650812021D+03 0.215035617273247D+03 -.120220053184317D+03 -.931969493377698D+02
 0.156004459695487D+03 -.156233521287722D+02 -.166426414270207D+02 -.124503307006171D+03
 0.238769106292799D+02 -.465888130513882D+01 0.128793404499083D+02 0.195582278276587D+02
0.199585487272D-04 0.000000000000D+00 0.000000000000D+00 0.236467286842D-12 0.000000000000D+00  7 -2 2 23 -13 13 23 21 0 0.36055367D-01 0.12294556D+00 0.88822119D+05 0.88822119D+05 0.88822119D+05 0.11259711D+01  1  2  2  1  7  1       -2 0.620097309465D-03 0.100000000000D+01
-.921236206618D-06 0.000000000000D+00 -.766460823191D-07 0.236467286842D-12 0.000000000000D+00  7 -2 2 23 -13 13 23 21 2 0.36055367D-01 0.12294556D+00 0.88822119D+05 0.88822119D+05 0.88822119D+05 0.11259711D+01  1  2  3  1  7  1       -2 -.362874447850D-04 0.100000000000D+01
0.124265294271D-05 0.000000000000D+00 0.000000000000D+00 0.236467286842D-12 0.000000000000D+00  7 -2 2 23 -13 13 23 21 2 0.36055367D-01 0.12294556D+00 0.88822119D+05 0.88822119D+05 0.88822119D+05 0.11259711D+01  1  2 15  1  7  1       -2 0.489480327861D-04 0.100000000000D+01
0.152398416425D-03 0.000000000000D+00 0.000000000000D+00 0.236467286842D-12 0.000000000000D+00  7 -2 2 23 -13 13 23 21 2 0.37958748D-01 0.12294556D+00 0.92347362D+05 0.92347362D+05 0.92347362D+05 0.11245705D+01  1  2 12  1  7  1       -2 0.544757385469D-02 0.100000000000D+01
-.155321060355D-03 0.000000000000D+00 0.000000000000D+00 0.236467286842D-12 0.000000000000D+00  7 -2 2 23 -13 13 23 21 2 0.36055367D-01 0.12294556D+00 0.88822119D+05 0.88822119D+05 0.88822119D+05 0.11259711D+01  1  2  4  1  7  1       -2 -.611808823958D-02 0.100000000000D+01
-.482015454640D-03 0.000000000000D+00 -.494153192887D-04 0.236467286842D-12 0.000000000000D+00  7 -2 2 23 -13 13 23 21 2 0.38009945D-01 0.12294556D+00 0.88822119D+05 0.88822119D+05 0.88822119D+05 0.11259711D+01  1  2  5  1  7  1       -2 -.172426756999D-01 0.100000000000D+01
0.484018336295D-03 0.000000000000D+00 0.493465387432D-04 0.236467286842D-12 0.000000000000D+00  7 -2 2 23 -13 13 23 21 2 0.36055367D-01 0.12294556D+00 0.88822119D+05 0.88822119D+05 0.88822119D+05 0.11259711D+01  1  2  6  1  7  1       -2 0.190654563152D-01 0.100000000000D+01
0.245711421730D-05 0.000000000000D+00 0.000000000000D+00 0.236467286842D-12 0.000000000000D+00  7 21 2 23 -13 13 23 2 2 0.37958748D-01 0.12294556D+00 0.92347362D+05 0.92347362D+05 0.92347362D+05 0.11245705D+01  1  2 12  3  7  1       -2 0.997987416888D-03 0.100000000000D+01
-.436699733070D-05 0.000000000000D+00 -.452648268900D-06 0.236467286842D-12 0.000000000000D+00  7 21 2 23 -13 13 23 2 2 0.38009945D-01 0.12294556D+00 0.88822119D+05 0.88822119D+05 0.88822119D+05 0.11259711D+01  1  2  5  3  7  1       -2 -.177652864062D-02 0.100000000000D+01
  </mgrwgt>
  </event>
  <event>
  8     66 0.27870365E-05 0.18799899E+03 0.75467711E-02 0.97278865E-01
       -2 -1    0    0    0  501 0.00000000E+00 0.00000000E+00 0.35068766E+03 0.35068780E+03 0.32000000E+00 0.0000E+00 0.9000E+01
        2 -1    0    0  501    0 0.00000000E+00 0.00000000E+00 -.60862169E+03 0.60862177E+03 0.32000000E+00 0.0000E+00 0.9000E+01
       25  2    1    2    0    0 0.36911324E+03 0.19770120E+02 0.37756161E+02 0.47724798E+03 0.29950737E+03 0.0000E+00 0.0000E+00
       23  2    3    3    0    0 0.11704386E+03 0.59425710E+02 -.88996501E+02 0.17809413E+03 0.81033707E+02 0.0000E+00 0.0000E+00
       23  1    1    2    0    0 -.36911324E+03 -.19770120E+02 -.29569019E+03 0.48206159E+03 0.91188000E+02 0.0000E+00 0.9000E+01
      -11  1    4    4    0    0 0.53787565E+02 0.49474395E+02 -.87550622E+02 0.11404354E+03 0.51099893E-03 0.0000E+00 0.9000E+01
       11  1    4    4    0    0 0.63256290E+02 0.99513149E+01 -.14458797E+01 0.64050586E+02 0.51099893E-03 0.0000E+00 0.9000E+01
       23  1    3    3    0    0 0.25206938E+03 -.39655590E+02 0.12675266E+03 0.29915385E+03 0.91188000E+02 0.0000E+00 0.9000E+01
#aMCatNLO 1  0  0  1  2 0.74205513D+01 0.00000000D+00  -5  7  0 0.00000000D+00 0.00000000D+00 0.00000000D+00 0.00000000D+00 0.00000000D+00
  <mgrwgt>
 0.1534316675D-02   11    2    0
 0.461991584131068D+03 0.000000000000000D+00 0.000000000000000D+00 0.461991584131068D+03
 0.461991584131068D+03 0.000000000000000D+00 0.000000000000000D+00 -.461991584131068D+03
 0.417948890157410D+03 -.369113237347367D+03 -.197701201890496D+02 -.172425589175354D+03
 0.939635903491403D+02 0.537875645867881D+02 0.494743948764587D+02 -.590621575861515D+02
 0.660957910785539D+02 0.632562904451328D+02 0.995131492367979D+01 0.163788476002005D+02
 0.345974896677031D+03 0.252069382315446D+03 -.396555896110888D+02 0.215108899161305D+03
 0.000000000000000D+00 -.000000000000000D+00 0.000000000000000D+00 0.000000000000000D+00
 0.478989731921658D+03 0.000000000000000D+00 0.000000000000000D+00 0.478989731921658D+03
 0.462817054537171D+03 0.000000000000000D+00 0.000000000000000D+00 -.462817054537171D+03
 0.415923547979632D+03 -.366686719021050D+03 -.220774253724310D+02 -.172425589175354D+03
 0.940058693204910D+02 0.543345443379060D+02 0.489542878567542D+02 -.590621575861515D+02
 0.664110014559854D+02 0.636418771916679D+02 0.958467178347572D+01 0.163788476002005D+02
 0.347672546420132D+03 0.254087854393068D+03 -.415748955716898D+02 0.215108899161305D+03
 0.177938212825886D+02 -.537755690159236D+01 0.511336130389086D+01 0.161726773844874D+02
0.220575681580D-04 0.000000000000D+00 0.000000000000D+00 0.105002538886D-07 0.000000000000D+00  7 -2 2 23 -11 11 23 21 0 0.53951965D-01 0.93634123D-01 0.15555643D+06 0.15555643D+06 0.15555643D+06 0.11063075D+01  1  2  2  1  7  1       -2 0.436602181380D-03 0.100000000000D+01
-.118814816186D-05 0.000000000000D+00 -.847068696178D-07 0.105002538886D-07 0.000000000000D+00  7 -2 2 23 -11 11 23 21 2 0.53951965D-01 0.93634123D-01 0.15555643D+06 0.15555643D+06 0.15555643D+06 0.11063075D+01  1  2  3  1  7  1       -2 -.287839611723D-04 0.100000000000D+01
0.135136861571D-05 0.000000000000D+00 0.000000000000D+00 0.105002538886D-07 0.000000000000D+00  7 -2 2 23 -11 11 23 21 2 0.53951965D-01 0.93634123D-01 0.15555643D+06 0.15555643D+06 0.15555643D+06 0.11063075D+01  1  2 15  1  7  1       -2 0.327381239247D-04 0.100000000000D+01
0.209294730486D-03 0.000000000000D+00 0.000000000000D+00 0.105002538886D-07 0.000000000000D+00  7 -2 2 23 -11 11 23 21 2 0.55984255D-01 0.93634123D-01 0.15862409D+06 0.15862409D+06 0.15862409D+06 0.11056411D+01  1  2 12  1  7  1       -2 0.469845637297D-02 0.100000000000D+01
-.227938045688D-03 0.000000000000D+00 0.000000000000D+00 0.105002538886D-07 0.000000000000D+00  7 -2 2 23 -11 11 23 21 2 0.53951965D-01 0.93634123D-01 0.15555643D+06 0.15555643D+06 0.15555643D+06 0.11063075D+01  1  2  4  1  7  1       -2 -.552200480326D-02 0.100000000000D+01
-.122119514582D-02 0.000000000000D+00 -.755311186815D-04 0.105002538886D-07 0.000000000000D+00  7 -2 2 23 -11 11 23 21 2 0.55993776D-01 0.93634123D-01 0.15555643D+06 0.15555643D+06 0.15555643D+06 0.11063075D+01  1  2  5  1  7  1       -2 -.274497665122D-01 0.100000000000D+01
0.122320891477D-02 0.000000000000D+00 0.754790375191D-04 0.105002538886D-07 0.000000000000D+00  7 -2 2 23 -11 11 23 21 2 0.53951965D-01 0.93634123D-01 0.15555643D+06 0.15555643D+06 0.15555643D+06 0.11063075D+01  1  2  6  1  7  1       -2 0.296333395434D-01 0.100000000000D+01
0.157662132600D-04 0.000000000000D+00 0.000000000000D+00 0.105002538886D-07 0.124392327011D-08  7 -2 2 23 -11 11 23 21 2 0.55937030D-01 0.93801426D-01 0.15862409D+06 0.15862409D+06 0.15862409D+06 0.11056411D+01  1  2 11  1  7  1       -2 0.353803800887D-03 0.100000000000D+01
0.528661516803D-05 0.000000000000D+00 0.000000000000D+00 0.105002538886D-07 0.000000000000D+00  7 21 2 23 -11 11 23 2 2 0.55984255D-01 0.93634123D-01 0.15862409D+06 0.15862409D+06 0.15862409D+06 0.11056411D+01  1  2 12  3  7  1       -2 0.123523951466D-02 0.100000000000D+01
-.802856252945D-05 0.000000000000D+00 -.497957881917D-06 0.105002538886D-07 0.000000000000D+00  7 21 2 23 -11 11 23 2 2 0.55993776D-01 0.93634123D-01 0.15555643D+06 0.15555643D+06 0.15555643D+06 0.11063075D+01  1  2  5  3  7  1       -2 -.187932517070D-02 0.100000000000D+01
0.102813810575D-06 0.000000000000D+00 0.000000000000D+00 0.105002538886D-07 0.802372170004D-11  7 21 2 23 -11 11 23 2 2 0.55937030D-01 0.93801426D-01 0.15862409D+06 0.15862409D+06 0.15862409D+06 0.11056411D+01  1  2 11  3  7  1       -2 0.240175850403D-04 0.100000000000D+01
  </mgrwgt>
  </event>
  <event>
  8     66 0.27870365E-05 0.40603337E+03 0.75467711E-02 0.88498240E-01
       -2 -1    0    0    0  501 0.00000000E+00 0.00000000E+00 0.49154364E+03 0.49154374E+03 0.32000000E+00 0.0000E+00 0.9000E+01
        2 -1    0    0  501    0 0.00000000E+00 0.00000000E+00 -.11948830E+04 0.11948830E+04 0.32000000E+00 0.0000E+00 0.9000E+01
       25  2    1    2    0    0 0.68594254E+03 -.25212836E+03 -.28744681E+03 0.84063263E+03 0.29991943E+03 0.0000E+00 0.0000E+00
       23  2    3    3    0    0 0.16635767E+03 -.96878114E+02 0.15361469E+02 0.21287536E+03 0.89552789E+02 0.0000E+00 0.0000E+00
       23  1    1    2    0    0 -.68594254E+03 0.25212836E+03 -.41589254E+03 0.84579414E+03 0.91188000E+02 0.0000E+00 0.9000E+01
      -13  1    4    4    0    0 0.39119238E+02 0.11369801E+02 -.14364756E+02 0.43196580E+02 0.10565837E+00 0.0000E+00 0.9000E+01
       13  1    4    4    0    0 0.12723843E+03 -.10824792E+03 0.29726225E+02 0.16967878E+03 0.10565837E+00 0.0000E+00 0.9000E+01
       23  1    3    3    0    0 0.51958487E+03 -.15525025E+03 -.30280828E+03 0.62775727E+03 0.91188000E+02 0.0000E+00 0.9000E+01
#aMCatNLO 1  0  0  1  2 0.26219660D+03 0.00000000D+00  -5  7  0 0.00000000D+00 0.00000000D+00 0.00000000D+00 0.00000000D+00 0.00000000D+00
  <mgrwgt>
 0.7191587291D-03    9    2    0
 0.766379315948279D+03 0.000000000000000D+00 0.000000000000000D+00 0.766379315948279D+03
 0.766379315948279D+03 0.000000000000000D+00 0.000000000000000D+00 -.766379315948279D+03
 0.739748764732131D+03 -.685942540767449D+03 0.252128364939271D+03 -.694773483752763D+02
 0.409354938277309D+02 0.391191155702389D+02 0.113699676350019D+02 0.401662643290316D+01
 0.200330826518808D+03 0.127238552464637D+03 -.108248081919129D+03 0.110567371232395D+03
 0.551743546817888D+03 0.519584872732574D+03 -.155250250655143D+03 -.451066492900217D+02
 0.000000000000000D+00 -.000000000000000D+00 0.000000000000000D+00 0.000000000000000D+00
 0.936706976452429D+03 0.000000000000000D+00 0.000000000000000D+00 0.936706976452429D+03
 0.885471508794688D+03 0.000000000000000D+00 0.000000000000000D+00 -.885471508794688D+03
 0.625671523602910D+03 -.575070852075428D+03 0.218210946699672D+03 -.694773483752763D+02
 0.473601964107972D+02 0.462886972474749D+02 0.917667822795357D+01 0.401662643290316D+01
 0.229471166334149D+03 0.162138336185377D+03 -.118924482494356D+03 0.110567371232395D+03
 0.652519969120727D+03 0.617370683287003D+03 -.185164490021386D+03 -.451066492900217D+02
 0.267155629778534D+03 -.250726864644426D+03 0.767013475881160D+02 0.512354676577414D+02
0.129086304341D-03 0.000000000000D+00 0.000000000000D+00 0.133569893946D-05 0.000000000000D+00  7 -2 2 23 -13 13 23 21 0 0.75622110D-01 0.18382816D+00 0.55813470D+06 0.55813470D+06 0.55813470D+06 0.10651506D+01  1  2  2  1  7  1       -2 0.485528299070D-03 0.100000000000D+01
-.716579178043D-05 0.000000000000D+00 -.495725397872D-06 0.133569893946D-05 0.000000000000D+00  7 -2 2 23 -13 13 23 21 2 0.75622110D-01 0.18382816D+00 0.55813470D+06 0.55813470D+06 0.55813470D+06 0.10651506D+01  1  2  3  1  7  1       -2 -.305788128224D-04 0.100000000000D+01
0.804994935661D-05 0.000000000000D+00 0.000000000000D+00 0.133569893946D-05 0.000000000000D+00  7 -2 2 23 -13 13 23 21 2 0.75622110D-01 0.18382816D+00 0.55813470D+06 0.55813470D+06 0.55813470D+06 0.10651506D+01  1  2 15  1  7  1       -2 0.343518067714D-04 0.100000000000D+01
0.708506472509D-04 0.000000000000D+00 0.000000000000D+00 0.133569893946D-05 0.000000000000D+00  7 -2 2 23 -13 13 23 21 2 0.97207360D-01 0.18382816D+00 0.79497199D+06 0.79497199D+06 0.79497199D+06 0.10545623D+01  1  2 12  1  7  1       -2 0.162968696794D-03 0.100000000000D+01
-.727515400224D-04 0.000000000000D+00 0.000000000000D+00 0.133569893946D-05 0.000000000000D+00  7 -2 2 23 -13 13 23 21 2 0.75622110D-01 0.18382816D+00 0.55813470D+06 0.55813470D+06 0.55813470D+06 0.10651506D+01  1  2  4  1  7  1       -2 -.310454977350D-03 0.100000000000D+01
-.158686542119D-03 0.000000000000D+00 -.599046719902D-04 0.133569893946D-05 0.000000000000D+00  7 -2 2 23 -13 13 23 21 2 0.10453992D+00 0.18382816D+00 0.55813470D+06 0.55813470D+06 0.55813470D+06 0.10651506D+01  1  2  5  1  7  1       -2 -.317275596940D-03 0.100000000000D+01
0.171997214496D-03 0.000000000000D+00 0.568954942312D-04 0.133569893946D-05 0.000000000000D+00  7 -2 2 23 -13 13 23 21 2 0.75622110D-01 0.18382816D+00 0.55813470D+06 0.55813470D+06 0.55813470D+06 0.10651506D+01  1  2  6  1  7  1       -2 0.733969223389D-03 0.100000000000D+01
0.240557511995D-05 0.000000000000D+00 0.000000000000D+00 0.133569893946D-05 0.000000000000D+00  7 21 2 23 -13 13 23 2 2 0.97207360D-01 0.18382816D+00 0.79497199D+06 0.79497199D+06 0.79497199D+06 0.10545623D+01  1  2 12  3  7  1       -2 0.497227581054D-04 0.100000000000D+01
-.497188945582D-05 0.000000000000D+00 -.244681094008D-05 0.133569893946D-05 0.000000000000D+00  7 21 2 23 -13 13 23 2 2 0.10453992D+00 0.18382816D+00 0.55813470D+06 0.55813470D+06 0.55813470D+06 0.10651506D+01  1  2  5  3  7  1       -2 -.890726679279D-04 0.100000000000D+01
  </mgrwgt>
  </event>
  <event>
  8     66 0.27870365E-05 0.22534911E+03 0.75467711E-02 0.97086100E-01
       -2 -1    0    0    0  501 0.00000000E+00 0.00000000E+00 0.39882763E+02 0.39884047E+02 0.32000000E+00 0.0000E+00 0.9000E+01
        2 -1    0    0  501    0 0.00000000E+00 0.00000000E+00 -.46238625E+04 0.46238625E+04 0.32000000E+00 0.0000E+00 0.9000E+01
       25  2    1    2    0    0 0.24736579E+03 0.25161849E+03 -.31604895E+04 0.31943449E+04 0.30107042E+03 0.0000E+00 0.0000E+00
       23  2    3    3    0    0 0.19054209E+03 0.26003086E+03 -.18996616E+04 0.19289193E+04 0.89960658E+02 0.0000E+00 0.0000E+00
       23  1    1    2    0    0 -.24736579E+03 -.25161849E+03 -.14234902E+04 0.14694017E+04 0.91188000E+02 0.0000E+00 0.9000E+01
      -11  1    4    4    0    0 0.17333227E+03 0.21147132E+03 -.13884004E+04 0.14150689E+04 0.51099893E-03 0.0000E+00 0.9000E+01
       11  1    4    4    0    0 0.17209814E+02 0.48559542E+02 -.51126122E+03 0.51385041E+03 0.51099893E-03 0.0000E+00 0.9000E+01
       23  1    3    3    0    0 0.56823698E+02 -.84123726E+01 -.12608279E+04 0.12654256E+04 0.91188000E+02 0.0000E+00 0.9000E+01
#aMCatNLO 1  0  0  2  1 0.12323347D+02 0.00000000D+00  -5  7  0 0.00000000D+00 0.00000000D+00 0.00000000D+00 0.00000000D+00 0.00000000D+00
  <mgrwgt>
 0.1192614213D-03    6    2    0
 0.429436179707271D+03 0.000000000000000D+00 0.000000000000000D+00 0.429436179707271D+03
 0.429436179707271D+03 0.000000000000000D+00 0.000000000000000D+00 -.429436179707271D+03
 0.381508134524076D+03 -.247365785392370D+03 -.251618486418895D+03 0.112833996975739D+03
 0.273758029034785D+03 0.173332273919738D+03 0.211471317464029D+03 0.133889196297155D+02
 0.615423215484838D+02 0.172098139385960D+02 0.485595415257210D+02 -.336637872585314D+02
 0.142063874307197D+03 0.568236975340363D+02 -.841237257085490D+01 -.925591293469233D+02
 0.000000000000000D+00 0.000000000000000D+00 -.000000000000000D+00 0.000000000000000D+00
 0.435717850650111D+03 0.000000000000000D+00 0.000000000000000D+00 0.435717850650111D+03
 0.435567181574728D+03 0.000000000000000D+00 0.000000000000000D+00 -.435567181574728D+03
 0.378819936173110D+03 -.248582651890990D+03 -.246301536746162D+03 0.112833996975739D+03
 0.276189136169415D+03 0.172452111385775D+03 0.215317080250836D+03 0.133889196297155D+02
 0.621727520487839D+02 0.170118142405226D+02 0.494246770447502D+02 -.336637872585314D+02
 0.141778939930597D+03 0.563694215118408D+02 -.642746892671452D+01 -.925591293469233D+02
 0.123242679029321D+02 0.274930475285181D+01 -.120127516227096D+02 0.150669075382861D+00
0.746771549598D-04 0.000000000000D+00 0.000000000000D+00 0.110970460380D-06 0.000000000000D+00  7 -2 2 23 -11 11 23 21 0 0.61359093D-02 0.71136356D+00 0.15886709D+06 0.15886709D+06 0.15886709D+06 0.11055889D+01  1  2  2  2  7  2        2 0.116222541306D-03 0.100000000000D+01
-.412068771036D-05 0.000000000000D+00 -.286779937992D-06 0.110970460380D-06 0.000000000000D+00  7 -2 2 23 -11 11 23 21 2 0.61359093D-02 0.71136356D+00 0.15886709D+06 0.15886709D+06 0.15886709D+06 0.11055889D+01  1  2  3  2  7  2        2 -.783898204294D-05 0.100000000000D+01
0.480164371486D-05 0.000000000000D+00 0.000000000000D+00 0.110970460380D-06 0.000000000000D+00  7 -2 2 23 -11 11 23 21 2 0.61359093D-02 0.71136356D+00 0.15886709D+06 0.15886709D+06 0.15886709D+06 0.11055889D+01  1  2 15  2  7  2        2 0.913439733923D-05 0.100000000000D+01
0.321178177831D-04 0.000000000000D+00 0.000000000000D+00 0.110970460380D-06 0.000000000000D+00  7 -2 2 23 -11 11 23 21 2 0.61359093D-02 0.72664779D+00 0.16381470D+06 0.16381470D+06 0.16381470D+06 0.11045451D+01  1  2 12  2  7  2        2 0.476007966716D-04 0.100000000000D+01
-.241121947439D-04 0.000000000000D+00 0.000000000000D+00 0.110970460380D-06 0.000000000000D+00  7 -2 2 23 -11 11 23 21 2 0.61359093D-02 0.71136356D+00 0.15886709D+06 0.15886709D+06 0.15886709D+06 0.11055889D+01  1  2  4  2  7  2        2 -.458697855550D-04 0.100000000000D+01
0.920996658453D-06 0.000000000000D+00 0.000000000000D+00 0.110970460380D-06 0.000000000000D+00  7 -2 21 23 -11 11 23 -2 2 0.61359093D-02 0.72664779D+00 0.16381470D+06 0.16381470D+06 0.16381470D+06 0.11045451D+01  1  2 12  4  7  2        2 0.124536266678D-07 0.100000000000D+01
  </mgrwgt>
  </event>
  <event>
  8     66 0.27870365E-05 0.16907989E+03 0.75467711E-02 0.92318806E-01
       -2 -1    0    0    0  501 0.00000000E+00 0.00000000E+00 0.30308991E+03 0.30309008E+03 0.32000000E+00 0.0000E+00 0.9000E+01
        2 -1    0    0  501    0 0.00000000E+00 0.00000000E+00 -.85014374E+03 0.85014380E+03 0.32000000E+00 0.0000E+00 0.9000E+01
       25  2    1    2    0    0 -.50000630E+02 0.43098934E+03 -.46187976E+03 0.70176766E+03 0.30148477E+03 0.0000E+00 0.0000E+00
       23  2    3    3    0    0 -.34171687E+02 0.38035646E+03 -.25900908E+03 0.47310632E+03 0.10442772E+03 0.0000E+00 0.0000E+00
       23  1    1    2    0    0 0.50000630E+02 -.43098934E+03 -.85174074E+02 0.45146622E+03 0.91188000E+02 0.0000E+00 0.9000E+01
      -13  1    4    4    0    0 0.33243051E+02 0.60964790E+02 -.42867455E+02 0.81605367E+02 0.10565837E+00 0.0000E+00 0.9000E+01
       13  1    4    4    0    0 -.67414738E+02 0.31939167E+03 -.21614162E+03 0.39150095E+03 0.10565837E+00 0.0000E+00 0.9000E+01
       23  1    3    3    0    0 -.15828943E+02 0.50632878E+02 -.20287068E+03 0.22866134E+03 0.91188000E+02 0.0000E+00 0.9000E+01
#aMCatNLO 1  0  0  2  1 0.25423573D+03 0.00000000D+00  -5  7  0 0.00000000D+00 0.00000000D+00 0.00000000D+00 0.00000000D+00 0.00000000D+00
  <mgrwgt>
 0.5595946819D-03    9    2    0
 0.507612176032980D+03 0.000000000000000D+00 0.000000000000000D+00 0.507612176032980D+03
 0.507612176032980D+03 0.000000000000000D+00 0.000000000000000D+00 -.507612176032980D+03
 0.466942438825460D+03 0.500006298465216D+02 -.430989337758913D+03 0.146520024520039D+03
 0.695993912719247D+02 0.332431452636264D+02 0.609645273246257D+02 -.472175459854422D+01
 0.328253875803907D+03 -.674148316525563D+02 0.319391934233890D+03 -.345635617360067D+02
 0.150428646164669D+03 -.158289434575916D+02 0.506328762003979D+02 -.107234708185488D+03
 0.000000000000000D+00 -.000000000000000D+00 -.000000000000000D+00 -.000000000000000D+00
 0.594781562586539D+03 0.000000000000000D+00 0.000000000000000D+00 0.594781562586539D+03
 0.749302672967447D+03 0.000000000000000D+00 0.000000000000000D+00 -.749302672967447D+03
 0.449950904832611D+03 0.153745746104445D+03 -.386050117711575D+03 0.146520024520039D+03
 0.854558471123763D+02 0.507874145549718D+02 0.685641696662797D+02 -.472175459854422D+01
 0.354690523300460D+03 0.985930996145684D+01 0.352864735453061D+03 -.345635617360067D+02
 0.156476320857913D+03 0.188968964714695D+02 0.656750508895756D+02 -.107234708185488D+03
 0.297510639450625D+03 -.233289367092343D+03 -.101053838297342D+03 -.154521110380908D+03
0.296871704659D-04 0.000000000000D+00 0.000000000000D+00 0.159151089327D-08 0.000000000000D+00  7 -2 2 23 -13 13 23 21 0 0.46629234D-01 0.13079136D+00 0.22312562D+06 0.22312562D+06 0.22312562D+06 0.10941943D+01  1  2  2  2  7  2        2 0.515310330629D-03 0.100000000000D+01
-.163889971345D-05 0.000000000000D+00 -.114006551400D-06 0.159151089327D-08 0.000000000000D+00  7 -2 2 23 -13 13 23 21 2 0.46629234D-01 0.13079136D+00 0.22312562D+06 0.22312562D+06 0.22312562D+06 0.10941943D+01  1  2  3  2  7  2        2 -.340597398448D-04 0.100000000000D+01
0.187601735705D-05 0.000000000000D+00 0.000000000000D+00 0.159151089327D-08 0.000000000000D+00  7 -2 2 23 -13 13 23 21 2 0.46629234D-01 0.13079136D+00 0.22312562D+06 0.22312562D+06 0.22312562D+06 0.10941943D+01  1  2 15  2  7  2        2 0.389875369440D-04 0.100000000000D+01
0.101186398302D-04 0.000000000000D+00 0.000000000000D+00 0.159151089327D-08 0.000000000000D+00  7 -2 2 23 -13 13 23 21 2 0.46629234D-01 0.20001300D+00 0.37942160D+06 0.37942160D+06 0.37942160D+06 0.10770851D+01  1  2 12  2  7  2        2 0.106729897674D-03 0.100000000000D+01
-.183468100698D-04 0.000000000000D+00 0.000000000000D+00 0.159151089327D-08 0.000000000000D+00  7 -2 2 23 -13 13 23 21 2 0.46629234D-01 0.13079136D+00 0.22312562D+06 0.22312562D+06 0.22312562D+06 0.10941943D+01  1  2  4  2  7  2        2 -.381284817388D-03 0.100000000000D+01
-.236079328893D-04 0.000000000000D+00 -.104605827122D-04 0.159151089327D-08 0.000000000000D+00  7 -2 2 23 -13 13 23 21 2 0.46629234D-01 0.21157052D+00 0.22312562D+06 0.22312562D+06 0.22312562D+06 0.10941943D+01  1  2  5  2  7  2        2 -.237863604051D-03 0.100000000000D+01
0.266053598424D-04 0.000000000000D+00 0.935730407785D-05 0.159151089327D-08 0.000000000000D+00  7 -2 2 23 -13 13 23 21 2 0.46629234D-01 0.13079136D+00 0.22312562D+06 0.22312562D+06 0.22312562D+06 0.10941943D+01  1  2  6  2  7  2        2 0.552914633686D-03 0.100000000000D+01
0.503521066336D-06 0.000000000000D+00 0.000000000000D+00 0.159151089327D-08 0.000000000000D+00  7 -2 21 23 -13 13 23 -2 2 0.46629234D-01 0.20001300D+00 0.37942160D+06 0.37942160D+06 0.37942160D+06 0.10770851D+01  1  2 12  4  7  2        2 0.237046692518D-05 0.100000000000D+01
-.839902997774D-06 0.000000000000D+00 -.572079097094D-06 0.159151089327D-08 0.000000000000D+00  7 -2 21 23 -13 13 23 -2 2 0.46629234D-01 0.21157052D+00 0.22312562D+06 0.22312562D+06 0.22312562D+06 0.10941943D+01  1  2  5  4  7  2        2 -.351002267111D-05 0.100000000000D+01
  </mgrwgt>
  </event>
  <event>
  8     66 0.27870365E-05 0.11563115E+03 0.75467711E-02 0.10710439E+00
       -2 -1    0    0    0  501 0.00000000E+00 0.00000000E+00 0.56739177E+02 0.56740080E+02 0.32000000E+00 0.0000E+00 0.9000E+01
        2 -1    0    0  501    0 0.00000000E+00 0.00000000E+00 -.94951226E+03 0.94951232E+03 0.32000000E+00 0.0000E+00 0.9000E+01
       25  2    1    2    0    0 -.30945603E+01 0.58771408E+02 -.82132631E+03 0.87631569E+03 0.29981431E+03 0.0000E+00 0.0000E+00
       23  2    3    3    0    0 -.75606846E+02 0.80501102E+02 -.21547398E+03 0.25898068E+03 0.91897418E+02 0.0000E+00 0.0000E+00
       23  1    1    2    0    0 0.30945603E+01 -.58771408E+02 -.71446771E+02 0.12993670E+03 0.91188000E+02 0.0000E+00 0.9000E+01
      -11  1    4    4    0    0 -.13780537E+02 0.76913294E+02 -.90945600E+02 0.11990271E+03 0.51099893E-03 0.0000E+00 0.9000E+01
       11  1    4    4    0    0 -.61826309E+02 0.35878082E+01 -.12452838E+03 0.13907797E+03 0.51099893E-03 0.0000E+00 0.9000E+01
       23  1    3    3    0    0 0.72512286E+02 -.21729694E+02 -.60585233E+03 0.61733501E+03 0.91188000E+02 0.0000E+00 0.9000E+01
#aMCatNLO 1  0  0  2  1 0.12905806D+02 0.00000000D+00  -5  7  0 0.00000000D+00 0.00000000D+00 0.00000000D+00 0.00000000D+00 0.00000000D+00
  <mgrwgt>
 0.3227563270D-03    9    2    0
 0.232109943080918D+03 0.000000000000000D+00 0.000000000000000D+00 0.232109943080918D+03
 0.232109943080918D+03 0.000000000000000D+00 0.000000000000000D+00 -.232109943080918D+03
 0.144249239564063D+03 0.309456025287420D+01 -.587714077294054D+02 0.950207193256067D+02
 0.849998187575376D+02 -.137805369251514D+02 0.769132935602423D+02 0.334576039875059D+02
 0.619791554316081D+02 -.618263090386713D+02 0.358780823813814D+01 -.245984770188940D+01
 0.172991672408628D+03 0.725122857109486D+02 -.217296940689751D+02 -.126018475611223D+03
 0.000000000000000D+00 0.000000000000000D+00 -.000000000000000D+00 -.000000000000000D+00
 0.235942037419089D+03 0.000000000000000D+00 0.000000000000000D+00 0.235942037419089D+03
 0.243326124032720D+03 0.000000000000000D+00 0.000000000000000D+00 -.243326124032720D+03
 0.143351727045529D+03 -.271993799298816D+00 -.566167397608981D+02 0.950207193256067D+02
 0.865080138022042D+02 -.157881462718446D+02 0.781982072986103D+02 0.334576039875059D+02
 0.635045847118744D+02 -.632951768204522D+02 0.452791563291847D+01 -.245984770188940D+01
 0.171034923501659D+03 0.684852334232932D+02 -.191522928339899D+02 -.126018475611223D+03
 0.148689123905429D+02 0.108700834683025D+02 -.695709033664071D+01 -.738408661363062D+01
0.581117224721D-06 0.000000000000D+00 0.000000000000D+00 0.131143711349D-06 0.000000000000D+00  7 -2 2 23 -11 11 23 21 0 0.87291778D-02 0.14607888D+00 0.33692918D+05 0.33692918D+05 0.33692918D+05 0.11626868D+01  1  2  2  2  7  2        2 0.146713281319D-03 0.100000000000D+01
-.301222651935D-07 0.000000000000D+00 -.223164315461D-08 0.131143711349D-06 0.000000000000D+00  7 -2 2 23 -11 11 23 21 2 0.87291778D-02 0.14607888D+00 0.33692918D+05 0.33692918D+05 0.33692918D+05 0.11626868D+01  1  2  3  2  7  2        2 -.102806081653D-04 0.100000000000D+01
0.359099627616D-07 0.000000000000D+00 0.000000000000D+00 0.131143711349D-06 0.000000000000D+00  7 -2 2 23 -11 11 23 21 2 0.87291778D-02 0.14607888D+00 0.33692918D+05 0.33692918D+05 0.33692918D+05 0.11626868D+01  1  2 15  2  7  2        2 0.122559261069D-04 0.100000000000D+01
0.196701899505D-05 0.000000000000D+00 0.000000000000D+00 0.131143711349D-06 0.000000000000D+00  7 -2 2 23 -11 11 23 21 2 0.87291778D-02 0.15430342D+00 0.35931541D+05 0.35931541D+05 0.35931541D+05 0.11601351D+01  1  2 12  2  7  2        2 0.620992106959D-03 0.100000000000D+01
-.193145156577D-05 0.000000000000D+00 0.000000000000D+00 0.131143711349D-06 0.000000000000D+00  7 -2 2 23 -11 11 23 21 2 0.87291778D-02 0.14607888D+00 0.33692918D+05 0.33692918D+05 0.33692918D+05 0.11626868D+01  1  2  4  2  7  2        2 -.659196664343D-03 0.100000000000D+01
-.804307716097D-05 0.000000000000D+00 -.123758668416D-05 0.131143711349D-06 0.000000000000D+00  7 -2 2 23 -11 11 23 21 2 0.87291778D-02 0.15467995D+00 0.33692918D+05 0.33692918D+05 0.33692918D+05 0.11626868D+01  1  2  5  2  7  2        2 -.254054601390D-02 0.100000000000D+01
0.810263967658D-05 0.000000000000D+00 0.123556404459D-05 0.131143711349D-06 0.000000000000D+00  7 -2 2 23 -11 11 23 21 2 0.87291778D-02 0.14607888D+00 0.33692918D+05 0.33692918D+05 0.33692918D+05 0.11626868D+01  1  2  6  2  7  2        2 0.276539838836D-02 0.100000000000D+01
0.258927502761D-07 0.000000000000D+00 0.000000000000D+00 0.131143711349D-06 0.000000000000D+00  7 -2 21 23 -11 11 23 -2 2 0.87291778D-02 0.15430342D+00 0.35931541D+05 0.35931541D+05 0.35931541D+05 0.11601351D+01  1  2 12  4  7  2        2 0.626133908370D-05 0.100000000000D+01
-.779265385189D-07 0.000000000000D+00 -.122079090547D-07 0.131143711349D-06 0.000000000000D+00  7 -2 21 23 -11 11 23 -2 2 0.87291778D-02 0.15467995D+00 0.33692918D+05 0.33692918D+05 0.33692918D+05 0.11626868D+01  1  2  5  4  7  2        2 -.188414284282D-04 0.100000000000D+01
  </mgrwgt>
  </event>
  <event>
  8     66 0.27870365E-05 0.91243495E+02 0.75467711E-02 0.97111651E-01
       -2 -1    0    0    0  501 0.00000000E+00 0.00000000E+00 0.10495425E+04 0.10495425E+04 0.32000000E+00 0.0000E+00 0.9000E+01
        2 -1    0    0  501    0 0.00000000E+00 0.00000000E+00 -.15746185E+03 0.15746217E+03 0.32000000E+00 0.0000E+00 0.9000E+01
       25  2    1    2    0    0 0.16951764E+03 0.28378610E+03 0.35553112E+03 0.57023833E+03 0.29916316E+03 0.0000E+00 0.0000E+00
       23  2    3    3    0    0 0.55265581E+02 -.17584471E+02 0.58747862E+02 0.12271928E+03 0.90803145E+02 0.0000E+00 0.0000E+00
       23  1    1    2    0    0 -.16951764E+03 -.28378610E+03 0.53654953E+03 0.63676639E+03 0.91188000E+02 0.0000E+00 0.9000E+01
      -13  1    4    4    0    0 0.77681410E+02 -.59536051E+01 0.58562065E+02 0.97464729E+02 0.10565837E+00 0.0000E+00 0.9000E+01
       13  1    4    4    0    0 -.22415829E+02 -.11630866E+02 0.18579742E+00 0.25254546E+02 0.10565837E+00 0.0000E+00 0.9000E+01
       23  1    3    3    0    0 0.11425206E+03 0.30137057E+03 0.29678325E+03 0.44751905E+03 0.91188000E+02 0.0000E+00 0.9000E+01
#aMCatNLO 1  0  0  1  2 0.26662933D+02 0.00000000D+00  -5  7  0 0.00000000D+00 0.00000000D+00 0.00000000D+00 0.00000000D+00 0.00000000D+00
  <mgrwgt>
 0.3264763766D-03    9    2    0
 0.406525675664266D+03 0.000000000000000D+00 0.000000000000000D+00 0.406525675664266D+03
 0.406525675664266D+03 0.000000000000000D+00 0.000000000000000D+00 -.406525675664266D+03
 0.356600571348342D+03 -.169517636241824D+03 -.283786099053924D+03 0.978669358297545D+02
 0.804356945488450D+02 0.776815449647051D+02 -.595359741605931D+01 -.200008301642477D+02
 0.372873895194193D+02 -.224159641648403D+02 -.116308734767800D+02 -.274334968587789D+02
 0.338727695911926D+03 0.114252055441959D+03 0.301370569946763D+03 -.504326088067280D+02
 0.000000000000000D+00 0.000000000000000D+00 -.000000000000000D+00 0.000000000000000D+00
 0.434270948929306D+03 0.000000000000000D+00 0.000000000000000D+00 0.434270948929306D+03
 0.413200769613917D+03 0.000000000000000D+00 0.000000000000000D+00 -.413200769613917D+03
 0.348379603487092D+03 -.171175421272426D+03 -.272349288240901D+03 0.978669358297545D+02
 0.799202734091026D+02 0.773044624129717D+02 -.335216132787102D+01 -.200008301642477D+02
 0.370354121401937D+02 -.225907367789106D+02 -.104251433697267D+02 -.274334968587789D+02
 0.348153132466052D+03 0.112636831644555D+03 0.312513757181901D+03 -.504326088067280D+02
 0.339832970407829D+02 0.382486399381039D+01 -.263871642434020D+02 0.210701793153894D+02
0.242613805704D-04 0.000000000000D+00 0.000000000000D+00 0.182868394729D-06 0.000000000000D+00  7 -2 2 23 -13 13 23 21 0 0.16146810D+00 0.24224928D-01 0.15249945D+06 0.15249945D+06 0.15249945D+06 0.11069860D+01  1  2  2  1  7  1       -2 0.163159845093D-03 0.100000000000D+01
-.134520757341D-05 0.000000000000D+00 -.931700895584D-07 0.182868394729D-06 0.000000000000D+00  7 -2 2 23 -13 13 23 21 2 0.16146810D+00 0.24224928D-01 0.15249945D+06 0.15249945D+06 0.15249945D+06 0.11069860D+01  1  2  3  1  7  1       -2 -.110859091360D-04 0.100000000000D+01
0.155135239857D-05 0.000000000000D+00 0.000000000000D+00 0.182868394729D-06 0.000000000000D+00  7 -2 2 23 -13 13 23 21 2 0.16146810D+00 0.24224928D-01 0.15249945D+06 0.15249945D+06 0.15249945D+06 0.11069860D+01  1  2 15  1  7  1       -2 0.127847568423D-04 0.100000000000D+01
0.969345131572D-04 0.000000000000D+00 0.000000000000D+00 0.182868394729D-06 0.000000000000D+00  7 -2 2 23 -13 13 23 21 2 0.17375463D+00 0.24224928D-01 0.16311582D+06 0.16311582D+06 0.16311582D+06 0.11046905D+01  1  2 12  1  7  1       -2 0.643842647370D-03 0.100000000000D+01
-.976018054170D-04 0.000000000000D+00 0.000000000000D+00 0.182868394729D-06 0.000000000000D+00  7 -2 2 23 -13 13 23 21 2 0.16146810D+00 0.24224928D-01 0.15249945D+06 0.15249945D+06 0.15249945D+06 0.11069860D+01  1  2  4  1  7  1       -2 -.804340361848D-03 0.100000000000D+01
-.258845853435D-03 0.000000000000D+00 -.373173363268D-04 0.182868394729D-06 0.000000000000D+00  7 -2 2 23 -13 13 23 21 2 0.17401567D+00 0.24224928D-01 0.15249945D+06 0.15249945D+06 0.15249945D+06 0.11069860D+01  1  2  5  1  7  1       -2 -.172201242255D-02 0.100000000000D+01
0.261011592303D-03 0.000000000000D+00 0.372130783997D-04 0.182868394729D-06 0.000000000000D+00  7 -2 2 23 -13 13 23 21 2 0.16146810D+00 0.24224928D-01 0.15249945D+06 0.15249945D+06 0.15249945D+06 0.11069860D+01  1  2  6  1  7  1       -2 0.215100691737D-02 0.100000000000D+01
0.128255121581D-05 0.000000000000D+00 0.000000000000D+00 0.182868394729D-06 0.000000000000D+00  7 21 2 23 -13 13 23 2 2 0.17375463D+00 0.24224928D-01 0.16311582D+06 0.16311582D+06 0.16311582D+06 0.11046905D+01  1  2 12  3  7  1       -2 0.715583900225D-04 0.100000000000D+01
-.318645990341D-05 0.000000000000D+00 -.469657121845D-06 0.182868394729D-06 0.000000000000D+00  7 21 2 23 -13 13 23 2 2 0.17401567D+00 0.24224928D-01 0.15249945D+06 0.15249945D+06 0.15249945D+06 0.11069860D+01  1  2  5  3  7  1       -2 -.178437486596D-03 0.100000000000D+01
  </mgrwgt>
  </event>
  <event>
  8     66 0.27870365E-05 0.39566853E+03 0.75467711E-02 0.89679089E-01
       -2 -1    0    0    0  501 0.00000000E+00 0.00000000E+00 0.17570995E+03 0.17571024E+03 0.32000000E+00 0.0000E+00 0.9000E+01
        2 -1    0    0  501    0 0.00000000E+00 0.00000000E+00 -.15358833E+04 0.15358833E+04 0.32000000E+00 0.0000E+00 0.9000E+01
       25  2    1    2    0    0 -.75231260E+02 0.33550228E+03 -.19960006E+03 0.49772903E+03 0.29945363E+03 0.0000E+00 0.0000E+00
       23  2    3    3    0    0 -.13269082E+03 0.28607894E+03 -.10479068E+03 0.34591224E+03 0.96052996E+02 0.0000E+00 0.0000E+00
       23  1    1    2    0    0 0.75231260E+02 -.33550228E+03 -.11605733E+04 0.12138646E+04 0.91188000E+02 0.0000E+00 0.9000E+01
      -11  1    4    4    0    0 -.11680495E+03 0.22002957E+03 -.11967688E+03 0.27636745E+03 0.51099893E-03 0.0000E+00 0.9000E+01
       11  1    4    4    0    0 -.15885865E+02 0.66049369E+02 0.14886196E+02 0.69544796E+02 0.51099893E-03 0.0000E+00 0.9000E+01
       23  1    3    3    0    0 0.57459556E+02 0.49423340E+02 -.94809376E+02 0.15181679E+03 0.91188000E+02 0.0000E+00 0.9000E+01
#aMCatNLO 1  0  0  1  1 0.63794183D+03 0.00000000D+00  -5  7  0 0.00000000D+00 0.00000000D+00 0.00000000D+00 0.00000000D+00 0.00000000D+00
  <mgrwgt>
 0.7729811868D-03    3    2    0
 0.519490380803991D+03 0.000000000000000D+00 0.000000000000000D+00 0.519490380803991D+03
 0.519490380803991D+03 0.000000000000000D+00 0.000000000000000D+00 -.519490380803991D+03
 0.480337959363938D+03 0.752312597277572D+02 -.335502282295518D+03 -.322781319156152D+03
 0.298607494712409D+03 -.116804950604211D+03 0.220029572831498D+03 0.164651226817045D+03
 0.134054680413852D+03 -.158858652549624D+02 0.660493689867927D+02 0.115567198990058D+03
 0.125980627117783D+03 0.574595561314160D+02 0.494233404772275D+02 0.425628933490485D+02
 0.000000000000000D+00 -.000000000000000D+00 0.000000000000000D+00 -.000000000000000D+00
 0.693195040955505D+03 0.000000000000000D+00 0.000000000000000D+00 0.693195040955505D+03
 0.182669397651420D+04 0.000000000000000D+00 0.000000000000000D+00 -.182669397651420D+04
 0.774588667854032D+03 0.138278754820191D+03 -.684370922083249D+03 -.322781319156152D+03
 0.204702836284103D+03 -.915186470584640D+02 0.801096868736014D+02 0.164651226817045D+03
 0.115664627338979D+03 -.333997094643561D+01 -.337240702380771D+01 0.115567198990058D+03
 0.124244754721659D+03 0.700308755945294D+02 -.201391237412714D+02 0.425628933490485D+02
 0.130068813127093D+04 -.113451012409821D+03 0.627772765974727D+03 -.113349893555870D+04
0.404073892097D-04 0.000000000000D+00 0.000000000000D+00 0.572549847281D-07 0.000000000000D+00  7 -2 2 23 -11 11 23 21 0 0.27032325D-01 0.23628976D+00 0.15655359D+06 0.15655359D+06 0.15655359D+06 0.11060893D+01  1  2  2  1  7  1       -2 0.762460203034D-03 0.100000000000D+01
-.204251853651D-05 0.000000000000D+00 -.155175014075D-06 0.572549847281D-07 0.000000000000D+00  7 -2 2 23 -11 11 23 21 2 0.27032325D-01 0.23628976D+00 0.15655359D+06 0.15655359D+06 0.15655359D+06 0.11060893D+01  1  2  3  1  7  1       -2 -.471522886618D-04 0.100000000000D+01
0.249826108689D-05 0.000000000000D+00 0.000000000000D+00 0.572549847281D-07 0.000000000000D+00  7 -2 2 23 -11 11 23 21 2 0.27032325D-01 0.23628976D+00 0.15655359D+06 0.15655359D+06 0.15655359D+06 0.11060893D+01  1  2 15  1  7  1       -2 0.576732723920D-04 0.100000000000D+01
  </mgrwgt>
  </event>
  <event>
  8     66 0.27870365E-05 0.51421906E+03 0.75467711E-02 0.94287110E-01
       -2 -1    0    0    0  501 0.00000000E+00 0.00000000E+00 0.34668110E+03 0.34668125E+03 0.32000000E+00 0.0000E+00 0.9000E+01
        2 -1    0    0  501    0 0.00000000E+00 0.00000000E+00 -.86706655E+03 0.86706661E+03 0.32000000E+00 0.0000E+00 0.9000E+01
       25  2    1    2    0    0 -.34775870E+03 -.35197480E+03 -.17886723E+03 0.60565878E+03 0.30001117E+03 0.0000E+00 0.0000E+00
       23  2    3    3    0    0 -.24774892E+03 -.22740171E+03 0.16875062E+01 0.34790760E+03 0.89139117E+02 0.0000E+00 0.0000E+00
       23  1    1    2    0    0 0.34775870E+03 0.35197480E+03 -.34151823E+03 0.60808908E+03 0.91188000E+02 0.0000E+00 0.9000E+01
      -11  1    4    4    0    0 -.23801519E+03 -.19550070E+03 -.19104630E+02 0.30860451E+03 0.51099893E-03 0.0000E+00 0.9000E+01
       11  1    4    4    0    0 -.97337316E+01 -.31901012E+02 0.20792136E+02 0.39303091E+02 0.51099893E-03 0.0000E+00 0.9000E+01
       23  1    3    3    0    0 -.10000978E+03 -.12457309E+03 -.18055473E+03 0.25775119E+03 0.91188000E+02 0.0000E+00 0.9000E+01
#aMCatNLO 1  0  0  1  2 0.20305611D+01 0.00000000D+00  -5  7  0 0.00000000D+00 0.00000000D+00 0.00000000D+00 0.00000000D+00 0.00000000D+00
  <mgrwgt>
 0.2653180086D-03    6    2    0
 0.548266098151291D+03 0.000000000000000D+00 0.000000000000000D+00 0.548266098151291D+03
 0.548266098151291D+03 0.000000000000000D+00 0.000000000000000D+00 -.548266098151291D+03
 0.511016189022069D+03 0.347758703104033D+03 0.351974803878548D+03 -.894422492376912D+02
 0.332526749993516D+03 -.238015189230410D+03 -.195500699341309D+03 0.125308761520978D+03
 0.533718649911841D+02 -.973373155030341D+01 -.319010117344556D+02 0.416669640490152D+02
 0.199617392295813D+03 -.100009782323320D+03 -.124573092802783D+03 -.775334763323024D+02
 0.000000000000000D+00 0.000000000000000D+00 -.000000000000000D+00 -.000000000000000D+00
 0.548573201532459D+03 0.000000000000000D+00 0.000000000000000D+00 0.548573201532459D+03
 0.551633850912959D+03 0.000000000000000D+00 0.000000000000000D+00 -.551633850912959D+03
 0.511450357543086D+03 0.347479969408481D+03 0.352879542901164D+03 -.894422492376912D+02
 0.332311108951334D+03 -.238196430087619D+03 -.194912411385365D+03 0.125308761520978D+03
 0.533208076525230D+02 -.976281694486644D+01 -.318066037318738D+02 0.416669640490152D+02
 0.199451802253131D+03 -.100118572221387D+03 -.124219972718566D+03 -.775334763323024D+02
 0.367297604534535D+01 0.597849845391442D+00 -.194055506535921D+01 -.306064938049998D+01
0.183366167952D-04 0.000000000000D+00 0.000000000000D+00 0.414660137247D-06 0.000000000000D+00  7 -2 2 23 -11 11 23 21 0 0.53335570D-01 0.13339487D+00 0.26442124D+06 0.26442124D+06 0.26442124D+06 0.10886315D+01  1  2  2  1  7  1       -2 0.236671043877D-03 0.100000000000D+01
-.101360998683D-05 0.000000000000D+00 -.704174366357D-07 0.414660137247D-06 0.000000000000D+00  7 -2 2 23 -11 11 23 21 2 0.53335570D-01 0.13339487D+00 0.26442124D+06 0.26442124D+06 0.26442124D+06 0.10886315D+01  1  2  3  1  7  1       -2 -.155045297021D-04 0.100000000000D+01
0.113318506215D-05 0.000000000000D+00 0.000000000000D+00 0.414660137247D-06 0.000000000000D+00  7 -2 2 23 -11 11 23 21 2 0.53335570D-01 0.13339487D+00 0.26442124D+06 0.26442124D+06 0.26442124D+06 0.10886315D+01  1  2 15  1  7  1       -2 0.173335915021D-04 0.100000000000D+01
-.574560996645D-04 0.000000000000D+00 0.000000000000D+00 0.414660137247D-06 0.000000000000D+00  7 -2 2 23 -11 11 23 21 2 0.53335570D-01 0.13339487D+00 0.26442124D+06 0.26442124D+06 0.26442124D+06 0.10886315D+01  1  2  4  1  7  1       -2 -.878868416247D-03 0.100000000000D+01
0.574571294096D-04 0.000000000000D+00 0.000000000000D+00 0.414660137247D-06 0.635519469688D-06  7 -2 2 23 -11 11 23 21 2 0.53365445D-01 0.13421426D+00 0.26543896D+06 0.26543896D+06 0.26543896D+06 0.10885067D+01  1  2 11  1  7  1       -2 0.870479256341D-03 0.100000000000D+01
0.224641848938D-06 0.000000000000D+00 0.000000000000D+00 0.414660137247D-06 0.668583041493D-10  7 21 2 23 -11 11 23 2 2 0.53365445D-01 0.13421426D+00 0.26543896D+06 0.26543896D+06 0.26543896D+06 0.10885067D+01  1  2 11  3  7  1       -2 0.352070627796D-04 0.100000000000D+01
  </mgrwgt>
  </event>
  <event>
  8     66 0.27870365E-05 0.85182876E+02 0.75467711E-02 0.10476279E+00
       -2 -1    0    0    0  501 0.00000000E+00 0.00000000E+00 0.17765381E+03 0.17765410E+03 0.32000000E+00 0.0000E+00 0.9000E+01
        2 -1    0    0  501    0 0.00000000E+00 0.00000000E+00 -.32229426E+03 0.32229442E+03 0.32000000E+00 0.0000E+00 0.9000E+01
       25  2    1    2    0    0 0.54814205E+02 0.96347065E+02 -.39720275E+02 0.32215413E+03 0.29986368E+03 0.0000E+00 0.0000E+00
       23  2    3    3    0    0 -.63192082E+02 0.10333054E+03 0.34876560E+02 0.15525837E+03 0.90655107E+02 0.0000E+00 0.0000E+00
       23  1    1    2    0    0 -.54814205E+02 -.96347065E+02 -.10492017E+03 0.17779440E+03 0.91188000E+02 0.0000E+00 0.9000E+01
      -11  1    4    4    0    0 -.15324405E+02 0.87918918E+02 0.50573405E+02 0.10257798E+03 0.51099893E-03 0.0000E+00 0.9000E+01
       11  1    4    4    0    0 -.47867677E+02 0.15411624E+02 -.15696845E+02 0.52680391E+02 0.51099893E-03 0.0000E+00 0.9000E+01
       23  1    3    3    0    0 0.11800629E+03 -.69834774E+01 -.74596834E+02 0.16689575E+03 0.91188000E+02 0.0000E+00 0.9000E+01
#aMCatNLO 1  0  0  2  1 0.13510736D+02 0.00000000D+00  -5  7  0 0.00000000D+00 0.00000000D+00 0.00000000D+00 0.00000000D+00 0.00000000D+00
  <mgrwgt>
 0.3292918049D-03    9    2    0
 0.239284175967524D+03 0.000000000000000D+00 0.000000000000000D+00 0.239284175967524D+03
 0.239284175967524D+03 0.000000000000000D+00 0.000000000000000D+00 -.239284175967524D+03
 0.154026787998141D+03 -.548142045681798D+02 -.963470646745539D+02 -.558716939351159D+02
 0.122445772704366D+03 -.153244052855951D+02 0.879189178082993D+02 0.838355160253080D+02
 0.502897545848405D+02 -.478676767344365D+02 0.154116243058895D+02 -.476210568013446D+00
 0.151806036647701D+03 0.118006286588211D+03 -.698347743963486D+01 -.274876115221787D+02
 0.000000000000000D+00 -.000000000000000D+00 -.000000000000000D+00 -.000000000000000D+00
 0.245171848900857D+03 0.000000000000000D+00 0.000000000000000D+00 0.245171848900857D+03
 0.247258029087076D+03 0.000000000000000D+00 0.000000000000000D+00 -.247258029087076D+03
 0.151062441700724D+03 -.537110612602992D+02 -.921850620420565D+02 -.558716939351159D+02
 0.124782960152531D+03 -.144304742791284D+02 0.912915922157015D+02 0.838355160253080D+02
 0.503841342611171D+02 -.475036595357031D+02 0.167850093670869D+02 -.476210568013446D+00
 0.152529492468398D+03 0.119106704661396D+03 -.283175672961857D+01 -.274876115221787D+02
 0.136708494051624D+02 -.346150958626574D+01 -.130597828111132D+02 -.208618018621893D+01
0.107376629066D-05 0.000000000000D+00 0.000000000000D+00 0.141070224332D-06 0.000000000000D+00  7 -2 2 23 -11 11 23 21 0 0.27331390D-01 0.49583767D-01 0.46734816D+05 0.46734816D+05 0.46734816D+05 0.11498842D+01  1  2  2  2  7  2        2 0.151863313673D-03 0.100000000000D+01
-.589060239812D-07 0.000000000000D+00 -.412354528529D-08 0.141070224332D-06 0.000000000000D+00  7 -2 2 23 -11 11 23 21 2 0.27331390D-01 0.49583767D-01 0.46734816D+05 0.46734816D+05 0.46734816D+05 0.11498842D+01  1  2  3  2  7  2        2 -.110156721400D-04 0.100000000000D+01
0.685934462419D-07 0.000000000000D+00 0.000000000000D+00 0.141070224332D-06 0.000000000000D+00  7 -2 2 23 -11 11 23 21 2 0.27331390D-01 0.49583767D-01 0.46734816D+05 0.46734816D+05 0.46734816D+05 0.11498842D+01  1  2 15  2  7  2        2 0.128272605021D-04 0.100000000000D+01
0.238986293032D-05 0.000000000000D+00 0.000000000000D+00 0.141070224332D-06 0.000000000000D+00  7 -2 2 23 -11 11 23 21 2 0.27331390D-01 0.51828482D-01 0.49885283D+05 0.49885283D+05 0.49885283D+05 0.11473831D+01  1  2 12  2  7  2        2 0.424446086149D-03 0.100000000000D+01
-.202805931030D-05 0.000000000000D+00 0.000000000000D+00 0.141070224332D-06 0.000000000000D+00  7 -2 2 23 -11 11 23 21 2 0.27331390D-01 0.49583767D-01 0.46734816D+05 0.46734816D+05 0.46734816D+05 0.11498842D+01  1  2  4  2  7  2        2 -.379255548631D-03 0.100000000000D+01
-.163144385111D-04 0.000000000000D+00 -.267427293410D-05 0.141070224332D-06 0.000000000000D+00  7 -2 2 23 -11 11 23 21 2 0.27331390D-01 0.52353966D-01 0.46734816D+05 0.46734816D+05 0.46734816D+05 0.11498842D+01  1  2  5  2  7  2        2 -.287718790736D-02 0.100000000000D+01
0.164394710803D-04 0.000000000000D+00 0.267032593350D-05 0.141070224332D-06 0.000000000000D+00  7 -2 2 23 -11 11 23 21 2 0.27331390D-01 0.49583767D-01 0.46734816D+05 0.46734816D+05 0.46734816D+05 0.11498842D+01  1  2  6  2  7  2        2 0.307424964946D-02 0.100000000000D+01
0.305462856532D-07 0.000000000000D+00 0.000000000000D+00 0.141070224332D-06 0.000000000000D+00  7 -2 21 23 -11 11 23 -2 2 0.27331390D-01 0.51828482D-01 0.49885283D+05 0.49885283D+05 0.49885283D+05 0.11473831D+01  1  2 12  4  7  2        2 0.172562244768D-04 0.100000000000D+01
-.150778920001D-06 0.000000000000D+00 -.251692556458D-07 0.141070224332D-06 0.000000000000D+00  7 -2 21 23 -11 11 23 -2 2 0.27331390D-01 0.52353966D-01 0.46734816D+05 0.46734816D+05 0.46734816D+05 0.11498842D+01  1  2  5  4  7  2        2 -.838916012723D-04 0.100000000000D+01
  </mgrwgt>
  </event>
  <event>
  8     66 0.27870365E-05 0.65313794E+03 0.75467711E-02 0.91060408E-01
       -2 -1    0    0    0  501 0.00000000E+00 0.00000000E+00 0.60939047E+03 0.60939056E+03 0.32000000E+00 0.0000E+00 0.9000E+01
        2 -1    0    0  501    0 0.00000000E+00 0.00000000E+00 -.91478810E+03 0.91478816E+03 0.32000000E+00 0.0000E+00 0.9000E+01
       25  2    1    2    0    0 -.27157868E+03 0.55519028E+03 0.20541515E+03 0.71718666E+03 0.30028337E+03 0.0000E+00 0.0000E+00
       23  2    3    3    0    0 0.15439602E+02 0.80913735E+02 0.66135720E+02 0.13836740E+03 0.89365480E+02 0.0000E+00 0.0000E+00
       23  1    1    2    0    0 0.27157868E+03 -.55519028E+03 -.51081278E+03 0.80699205E+03 0.91188000E+02 0.0000E+00 0.9000E+01
      -11  1    4    4    0    0 0.40265808E+02 0.58906008E+01 0.11476254E+02 0.42281662E+02 0.51099893E-03 0.0000E+00 0.9000E+01
       11  1    4    4    0    0 -.24826206E+02 0.75023134E+02 0.54659465E+02 0.96085734E+02 0.51099893E-03 0.0000E+00 0.9000E+01
       23  1    3    3    0    0 -.28701828E+03 0.47427654E+03 0.13927943E+03 0.57881927E+03 0.91188000E+02 0.0000E+00 0.9000E+01
#aMCatNLO 1  0  0  1  2 0.78161931D+02 0.00000000D+00  -5  7  0 0.00000000D+00 0.00000000D+00 0.00000000D+00 0.00000000D+00 0.00000000D+00
  <mgrwgt>
 0.6739584166D-03    4    2    0
 0.746634621746052D+03 0.000000000000000D+00 0.000000000000000D+00 0.746634621746052D+03
 0.746634621746052D+03 0.000000000000000D+00 0.000000000000000D+00 -.746634621746052D+03
 0.719226687710529D+03 0.271578677520762D+03 -.555190276507382D+03 -.356343311651544D+03
 0.455039367726572D+02 0.402658081374873D+02 0.589060076200708D+01 0.203610849295337D+02
 0.109253372605066D+03 -.248262062959473D+02 0.750231337758216D+02 0.754419532156182D+02
 0.619285246403852D+03 -.287018279362302D+03 0.474276541969553D+03 0.260540273506392D+03
 0.000000000000000D+00 0.000000000000000D+00 0.000000000000000D+00 -.000000000000000D+00
 0.751267090960363D+03 0.000000000000000D+00 0.000000000000000D+00 0.751267090960363D+03
 0.117069482860288D+04 0.000000000000000D+00 0.000000000000000D+00 -.117069482860288D+04
 0.745140554469909D+03 0.262620876242496D+03 -.592426294297070D+03 -.356343311651544D+03
 0.447734874162647D+02 0.397135646820861D+02 0.359502102198196D+01 0.203610849295337D+02
 0.105888878620088D+03 -.261422706529757D+02 0.695524837481654D+02 0.754419532156182D+02
 0.599510531909320D+03 -.294473875244563D+03 0.443284930045969D+03 0.260540273506392D+03
 0.426648467147657D+03 0.182817049729563D+02 0.759938594809532D+02 -.419427737642513D+03
0.197317770512D-03 0.000000000000D+00 0.000000000000D+00 0.103413605517D-05 0.000000000000D+00  7 -2 2 23 -11 11 23 21 0 0.93752391D-01 0.14073664D+00 0.42658917D+06 0.42658917D+06 0.42658917D+06 0.10734185D+01  1  2  2  1  7  1       -2 0.681240006930D-03 0.100000000000D+01
-.107235332825D-04 0.000000000000D+00 -.757752193726D-06 0.103413605517D-05 0.000000000000D+00  7 -2 2 23 -11 11 23 21 2 0.93752391D-01 0.14073664D+00 0.42658917D+06 0.42658917D+06 0.42658917D+06 0.10734185D+01  1  2  3  1  7  1       -2 -.426589362649D-04 0.100000000000D+01
0.125301290535D-04 0.000000000000D+00 0.000000000000D+00 0.103413605517D-05 0.000000000000D+00  7 -2 2 23 -11 11 23 21 2 0.93752391D-01 0.14073664D+00 0.42658917D+06 0.42658917D+06 0.42658917D+06 0.10734185D+01  1  2 15  1  7  1       -2 0.498456956867D-04 0.100000000000D+01
-.363702998605D-05 0.000000000000D+00 0.000000000000D+00 0.103413605517D-05 0.000000000000D+00  7 -2 2 23 -11 11 23 21 2 0.93752391D-01 0.14073664D+00 0.42658917D+06 0.42658917D+06 0.42658917D+06 0.10734185D+01  1  2  4  1  7  1       -2 -.144683497763D-04 0.100000000000D+01
  </mgrwgt>
  </event>
  <event>
  8     66 0.27870365E-05 0.32525244E+03 0.75467711E-02 0.96829402E-01
       -2 -1    0    0    0  501 0.00000000E+00 0.00000000E+00 0.60228588E+03 0.60228596E+03 0.32000000E+00 0.0000E+00 0.9000E+01
        2 -1    0    0  501    0 0.00000000E+00 0.00000000E+00 -.21072784E+03 0.21072808E+03 0.32000000E+00 0.0000E+00 0.9000E+01
       25  2    1    2    0    0 0.31450912E+02 0.26752772E+03 0.12241886E+03 0.42146407E+03 0.30014220E+03 0.0000E+00 0.0000E+00
       23  2    3    3    0    0 0.90258873E+02 0.20817027E+03 0.15982603E+03 0.29225018E+03 0.91565699E+02 0.0000E+00 0.0000E+00
       23  1    1    2    0    0 -.31450912E+02 -.26752772E+03 0.26913917E+03 0.39154998E+03 0.91188000E+02 0.0000E+00 0.9000E+01
      -11  1    4    4    0    0 0.10635834E+03 0.19273936E+03 0.13233792E+03 0.25685381E+03 0.51099893E-03 0.0000E+00 0.9000E+01
       11  1    4    4    0    0 -.16099468E+02 0.15430918E+02 0.27488117E+02 0.35396365E+02 0.51099893E-03 0.0000E+00 0.9000E+01
       23  1    3    3    0    0 -.58807960E+02 0.59357445E+02 -.37407169E+02 0.12921389E+03 0.91188000E+02 0.0000E+00 0.9000E+01
#aMCatNLO 1  0  0  2  2 0.15389086D+03 0.00000000D+00  -5  7  0 0.00000000D+00 0.00000000D+00 0.00000000D+00 0.00000000D+00 0.00000000D+00
  <mgrwgt>
 0.3950998799D-03    4    2    0
 0.356256279192773D+03 0.000000000000000D+00 0.000000000000000D+00 0.356256279192773D+03
 0.356256279192773D+03 0.000000000000000D+00 0.000000000000000D+00 -.356256279192773D+03
 0.298874770614883D+03 -.314509123666635D+02 -.267527719488691D+03 0.919273440418204D+02
 0.220357915054667D+03 0.106358340332014D+03 0.192739356464901D+03 0.985163126365736D+01
 0.252831317529821D+02 -.160994676050930D+02 0.154309179546860D+02 0.119134657067943D+02
 0.167996740963015D+03 -.588079603602579D+02 0.593574450691040D+02 -.113692441012272D+03
 0.000000000000000D+00 0.000000000000000D+00 -.000000000000000D+00 0.000000000000000D+00
 0.490339961416756D+03 0.000000000000000D+00 0.000000000000000D+00 0.490339961416756D+03
 0.411508851629440D+03 0.000000000000000D+00 0.000000000000000D+00 -.411508851629440D+03
 0.291761172850977D+03 -.904625140364362D+02 -.245306395373218D+03 0.919273440418204D+02
 0.218611036626170D+03 0.625000868536014D+02 0.209254557511911D+03 0.985163126365736D+01
 0.302947663974893D+02 -.216523649923622D+02 0.175219090332365D+02 0.119134657067943D+02
 0.188275095434772D+03 -.944037819966699D+02 0.727613566281498D+02 -.113692441012272D+03
 0.172906741736789D+03 0.144018574171867D+03 -.542314278000792D+02 0.788311097873159D+02
0.257121219908D-04 0.000000000000D+00 0.000000000000D+00 0.645411625011D-06 0.000000000000D+00  7 -2 2 23 -11 11 23 21 0 0.92659391D-01 0.32419693D-01 0.10578915D+06 0.10578915D+06 0.10578915D+06 0.11197219D+01  1  2  2  2  7  2        2 0.517874376546D-03 0.100000000000D+01
-.141405346969D-05 0.000000000000D+00 -.987413186020D-07 0.645411625011D-06 0.000000000000D+00  7 -2 2 23 -11 11 23 21 2 0.92659391D-01 0.32419693D-01 0.10578915D+06 0.10578915D+06 0.10578915D+06 0.11197219D+01  1  2  3  2  7  2        2 -.357085861949D-04 0.100000000000D+01
0.161160744998D-05 0.000000000000D+00 0.000000000000D+00 0.645411625011D-06 0.000000000000D+00  7 -2 2 23 -11 11 23 21 2 0.92659391D-01 0.32419693D-01 0.10578915D+06 0.10578915D+06 0.10578915D+06 0.11197219D+01  1  2 15  2  7  2        2 0.406973461565D-04 0.100000000000D+01
-.505940154944D-05 0.000000000000D+00 0.000000000000D+00 0.645411625011D-06 0.000000000000D+00  7 -2 2 23 -11 11 23 21 2 0.92659391D-01 0.32419693D-01 0.10578915D+06 0.10578915D+06 0.10578915D+06 0.11197219D+01  1  2  4  2  7  2        2 -.127763256620D-03 0.100000000000D+01
  </mgrwgt>
  </event>
  <event>
  9     66 -.27870365E-05 0.24869780E+03 0.75467711E-02 0.10264744E+00
       -2 -1    0    0    0  502 0.00000000E+00 0.00000000E+00 0.12945903E+03 0.12945943E+03 0.32000000E+00 0.0000E+00 0.9000E+01
        2 -1    0    0  501    0 0.00000000E+00 0.00000000E+00 -.11821381E+04 0.11821381E+04 0.32000000E+00 0.0000E+00 0.9000E+01
       25  2    1    2    0    0 -.95722640E+02 -.13608826E+03 -.13606683E+03 0.36868905E+03 0.29955732E+03 0.0000E+00 0.0000E+00
       23  2    3    3    0    0 -.16279534E+03 -.95110967E+02 -.13300800E+03 0.24826274E+03 0.91623384E+02 0.0000E+00 0.0000E+00
       23  1    1    2    0    0 0.96710428E+02 0.11044099E+03 -.88715786E+03 0.90383319E+03 0.91188000E+02 0.0000E+00 0.9000E+01
      -13  1    4    4    0    0 -.44534898E+02 -.67984692E+02 -.85492972E+02 0.11795904E+03 0.10565837E+00 0.0000E+00 0.9000E+01
       13  1    4    4    0    0 -.11826044E+03 -.27126275E+02 -.47515024E+02 0.13030371E+03 0.10565837E+00 0.0000E+00 0.9000E+01
       23  1    3    3    0    0 0.67072701E+02 -.40977296E+02 -.30588327E+01 0.12042630E+03 0.91188000E+02 0.0000E+00 0.9000E+01
       21  1    1    2  501  502 -.98778808E+00 0.25647273E+02 -.29454365E+02 0.39075317E+02 0.75000000E+00 0.0000E+00 0.9000E+01
#aMCatNLO 2  0  0  1  2 0.25666288D+02 0.00000000D+00  -5  7  0 0.00000000D+00 0.00000000D+00 0.00000000D+00 0.00000000D+00 0.00000000D+00
  <mgrwgt>
 -.1304589140D-03    3    2    0
 0.378042763436567D+03 0.000000000000000D+00 0.000000000000000D+00 0.378042763436567D+03
 0.378042763436567D+03 0.000000000000000D+00 0.000000000000000D+00 -.378042763436567D+03
 0.324200085242833D+03 0.962894832993113D+02 0.121370549030675D+03 -.269792455716249D+03
 0.805825180410724D+02 -.446414833488070D+02 -.652147764914807D+02 0.157389042002349D+02
 0.154237833216956D+03 -.118462428659530D+03 -.218843374116892D+02 0.963173814407281D+02
 0.197065090372272D+03 0.668144287090254D+02 -.342714351275049D+02 0.157736170075286D+03
 0.000000000000000D+00 -.000000000000000D+00 0.000000000000000D+00 0.000000000000000D+00
 0.392852984094148D+03 0.000000000000000D+00 0.000000000000000D+00 0.392852984094148D+03
 0.389546452581863D+03 0.000000000000000D+00 0.000000000000000D+00 -.389546452581863D+03
 0.320395599067866D+03 0.967104281419945D+02 0.110440990964608D+03 -.269792455716249D+03
 0.827827710894255D+02 -.445347997677550D+02 -.679847460351660D+02 0.157389042002349D+02
 0.154914251696871D+03 -.118260540904280D+03 -.271262211933416D+02 0.963173814407281D+02
 0.198428417026346D+03 0.670727006092355D+02 -.409772964279697D+02 0.157736170075286D+03
 0.258783977955021D+02 -.987788079195203D+00 0.256472726918695D+02 0.330653151228490D+01
-.946349128370D-05 0.000000000000D+00 0.000000000000D+00 0.500521962185D-06 0.000000000000D+00  7 -2 2 23 -13 13 23 21 2 0.20198043D-01 0.17649426D+00 0.67983861D+05 0.67983861D+05 0.67983861D+05 0.11357402D+01  1  2 13  1  7  1       -2 -.630453487990D-03 0.100000000000D+01
-.208177068667D-05 0.000000000000D+00 0.000000000000D+00 0.500521962185D-06 0.000000000000D+00  7 -2 2 23 -13 13 23 21 2 0.19165695D-01 0.17649426D+00 0.61850597D+05 0.61850597D+05 0.61850597D+05 0.11392578D+01  1  2  8  1  7  1       -2 -.152296010625D-03 0.100000000000D+01
0.100156036850D-04 0.000000000000D+00 0.000000000000D+00 0.500521962185D-06 0.523077334283D-08  7 -2 2 23 -13 13 23 21 2 0.19916531D-01 0.18186490D+00 0.67983861D+05 0.67983861D+05 0.67983861D+05 0.11357402D+01  1  2  1  1  7  1       -2 0.652290584641D-03 0.100000000000D+01
  </mgrwgt>
  </event>
  <event>
  8     66 0.27870365E-05 0.27359701E+03 0.75467711E-02 0.92907513E-01
       -2 -1    0    0    0  501 0.00000000E+00 0.00000000E+00 0.19316484E+03 0.19316510E+03 0.32000000E+00 0.0000E+00 0.9000E+01
        2 -1    0    0  501    0 0.00000000E+00 0.00000000E+00 -.13587518E+04 0.13587518E+04 0.32000000E+00 0.0000E+00 0.9000E+01
       25  2    1    2    0    0 -.41369414E+03 -.12173923E+00 -.31197321E+03 0.59896649E+03 0.30048414E+03 0.0000E+00 0.0000E+00
       23  2    3    3    0    0 -.29166091E+03 0.95715534E+02 -.13816072E+03 0.34876073E+03 0.91203686E+02 0.0000E+00 0.0000E+00
       23  1    1    2    0    0 0.41369414E+03 0.12173923E+00 -.85361377E+03 0.95295046E+03 0.91188000E+02 0.0000E+00 0.9000E+01
      -11  1    4    4    0    0 -.25452123E+03 0.10153308E+03 -.14580095E+03 0.31039964E+03 0.51099893E-03 0.0000E+00 0.9000E+01
       11  1    4    4    0    0 -.37139680E+02 -.58175459E+01 0.76402301E+01 0.38361084E+02 0.51099893E-03 0.0000E+00 0.9000E+01
       23  1    3    3    0    0 -.12203323E+03 -.95837274E+02 -.17381249E+03 0.25020577E+03 0.91188000E+02 0.0000E+00 0.9000E+01
#aMCatNLO 1  0  0  1  2 0.22828804D+03 0.00000000D+00  -5  7  0 0.00000000D+00 0.00000000D+00 0.00000000D+00 0.00000000D+00 0.00000000D+00
  <mgrwgt>
 0.6664844551D-03    9    2    0
 0.512311725759395D+03 0.000000000000000D+00 0.000000000000000D+00 0.512311725759395D+03
 0.512311725759395D+03 0.000000000000000D+00 0.000000000000000D+00 -.512311725759395D+03
 0.472308996379569D+03 0.413694139526800D+03 0.121739225672354D+00 -.208848463766956D+03
 0.304278392764414D+03 -.254521226148985D+03 0.101533080353294D+03 0.132269873126438D+03
 0.667938734181653D+02 -.371396796697317D+02 -.581754592254920D+01 0.552107043939002D+02
 0.181242188956642D+03 -.122033233708083D+03 -.958372736564169D+02 0.213678862466181D+02
 0.000000000000000D+00 -.000000000000000D+00 0.000000000000000D+00 0.000000000000000D+00
 0.705016925558981D+03 0.000000000000000D+00 0.000000000000000D+00 0.705016925558981D+03
 0.597198370162394D+03 0.000000000000000D+00 0.000000000000000D+00 -.597198370162394D+03
 0.544324863998123D+03 0.487077680045951D+03 -.843324315184362D+02 -.208848463766956D+03
 0.257468600035879D+03 -.213972721112612D+03 0.548674337582451D+02 0.132269873126438D+03
 0.639826152497860D+02 -.276998585806018D+02 -.166814570450598D+02 0.552107043939002D+02
 0.183970864216311D+03 -.956711106958874D+02 -.126176382703195D+03 0.213678862466181D+02
 0.252468352221277D+03 -.149733989656849D+03 0.172322837508446D+03 0.107818555396587D+03
0.286845982489D-04 0.000000000000D+00 0.000000000000D+00 0.983160161413D-06 0.000000000000D+00  7 -2 2 23 -11 11 23 21 0 0.29717690D-01 0.20903876D+00 0.20940749D+06 0.20940749D+06 0.20940749D+06 0.10962955D+01  1  2  2  1  7  1       -2 0.568539517204D-03 0.100000000000D+01
-.156888532220D-05 0.000000000000D+00 -.110156410104D-06 0.983160161413D-06 0.000000000000D+00  7 -2 2 23 -11 11 23 21 2 0.29717690D-01 0.20903876D+00 0.20940749D+06 0.20940749D+06 0.20940749D+06 0.10962955D+01  1  2  3  1  7  1       -2 -.373730343813D-04 0.100000000000D+01
0.177019422613D-05 0.000000000000D+00 0.000000000000D+00 0.983160161413D-06 0.000000000000D+00  7 -2 2 23 -11 11 23 21 2 0.29717690D-01 0.20903876D+00 0.20940749D+06 0.20940749D+06 0.20940749D+06 0.10962955D+01  1  2 15  1  7  1       -2 0.421684929668D-04 0.100000000000D+01
0.109258668694D-04 0.000000000000D+00 0.000000000000D+00 0.983160161413D-06 0.000000000000D+00  7 -2 2 23 -11 11 23 21 2 0.42620790D-01 0.20903876D+00 0.34041911D+06 0.34041911D+06 0.34041911D+06 0.10805139D+01  1  2 12  1  7  1       -2 0.128349950851D-03 0.100000000000D+01
-.169870349993D-04 0.000000000000D+00 0.000000000000D+00 0.983160161413D-06 0.000000000000D+00  7 -2 2 23 -11 11 23 21 2 0.29717690D-01 0.20903876D+00 0.20940749D+06 0.20940749D+06 0.20940749D+06 0.10962955D+01  1  2  4  1  7  1       -2 -.404654842570D-03 0.100000000000D+01
-.222671550592D-04 0.000000000000D+00 -.109241979683D-04 0.983160161413D-06 0.000000000000D+00  7 -2 2 23 -11 11 23 21 2 0.47429446D-01 0.20903876D+00 0.20940749D+06 0.20940749D+06 0.20940749D+06 0.10962955D+01  1  2  5  1  7  1       -2 -.223065540053D-03 0.100000000000D+01
0.256173817733D-04 0.000000000000D+00 0.983025442523D-05 0.983160161413D-06 0.000000000000D+00  7 -2 2 23 -11 11 23 21 2 0.29717690D-01 0.20903876D+00 0.20940749D+06 0.20940749D+06 0.20940749D+06 0.10962955D+01  1  2  6  1  7  1       -2 0.610241727822D-03 0.100000000000D+01
0.482264489858D-06 0.000000000000D+00 0.000000000000D+00 0.983160161413D-06 0.000000000000D+00  7 21 2 23 -11 11 23 2 2 0.42620790D-01 0.20903876D+00 0.34041911D+06 0.34041911D+06 0.34041911D+06 0.10805139D+01  1  2 12  3  7  1       -2 0.607428585228D-04 0.100000000000D+01
-.735782057910D-06 0.000000000000D+00 -.584460657359D-06 0.983160161413D-06 0.000000000000D+00  7 21 2 23 -11 11 23 2 2 0.47429446D-01 0.20903876D+00 0.20940749D+06 0.20940749D+06 0.20940749D+06 0.10962955D+01  1  2  5  3  7  1       -2 -.784646753066D-04 0.100000000000D+01
  </mgrwgt>
  </event>
  <event>
  8     66 0.27870365E-05 0.28633075E+03 0.75467711E-02 0.88327375E-01
       -2 -1    0    0    0  501 0.00000000E+00 0.00000000E+00 0.41776650E+03 0.41776662E+03 0.32000000E+00 0.0000E+00 0.9000E+01
        2 -1    0    0  501    0 0.00000000E+00 0.00000000E+00 -.17577399E+04 0.17577399E+04 0.32000000E+00 0.0000E+00 0.9000E+01
       25  2    1    2    0    0 -.82318027E+03 -.20722442E+02 -.57768652E+03 0.10496950E+04 0.30013774E+03 0.0000E+00 0.0000E+00
       23  2    3    3    0    0 -.72605584E+03 -.36754437E+02 -.42624768E+03 0.84736072E+03 0.88459786E+02 0.0000E+00 0.0000E+00
       23  1    1    2    0    0 0.82318027E+03 0.20722442E+02 -.76228689E+03 0.11258116E+04 0.91188000E+02 0.0000E+00 0.9000E+01
      -11  1    4    4    0    0 -.56009060E+03 -.51666500E+02 -.29428651E+03 0.63480348E+03 0.51099893E-03 0.0000E+00 0.9000E+01
       11  1    4    4    0    0 -.16596525E+03 0.14912063E+02 -.13196117E+03 0.21255725E+03 0.51099893E-03 0.0000E+00 0.9000E+01
       23  1    3    3    0    0 -.97124425E+02 0.16031996E+02 -.15143884E+03 0.20233426E+03 0.91188000E+02 0.0000E+00 0.9000E+01
#aMCatNLO 1  0  0  2  1 0.11829616D+03 0.00000000D+00  -5  7  0 0.00000000D+00 0.00000000D+00 0.00000000D+00 0.00000000D+00 0.00000000D+00
  <mgrwgt>
 0.6458703185D-03    9    2    0
 0.856927664386567D+03 0.000000000000000D+00 0.000000000000000D+00 0.856927664386567D+03
 0.856927664386567D+03 0.000000000000000D+00 0.000000000000000D+00 -.856927664386567D+03
 0.833072846299095D+03 0.823180268270384D+03 0.207224417434198D+02 -.874067630985480D+02
 0.575709639129756D+03 -.560090596185922D+03 -.516664999284723D+02 0.122762720058470D+03
 0.166639052156200D+03 -.165965246858754D+03 0.149120626025586D+02 -.131944214238935D+01
 0.138433791188082D+03 -.971244252257084D+02 0.160319955824939D+02 -.340365148175330D+02
 0.000000000000000D+00 0.000000000000000D+00 0.000000000000000D+00 -.000000000000000D+00
 0.881614605947134D+03 0.000000000000000D+00 0.000000000000000D+00 0.881614605947134D+03
 0.101343869228478D+04 0.000000000000000D+00 0.000000000000000D+00 -.101343869228478D+04
 0.825326660319123D+03 0.814816063855313D+03 -.358285464048707D+02 -.874067630985480D+02
 0.586263636899347D+03 -.565951054999839D+03 -.912894838350150D+02 0.122762720058470D+03
 0.167693425747780D+03 -.167651466118122D+03 0.351141280732855D+01 -.131944214238935D+01
 0.138649357712767D+03 -.985219051984951D+02 0.658353288876362D+01 -.340365148175330D+02
 0.177120217552895D+03 0.173083624611432D+02 0.117023084543794D+03 -.131824086337645D+03
0.155265977654D-03 0.000000000000D+00 0.000000000000D+00 0.685341775175D-06 0.000000000000D+00  7 -2 2 23 -11 11 23 21 0 0.64271781D-01 0.27042154D+00 0.71551423D+06 0.71551423D+06 0.71551423D+06 0.10576808D+01  1  2  2  2  7  2        2 0.396642309212D-03 0.100000000000D+01
-.862412198111D-05 0.000000000000D+00 -.596262236664D-06 0.685341775175D-06 0.000000000000D+00  7 -2 2 23 -11 11 23 21 2 0.64271781D-01 0.27042154D+00 0.71551423D+06 0.71551423D+06 0.71551423D+06 0.10576808D+01  1  2  3  2  7  2        2 -.246460260797D-04 0.100000000000D+01
0.966629856166D-05 0.000000000000D+00 0.000000000000D+00 0.685341775175D-06 0.000000000000D+00  7 -2 2 23 -11 11 23 21 2 0.64271781D-01 0.27042154D+00 0.71551423D+06 0.71551423D+06 0.71551423D+06 0.10576808D+01  1  2 15  2  7  2        2 0.276243595541D-04 0.100000000000D+01
0.359025717177D-03 0.000000000000D+00 0.000000000000D+00 0.685341775175D-06 0.000000000000D+00  7 -2 2 23 -11 11 23 21 2 0.64271781D-01 0.32322443D+00 0.82295983D+06 0.82295983D+06 0.82295983D+06 0.10535438D+01  1  2 12  2  7  2        2 0.651028149427D-03 0.100000000000D+01
-.364284972309D-03 0.000000000000D+00 0.000000000000D+00 0.685341775175D-06 0.000000000000D+00  7 -2 2 23 -11 11 23 21 2 0.64271781D-01 0.27042154D+00 0.71551423D+06 0.71551423D+06 0.71551423D+06 0.10576808D+01  1  2  4  2  7  2        2 -.104105402818D-02 0.100000000000D+01
-.603677461653D-03 0.000000000000D+00 -.976764450823D-04 0.685341775175D-06 0.000000000000D+00  7 -2 2 23 -11 11 23 21 2 0.64271781D-01 0.32313107D+00 0.71551423D+06 0.71551423D+06 0.71551423D+06 0.10576808D+01  1  2  5  2  7  2        2 -.111335781750D-02 0.100000000000D+01
0.612856924294D-03 0.000000000000D+00 0.961479351586D-04 0.685341775175D-06 0.000000000000D+00  7 -2 2 23 -11 11 23 21 2 0.64271781D-01 0.27042154D+00 0.71551423D+06 0.71551423D+06 0.71551423D+06 0.10576808D+01  1  2  6  2  7  2        2 0.175142324892D-02 0.100000000000D+01
0.940147452827D-05 0.000000000000D+00 0.000000000000D+00 0.685341775175D-06 0.000000000000D+00  7 -2 21 23 -11 11 23 -2 2 0.64271781D-01 0.32322443D+00 0.82295983D+06 0.82295983D+06 0.82295983D+06 0.10535438D+01  1  2 12  4  7  2        2 0.288377344997D-05 0.100000000000D+01
-.148684594218D-04 0.000000000000D+00 -.255451444418D-05 0.685341775175D-06 0.000000000000D+00  7 -2 21 23 -11 11 23 -2 2 0.64271781D-01 0.32313107D+00 0.71551423D+06 0.71551423D+06 0.71551423D+06 0.10576808D+01  1  2  5  4  7  2        2 -.467365035247D-05 0.100000000000D+01
  </mgrwgt>
  </event>
  <event>
  8     66 0.27870365E-05 0.14645050E+03 0.75467711E-02 0.87270820E-01
       -2 -1    0    0    0  501 0.00000000E+00 0.00000000E+00 0.69747376E+03 0.69747383E+03 0.32000000E+00 0.0000E+00 0.9000E+01
        2 -1    0    0  501    0 0.00000000E+00 0.00000000E+00 -.95753716E+03 0.95753721E+03 0.32000000E+00 0.0000E+00 0.9000E+01
       25  2    1    2    0    0 0.54543429E+02 -.10638068E+02 0.65996294E+03 0.72880811E+03 0.30417434E+03 0.0000E+00 0.0000E+00
       23  2    3    3    0    0 -.18332129E+02 -.37766036E+01 0.46403308E+02 0.10420536E+03 0.91406564E+02 0.0000E+00 0.0000E+00
       23  1    1    2    0    0 -.54543429E+02 0.10638068E+02 -.92002634E+03 0.92620293E+03 0.91188000E+02 0.0000E+00 0.9000E+01
      -13  1    4    4    0    0 0.18466180E+02 0.18521894E+02 0.54474118E+02 0.60427651E+02 0.10565837E+00 0.0000E+00 0.9000E+01
       13  1    4    4    0    0 -.36798309E+02 -.22298498E+02 -.80708093E+01 0.43777707E+02 0.10565837E+00 0.0000E+00 0.9000E+01
       23  1    3    3    0    0 0.72875558E+02 -.68614639E+01 0.61355963E+03 0.62460275E+03 0.91188000E+02 0.0000E+00 0.9000E+01
#aMCatNLO 1  0  0  2  2 0.97705899D+03 0.00000000D+00  -5  7  0 0.00000000D+00 0.00000000D+00 0.00000000D+00 0.00000000D+00 0.00000000D+00
  <mgrwgt>
 0.1437990847D-02    3    2    0
 0.817225273417669D+03 0.000000000000000D+00 0.000000000000000D+00 0.817225273417669D+03
 0.817225273417669D+03 0.000000000000000D+00 0.000000000000000D+00 -.817225273417669D+03
 0.791465309078464D+03 -.545434289200140D+02 0.106380675051471D+02 -.784228238468924D+03
 0.698554102481347D+02 0.184662535451664D+02 0.185219486792422D+02 0.647743254543369D+02
 0.430441951447240D+02 -.367983825047855D+02 -.222985522469391D+02 -.120679259987265D+01
 0.730085632364015D+03 0.728755578796331D+02 -.686146393745017D+01 0.720660705614460D+03
 0.000000000000000D+00 -.000000000000000D+00 -.000000000000000D+00 0.000000000000000D+00
 0.376231887695740D+04 0.000000000000000D+00 0.000000000000000D+00 0.376231887695740D+04
 0.103703902688918D+04 0.000000000000000D+00 0.000000000000000D+00 -.103703902688918D+04
 0.925308093262035D+03 -.914548158161334D+01 0.482475125023862D+03 -.784228238468924D+03
 0.934639858405518D+02 0.227850327928327D+02 0.634085616598267D+02 0.647743254543369D+02
 0.347734844281493D+02 -.347405903031883D+02 -.911183999888188D+00 -.120679259987265D+01
 0.850679437424867D+03 0.114676933235765D+03 0.427595138279655D+03 0.720660705614460D+03
 0.289513290289097D+04 -.935758941437962D+02 -.972567640963455D+03 0.272527985006822D+04
0.417699337216D-03 0.000000000000D+00 0.000000000000D+00 0.153342511260D-06 0.000000000000D+00  7 -2 2 23 -13 13 23 21 0 0.10730367D+00 0.14731342D+00 0.21447750D+05 0.21447750D+05 0.21447750D+05 0.11811043D+01  1  2  2  2  7  2        2 0.112159502961D-02 0.100000000000D+01
0.601893574483D-04 0.000000000000D+00 -.160407543767D-05 0.153342511260D-06 0.000000000000D+00  7 -2 2 23 -13 13 23 21 2 0.10730367D+00 0.14731342D+00 0.21447750D+05 0.21447750D+05 0.21447750D+05 0.11811043D+01  1  2  3  2  7  2        2 0.225459479781D-03 0.100000000000D+01
0.242766449622D-04 0.000000000000D+00 0.000000000000D+00 0.153342511260D-06 0.000000000000D+00  7 -2 2 23 -13 13 23 21 2 0.10730367D+00 0.14731342D+00 0.21447750D+05 0.21447750D+05 0.21447750D+05 0.11811043D+01  1  2 15  2  7  2        2 0.909363378519D-04 0.100000000000D+01
  </mgrwgt>
  </event>
  <event>
  8     66 0.27870365E-05 0.11272921E+03 0.75467711E-02 0.10283904E+00
       -2 -1    0    0    0  501 0.00000000E+00 0.00000000E+00 0.31159551E+03 0.31159568E+03 0.32000000E+00 0.0000E+00 0.9000E+01
        2 -1    0    0  501    0 0.00000000E+00 0.00000000E+00 -.38873065E+03 0.38873078E+03 0.32000000E+00 0.0000E+00 0.9000E+01
       25  2    1    2    0    0 0.12026355E+02 -.17388280E+03 0.16857385E+03 0.38557574E+03 0.29978600E+03 0.0000E+00 0.0000E+00
       23  2    3    3    0    0 -.42658976E+02 0.32802660E+02 0.90809164E+02 0.14047991E+03 0.92695735E+02 0.0000E+00 0.0000E+00
       23  1    1    2    0    0 -.12026355E+02 0.17388280E+03 -.24570899E+03 0.31475072E+03 0.91188000E+02 0.0000E+00 0.9000E+01
      -13  1    4    4    0    0 -.52058980E+02 0.25345367E+02 0.10620342E+03 0.12096158E+03 0.10565837E+00 0.0000E+00 0.9000E+01
       13  1    4    4    0    0 0.94000043E+01 0.74572923E+01 -.15394256E+02 0.19518339E+02 0.10565837E+00 0.0000E+00 0.9000E+01
       23  1    3    3    0    0 0.54685330E+02 -.20668546E+03 0.77764685E+02 0.24509582E+03 0.91188000E+02 0.0000E+00 0.9000E+01
#aMCatNLO 1  0  0  2  1 0.12905830D+02 0.00000000D+00  -5  7  0 0.00000000D+00 0.00000000D+00 0.00000000D+00 0.00000000D+00 0.00000000D+00
  <mgrwgt>
 0.5619001695D-03    9    2    0
 0.348032800367198D+03 0.000000000000000D+00 0.000000000000000D+00 0.348032800367198D+03
 0.348032800367198D+03 0.000000000000000D+00 0.000000000000000D+00 -.348032800367198D+03
 0.289448959469310D+03 -.120263548764455D+02 0.173882798561196D+03 -.212333671250648D+03
 0.133471200164581D+03 -.520590595931142D+02 0.253453913057718D+02 0.120258166987575D+03
 0.179317388150881D+02 0.940008381160723D+01 0.745726921661200D+01 -.133257201343217D+02
 0.255213702285418D+03 0.546853306579524D+02 -.206685459083580D+03 0.105401224397395D+03
 0.000000000000000D+00 0.000000000000000D+00 -.000000000000000D+00 -.000000000000000D+00
 0.352605334100232D+03 0.000000000000000D+00 0.000000000000000D+00 0.352605334100232D+03
 0.357319899741298D+03 0.000000000000000D+00 0.000000000000000D+00 -.357319899741298D+03
 0.292712143382122D+03 -.129678867608004D+02 0.179196522024108D+03 -.212333671250648D+03
 0.134125269331043D+03 -.524918446193498D+02 0.277879001432511D+02 0.120258166987575D+03
 0.180405579381204D+02 0.934190564721128D+01 0.778560932098537D+01 -.133257201343217D+02
 0.251307264019604D+03 0.538661319214952D+02 -.202062147203194D+03 0.105401224397395D+03
 0.137399991706406D+02 0.225169381144368D+01 -.127078842851510D+02 -.471456564106639D+01
0.645777289813D-05 0.000000000000D+00 0.000000000000D+00 0.295670442906D-06 0.000000000000D+00  7 -2 2 23 -13 13 23 21 0 0.47937794D-01 0.59804738D-01 0.62260884D+05 0.62260884D+05 0.62260884D+05 0.11390107D+01  1  2  2  2  7  2        2 0.269534049407D-03 0.100000000000D+01
-.310466601170D-06 0.000000000000D+00 -.247995482995D-07 0.295670442906D-06 0.000000000000D+00  7 -2 2 23 -13 13 23 21 2 0.47937794D-01 0.59804738D-01 0.62260884D+05 0.62260884D+05 0.62260884D+05 0.11390107D+01  1  2  3  2  7  2        2 -.168113029689D-04 0.100000000000D+01
0.391137887126D-06 0.000000000000D+00 0.000000000000D+00 0.295670442906D-06 0.000000000000D+00  7 -2 2 23 -13 13 23 21 2 0.47937794D-01 0.59804738D-01 0.62260884D+05 0.62260884D+05 0.62260884D+05 0.11390107D+01  1  2 15  2  7  2        2 0.211795326722D-04 0.100000000000D+01
0.117058615013D-04 0.000000000000D+00 0.000000000000D+00 0.295670442906D-06 0.000000000000D+00  7 -2 2 23 -13 13 23 21 2 0.47937794D-01 0.61785572D-01 0.66068862D+05 0.66068862D+05 0.66068862D+05 0.11367997D+01  1  2 12  2  7  2        2 0.609170396062D-03 0.100000000000D+01
-.109068278753D-04 0.000000000000D+00 0.000000000000D+00 0.295670442906D-06 0.000000000000D+00  7 -2 2 23 -13 13 23 21 2 0.47937794D-01 0.59804738D-01 0.62260884D+05 0.62260884D+05 0.62260884D+05 0.11390107D+01  1  2  4  2  7  2        2 -.590588447039D-03 0.100000000000D+01
-.154775572748D-03 0.000000000000D+00 -.230007510397D-04 0.295670442906D-06 0.000000000000D+00  7 -2 2 23 -13 13 23 21 2 0.47937794D-01 0.62075017D-01 0.62260884D+05 0.62260884D+05 0.62260884D+05 0.11390107D+01  1  2  5  2  7  2        2 -.804926391413D-02 0.100000000000D+01
0.155540532657D-03 0.000000000000D+00 0.229847953186D-04 0.295670442906D-06 0.000000000000D+00  7 -2 2 23 -13 13 23 21 2 0.47937794D-01 0.59804738D-01 0.62260884D+05 0.62260884D+05 0.62260884D+05 0.11390107D+01  1  2  6  2  7  2        2 0.842228764252D-02 0.100000000000D+01
0.240265837073D-06 0.000000000000D+00 0.000000000000D+00 0.295670442906D-06 0.000000000000D+00  7 -2 21 23 -13 13 23 -2 2 0.47937794D-01 0.61785572D-01 0.66068862D+05 0.66068862D+05 0.66068862D+05 0.11367997D+01  1  2 12  4  7  2        2 0.324161173183D-04 0.100000000000D+01
-.101188993984D-05 0.000000000000D+00 -.152071676100D-06 0.295670442906D-06 0.000000000000D+00  7 -2 21 23 -13 13 23 -2 2 0.47937794D-01 0.62075017D-01 0.62260884D+05 0.62260884D+05 0.62260884D+05 0.11390107D+01  1  2  5  4  7  2        2 -.136023904333D-03 0.100000000000D+01
  </mgrwgt>
  </event>
  <event>
  8     66 0.27870365E-05 0.12439132E+04 0.75467711E-02 0.79371223E-01
       -2 -1    0    0    0  501 0.00000000E+00 0.00000000E+00 0.27022728E+04 0.27022728E+04 0.32000000E+00 0.0000E+00 0.9000E+01
        2 -1    0    0  501    0 0.00000000E+00 0.00000000E+00 -.72226799E+03 0.72226806E+03 0.32000000E+00 0.0000E+00 0.9000E+01
       25  2    1    2    0    0 0.12327021E+04 -.23038978E+00 0.24135520E+03 0.12912870E+04 0.29935781E+03 0.0000E+00 0.0000E+00
       23  2    3    3    0    0 0.25916979E+03 -.74157453E+02 0.88226736E+02 0.29881832E+03 0.94021938E+02 0.0000E+00 0.0000E+00
       23  1    1    2    0    0 -.12327021E+04 0.23038978E+00 0.17386496E+04 0.21332539E+04 0.91188000E+02 0.0000E+00 0.9000E+01
      -13  1    4    4    0    0 0.69664899E+02 -.65663346E+01 -.16649028E+02 0.71927159E+02 0.10565837E+00 0.0000E+00 0.9000E+01
       13  1    4    4    0    0 0.18950489E+03 -.67591118E+02 0.10487576E+03 0.22689116E+03 0.10565837E+00 0.0000E+00 0.9000E+01
       23  1    3    3    0    0 0.97353233E+03 0.73927063E+02 0.15312846E+03 0.99246864E+03 0.91188000E+02 0.0000E+00 0.9000E+01
#aMCatNLO 1  0  0  1  1 0.19329187D+04 0.00000000D+00  -5  7  0 0.00000000D+00 0.00000000D+00 0.00000000D+00 0.00000000D+00 0.00000000D+00
  <mgrwgt>
 0.3676171810D-03    3    2    0
 0.139705594355508D+04 0.000000000000000D+00 0.000000000000000D+00 0.139705594355508D+04
 0.139705594355508D+04 0.000000000000000D+00 0.000000000000000D+00 -.139705594355508D+04
 0.138250752029062D+04 -.123270212572807D+04 0.230389782439917D+00 0.619239217477507D+03
 0.999538660575517D+02 0.696647476916798D+02 -.656625758375913D+01 -.713756438167063D+02
 0.203765612634902D+03 0.189505044054619D+03 -.675911954575094D+02 -.322442780498941D+02
 0.110788488812709D+04 0.973532333981775D+03 0.739270632588286D+02 -.515619295610907D+03
 0.000000000000000D+00 -.000000000000000D+00 -.000000000000000D+00 -.000000000000000D+00
 0.254757350572760D+04 0.000000000000000D+00 0.000000000000000D+00 0.254757350572760D+04
 0.279918681796359D+04 0.000000000000000D+00 0.000000000000000D+00 -.279918681796359D+04
 0.896106257592584D+03 -.577857989252424D+03 0.278054148229398D+03 0.619239217477507D+03
 0.164131212794545D+03 0.145559384639613D+03 0.256327530026728D+02 -.713756438167063D+02
 0.350193289263976D+03 0.348705669574388D+03 -.488389403511746D-01 -.322442780498941D+02
 0.198710304944924D+04 0.186299184794448D+04 0.451288593111532D+03 -.515619295610907D+03
 0.194922651459084D+04 -.177939891290606D+04 -.754926655403252D+03 -.251613312236000D+03
0.193684635574D-01 0.000000000000D+00 0.000000000000D+00 0.932787420999D-06 0.000000000000D+00  7 -2 2 23 -13 13 23 21 0 0.41573428D+00 0.11111816D+00 0.15473201D+07 0.15473201D+07 0.15473201D+07 0.10354726D+01  1  2  2  1  7  1       -2 0.364911534045D-03 0.100000000000D+01
-.105838954356D-02 0.000000000000D+00 -.743799998938D-04 0.932787420999D-06 0.000000000000D+00  7 -2 2 23 -13 13 23 21 2 0.41573428D+00 0.11111816D+00 0.15473201D+07 0.15473201D+07 0.15473201D+07 0.10354726D+01  1  2  3  1  7  1       -2 -.213803695634D-04 0.100000000000D+01
0.119232681845D-02 0.000000000000D+00 0.000000000000D+00 0.932787420999D-06 0.000000000000D+00  7 -2 2 23 -13 13 23 21 2 0.41573428D+00 0.11111816D+00 0.15473201D+07 0.15473201D+07 0.15473201D+07 0.10354726D+01  1  2 15  1  7  1       -2 0.240860165086D-04 0.100000000000D+01
  </mgrwgt>
  </event>
  <event>
  8     66 0.27870365E-05 0.31448362E+03 0.75467711E-02 0.93036534E-01
       -2 -1    0    0    0  501 0.00000000E+00 0.00000000E+00 0.23055073E+03 0.23055095E+03 0.32000000E+00 0.0000E+00 0.9000E+01
        2 -1    0    0  501    0 0.00000000E+00 0.00000000E+00 -.15525943E+04 0.15525943E+04 0.32000000E+00 0.0000E+00 0.9000E+01
       25  2    1    2    0    0 -.44807232E+03 0.20026882E+03 -.30729990E+03 0.65226228E+03 0.30022732E+03 0.0000E+00 0.0000E+00
       23  2    3    3    0    0 -.15855778E+03 -.18760607E+01 -.20275127E+03 0.27288530E+03 0.90632352E+02 0.0000E+00 0.0000E+00
       23  1    1    2    0    0 0.44807232E+03 -.20026882E+03 -.10147437E+04 0.11308830E+04 0.91188000E+02 0.0000E+00 0.9000E+01
      -13  1    4    4    0    0 -.81715368E+02 -.40690561E+02 -.71658099E+02 0.11605179E+03 0.10565837E+00 0.0000E+00 0.9000E+01
       13  1    4    4    0    0 -.76842413E+02 0.38814500E+02 -.13109317E+03 0.15683352E+03 0.10565837E+00 0.0000E+00 0.9000E+01
       23  1    3    3    0    0 -.28951454E+03 0.20214488E+03 -.10454864E+03 0.37937698E+03 0.91188000E+02 0.0000E+00 0.9000E+01
#aMCatNLO 1  0  0  1  2 0.10525209D+03 0.00000000D+00  -5  7  0 0.00000000D+00 0.00000000D+00 0.00000000D+00 0.00000000D+00 0.00000000D+00
  <mgrwgt>
 0.4160290829D-03    9    2    0
 0.598290877552779D+03 0.000000000000000D+00 0.000000000000000D+00 0.598290877552779D+03
 0.598290877552779D+03 0.000000000000000D+00 0.000000000000000D+00 -.598290877552779D+03
 0.564101322755859D+03 0.448072316684895D+03 -.200268823004130D+03 -.262714005230175D+03
 0.937688354071617D+02 -.817153750996632D+02 -.406906690458854D+02 0.214350511670705D+02
 0.888748765132295D+02 -.768424061756381D+02 0.388146083894728D+02 -.220774650707888D+02
 0.449836720429307D+03 -.289514535409594D+03 0.202144883660543D+03 0.263356419133894D+03
 0.000000000000000D+00 -.000000000000000D+00 -.000000000000000D+00 0.000000000000000D+00
 0.722122822931925D+03 0.000000000000000D+00 0.000000000000000D+00 0.722122822931925D+03
 0.623391062567268D+03 0.000000000000000D+00 0.000000000000000D+00 -.623391062567268D+03
 0.558551378401228D+03 0.459802379054857D+03 -.152405756588540D+03 -.262714005230175D+03
 0.889436757674305D+02 -.798062992566699D+02 -.329009215591556D+02 0.214350511670705D+02
 0.909251763203794D+02 -.749637612200906D+02 0.464801864096672D+02 -.220774650707888D+02
 0.462781625194028D+03 -.279979021796970D+03 0.241053365725954D+03 0.263356419133894D+03
 0.144312029816127D+03 -.250532967811260D+02 -.102226873987926D+03 0.987317603646570D+02
0.285349977896D-04 0.000000000000D+00 0.000000000000D+00 0.137410671104D-05 0.000000000000D+00  7 -2 2 23 -13 13 23 21 0 0.35469362D-01 0.23886068D+00 0.27105189D+06 0.27105189D+06 0.27105189D+06 0.10878274D+01  1  2  2  1  7  1       -2 0.318871288310D-03 0.100000000000D+01
-.154801335009D-05 0.000000000000D+00 -.109581904950D-06 0.137410671104D-05 0.000000000000D+00  7 -2 2 23 -13 13 23 21 2 0.35469362D-01 0.23886068D+00 0.27105189D+06 0.27105189D+06 0.27105189D+06 0.10878274D+01  1  2  3  1  7  1       -2 -.204706798046D-04 0.100000000000D+01
0.178002649812D-05 0.000000000000D+00 0.000000000000D+00 0.137410671104D-05 0.000000000000D+00  7 -2 2 23 -13 13 23 21 2 0.35469362D-01 0.23886068D+00 0.27105189D+06 0.27105189D+06 0.27105189D+06 0.10878274D+01  1  2 15  1  7  1       -2 0.235387843939D-04 0.100000000000D+01
0.548538220803D-04 0.000000000000D+00 0.000000000000D+00 0.137410671104D-05 0.000000000000D+00  7 -2 2 23 -13 13 23 21 2 0.43446367D-01 0.23886068D+00 0.33248401D+06 0.33248401D+06 0.33248401D+06 0.10812639D+01  1  2 12  1  7  1       -2 0.486013852857D-03 0.100000000000D+01
-.561504187061D-04 0.000000000000D+00 0.000000000000D+00 0.137410671104D-05 0.000000000000D+00  7 -2 2 23 -13 13 23 21 2 0.35469362D-01 0.23886068D+00 0.27105189D+06 0.27105189D+06 0.27105189D+06 0.10878274D+01  1  2  4  1  7  1       -2 -.742524114641D-03 0.100000000000D+01
-.892058226077D-04 0.000000000000D+00 -.185869359487D-04 0.137410671104D-05 0.000000000000D+00  7 -2 2 23 -13 13 23 21 2 0.44347821D-01 0.23886068D+00 0.27105189D+06 0.27105189D+06 0.27105189D+06 0.10878274D+01  1  2  5  1  7  1       -2 -.775557844255D-03 0.100000000000D+01
0.915192295965D-04 0.000000000000D+00 0.181325974707D-04 0.137410671104D-05 0.000000000000D+00  7 -2 2 23 -13 13 23 21 2 0.35469362D-01 0.23886068D+00 0.27105189D+06 0.27105189D+06 0.27105189D+06 0.10878274D+01  1  2  6  1  7  1       -2 0.121023558675D-02 0.100000000000D+01
0.158689450384D-05 0.000000000000D+00 0.000000000000D+00 0.137410671104D-05 0.000000000000D+00  7 21 2 23 -13 13 23 2 2 0.43446367D-01 0.23886068D+00 0.33248401D+06 0.33248401D+06 0.33248401D+06 0.10812639D+01  1  2 12  3  7  1       -2 0.150285763656D-03 0.100000000000D+01
-.251803210175D-05 0.000000000000D+00 -.578496476029D-06 0.137410671104D-05 0.000000000000D+00  7 21 2 23 -13 13 23 2 2 0.44347821D-01 0.23886068D+00 0.27105189D+06 0.27105189D+06 0.27105189D+06 0.10878274D+01  1  2  5  3  7  1       -2 -.234363554313D-03 0.100000000000D+01
  </mgrwgt>
  </event>
  <event>
  9     66 0.27870365E-05 0.33406223E+03 0.75467711E-02 0.98341149E-01
       21 -1    0    0  502  501 0.00000000E+00 0.00000000E+00 0.66532411E+03 0.66532453E+03 0.75000000E+00 0.0000E+00 0.9000E+01
        2 -1    0    0  501    0 0.00000000E+00 0.00000000E+00 -.29595796E+03 0.29595814E+03 0.32000000E+00 0.0000E+00 0.9000E+01
       25  2    1    2    0    0 -.29489174E+02 -.28423810E+03 0.80355465E+02 0.42257173E+03 0.30074733E+03 0.0000E+00 0.0000E+00
       23  2    3    3    0    0 0.92441593E+02 -.19454683E+03 0.77456287E+02 0.24583664E+03 0.89678644E+02 0.0000E+00 0.0000E+00
       23  1    1    2    0    0 -.13895415E+02 0.24449540E+03 0.18604859E+02 0.26197801E+03 0.91188000E+02 0.0000E+00 0.9000E+01
      -13  1    4    4    0    0 0.52530033E+01 -.11425913E+03 0.45338238E+02 0.12303784E+03 0.10565837E+00 0.0000E+00 0.9000E+01
       13  1    4    4    0    0 0.87188590E+02 -.80287704E+02 0.32118050E+02 0.12279880E+03 0.10565837E+00 0.0000E+00 0.9000E+01
       23  1    3    3    0    0 -.12193077E+03 -.89691263E+02 0.28991773E+01 0.17673509E+03 0.91188000E+02 0.0000E+00 0.9000E+01
        2  1    1    2  502    0 0.43384589E+02 0.39742696E+02 0.27040582E+03 0.27673293E+03 0.32000000E+00 0.0000E+00 0.9000E+01
#aMCatNLO 2  0  0  1  2 0.58836251D+02 0.00000000D+00  -5  7  0 0.00000000D+00 0.00000000D+00 0.00000000D+00 0.00000000D+00 0.00000000D+00
  <mgrwgt>
 0.2011081547D-04    2    2    0
 0.337399426521229D+03 0.000000000000000D+00 0.000000000000000D+00 0.337399426521229D+03
 0.337399426521229D+03 0.000000000000000D+00 0.000000000000000D+00 -.337399426521229D+03
 0.276541508434829D+03 0.338524612682073D+01 0.260325448531364D+03 -.194719156483170D+02
 0.111775174048934D+03 0.126163511145518D+02 -.107513837878074D+03 0.278440636932040D+02
 0.120740090587490D+03 0.948940281588815D+02 -.732291502535890D+02 0.145184175444155D+02
 0.165742079971206D+03 -.110895625400254D+03 -.795824603997017D+02 -.228905655893025D+02
 0.000000000000000D+00 0.000000000000000D+00 0.000000000000000D+00 0.000000000000000D+00
 0.575185117419306D+03 0.000000000000000D+00 0.000000000000000D+00 0.575185117419306D+03
 0.342338713274033D+03 0.000000000000000D+00 0.000000000000000D+00 -.342338713274033D+03
 0.262041010113281D+03 -.138954148220233D+02 0.244495401971279D+03 -.194719156483170D+02
 0.117720195974477D+03 0.525288954250705D+01 -.114259178225525D+03 0.278440636932040D+02
 0.119410059027085D+03 0.871887032190916D+02 -.802876564599513D+02 0.145184175444155D+02
 0.178187721351445D+03 -.121930766872877D+03 -.896912637507930D+02 -.228905655893025D+02
 0.240164844227050D+03 0.433845889333017D+02 0.397426964649895D+02 0.232846404145272D+03
-.295217759820D-05 0.000000000000D+00 0.000000000000D+00 0.597295074140D-07 0.000000000000D+00  7 21 2 23 -13 13 23 2 2 0.10252276D+00 0.44875087D-01 0.13314038D+06 0.13314038D+06 0.13314038D+06 0.11116615D+01  1  2 13  3  7  1       -2 -.377626959256D-03 0.100000000000D+01
0.314621424662D-05 0.000000000000D+00 0.000000000000D+00 0.597295074140D-07 0.805467378195D-11  7 21 2 23 -13 13 23 2 2 0.10235757D+00 0.45532026D-01 0.13314038D+06 0.13314038D+06 0.13314038D+06 0.11116615D+01  1  2  1  3  7  1       -2 0.397737774730D-03 0.100000000000D+01
  </mgrwgt>
  </event>
  <event>
  8     66 0.27870365E-05 0.44214547E+03 0.75467711E-02 0.89137184E-01
       -2 -1    0    0    0  501 0.00000000E+00 0.00000000E+00 0.17454971E+03 0.17455001E+03 0.32000000E+00 0.0000E+00 0.9000E+01
        2 -1    0    0  501    0 0.00000000E+00 0.00000000E+00 -.14224606E+04 0.14224606E+04 0.32000000E+00 0.0000E+00 0.9000E+01
       25  2    1    2    0    0 0.41228741E+02 0.39392770E+03 -.10116699E+04 0.11269001E+04 0.29924749E+03 0.0000E+00 0.0000E+00
       23  2    3    3    0    0 -.68381772E+02 0.53648884E+02 -.18309094E+03 0.21989269E+03 0.85300841E+02 0.0000E+00 0.0000E+00
       23  1    1    2    0    0 -.41228741E+02 -.39392770E+03 -.23624097E+03 0.47011051E+03 0.91188000E+02 0.0000E+00 0.9000E+01
      -13  1    4    4    0    0 -.56847890E+02 0.69192767E+02 -.17893928E+03 0.20009647E+03 0.10565837E+00 0.0000E+00 0.9000E+01
       13  1    4    4    0    0 -.11533882E+02 -.15543883E+02 -.41516583E+01 0.19796215E+02 0.10565837E+00 0.0000E+00 0.9000E+01
       23  1    3    3    0    0 0.10961051E+03 0.34027881E+03 -.82857898E+03 0.90700745E+03 0.91188000E+02 0.0000E+00 0.9000E+01
#aMCatNLO 1  0  0  1  2 0.62628439D+03 0.00000000D+00  -5  7  0 0.00000000D+00 0.00000000D+00 0.00000000D+00 0.00000000D+00 0.00000000D+00
  <mgrwgt>
 0.5114914878D-03    5    2    0
 0.498287418823827D+03 0.000000000000000D+00 0.000000000000000D+00 0.498287418823827D+03
 0.498287418823827D+03 0.000000000000000D+00 0.000000000000000D+00 -.498287418823827D+03
 0.457530918140614D+03 -.412287407325359D+02 -.393927697054721D+03 0.210096287785783D+03
 0.965868546254255D+02 -.568479599205650D+02 0.691928966128977D+02 -.361894044938539D+02
 0.265246110313705D+02 -.115338122355469D+02 -.155440125492355D+02 0.181358716236595D+02
 0.415932453850244D+03 0.109610512888648D+03 0.340278812991059D+03 -.192042754915589D+03
 0.000000000000000D+00 -.000000000000000D+00 -.000000000000000D+00 0.000000000000000D+00
 0.946675856198531D+03 0.000000000000000D+00 0.000000000000000D+00 0.946675856198531D+03
 0.862294824306905D+03 0.000000000000000D+00 0.000000000000000D+00 -.862294824306905D+03
 0.292865847146918D+03 0.392113903038267D+01 -.182481033558065D+03 0.210096287785783D+03
 0.149140630253697D+03 -.420630262561913D+02 0.138433942431114D+03 -.361894044938539D+02
 0.202608298115844D+02 -.871882538268497D+01 -.236081957175459D+01 0.181358716236595D+02
 0.714760108795403D+03 0.177642033830394D+03 0.658885156823439D+03 -.192042754915589D+03
 0.631943264497834D+03 -.130781321221900D+03 -.612477246124734D+03 0.843810318916260D+02
0.214498924305D-04 0.000000000000D+00 0.000000000000D+00 0.167620735905D-07 0.000000000000D+00  7 -2 2 23 -13 13 23 21 0 0.26853827D-01 0.21884012D+00 0.19549261D+06 0.19549261D+06 0.19549261D+06 0.10985865D+01  1  2  2  1  7  1       -2 0.469106033224D-03 0.100000000000D+01
-.117095703787D-05 0.000000000000D+00 -.823732348194D-07 0.167620735905D-07 0.000000000000D+00  7 -2 2 23 -13 13 23 21 2 0.26853827D-01 0.21884012D+00 0.19549261D+06 0.19549261D+06 0.19549261D+06 0.10985865D+01  1  2  3  1  7  1       -2 -.309068956705D-04 0.100000000000D+01
0.134394596510D-05 0.000000000000D+00 0.000000000000D+00 0.167620735905D-07 0.000000000000D+00  7 -2 2 23 -13 13 23 21 2 0.26853827D-01 0.21884012D+00 0.19549261D+06 0.19549261D+06 0.19549261D+06 0.10985865D+01  1  2 15  1  7  1       -2 0.354728622714D-04 0.100000000000D+01
0.592548985977D-05 0.000000000000D+00 -.720453277215D-05 0.167620735905D-07 0.000000000000D+00  7 -2 2 23 -13 13 23 21 2 0.91314303D-01 0.21884012D+00 0.19549261D+06 0.19549261D+06 0.19549261D+06 0.10985865D+01  1  2  5  1  7  1       -2 0.136785276039D-04 0.100000000000D+01
0.110229125621D-05 0.000000000000D+00 -.102654888864D-05 0.167620735905D-07 0.000000000000D+00  7 21 2 23 -13 13 23 2 2 0.91314303D-01 0.21884012D+00 0.19549261D+06 0.19549261D+06 0.19549261D+06 0.10985865D+01  1  2  5  3  7  1       -2 0.241409603854D-04 0.100000000000D+01
  </mgrwgt>
  </event>
  <event>
  7     66 0.27870365E-05 0.30492840E+03 0.75467711E-02 0.89278435E-01
       -2 -1    0    0    0  501 0.00000000E+00 0.00000000E+00 0.54447097E+03 0.54447106E+03 0.32000000E+00 0.0000E+00 0.9000E+01
        2 -1    0    0  501    0 0.00000000E+00 0.00000000E+00 -.17088176E+04 0.17088176E+04 0.32000000E+00 0.0000E+00 0.9000E+01
       23  2    1    2    0    0 0.45514959E+01 -.14851374E+03 0.83904577E+02 0.19453649E+03 0.93420663E+02 0.0000E+00 0.0000E+00
       23  1    1    2    0    0 -.35642461E+03 0.61306665E+03 -.12820262E+04 0.14679222E+04 0.91188000E+02 0.0000E+00 0.9000E+01
      -13  1    3    3    0    0 -.75599409E+01 -.14726471E+03 0.97118947E+02 0.17656769E+03 0.10565837E+00 0.0000E+00 0.9000E+01
       13  1    3    3    0    0 0.12111437E+02 -.12490277E+01 -.13214370E+02 0.17968799E+02 0.10565837E+00 0.0000E+00 0.9000E+01
       23  1    1    2    0    0 0.35187312E+03 -.46455292E+03 0.33774960E+02 0.59083001E+03 0.91188000E+02 0.0000E+00 0.9000E+01
#aMCatNLO 1  0  0  1  2 0.17905481D+03 0.00000000D+00  -5  7  0 0.00000000D+00 0.00000000D+00 0.00000000D+00 0.00000000D+00 0.00000000D+00
  <mgrwgt>
 0.6626302300D-03    9    2    0
 0.964573334946203D+03 0.000000000000000D+00 0.000000000000000D+00 0.964573334946203D+03
 0.964573334946203D+03 0.000000000000000D+00 0.000000000000000D+00 -.964573334946203D+03
 0.940794018817891D+03 -.356424613336195D+03 0.613066654244055D+03 -.611464559039739D+03
 0.264852189843339D+03 -.755996033131508D+01 -.147264898633365D+03 0.220005861501701D+03
 0.130120554762031D+02 0.121114631562730D+02 -.124884182474637D+01 -.458981938934338D+01
 0.710488405754973D+03 0.351873110511237D+03 -.464552913785944D+03 0.396048516927382D+03
 0.000000000000000D+00 -.000000000000000D+00 0.000000000000000D+00 0.000000000000000D+00
 0.109172219009642D+04 0.000000000000000D+00 0.000000000000000D+00 0.109172219009642D+04
 0.103388147872045D+04 0.000000000000000D+00 0.000000000000000D+00 -.103388147872045D+04
 0.900574461488639D+03 -.273044337673604D+03 0.595211720351904D+03 -.611464559039739D+03
 0.268166493546312D+03 0.165760261535529D+02 -.152433344524010D+03 0.220005861501701D+03
 0.141914661512375D+02 0.133432845741739D+02 -.151262231490162D+01 -.458981938934338D+01
 0.754505964855152D+03 0.418210530626781D+03 -.478758314779483D+03 0.396048516927382D+03
 0.188165282775532D+03 -.175085503680904D+03 0.374925612664915D+02 0.578407113759718D+02
0.275517047743D-03 0.000000000000D+00 0.000000000000D+00 0.262006380332D-08 0.000000000000D+00  7 -2 2 23 -13 13 23 21 0 0.83764774D-01 0.26289503D+00 0.53617834D+06 0.53617834D+06 0.53617834D+06 0.10663728D+01  1  2  2  1  7  1       -2 0.423592372512D-03 0.100000000000D+01
-.138931956314D-04 0.000000000000D+00 -.105805800864D-05 0.262006380332D-08 0.000000000000D+00  7 -2 2 23 -13 13 23 21 2 0.83764774D-01 0.26289503D+00 0.53617834D+06 0.53617834D+06 0.53617834D+06 0.10663728D+01  1  2  3  1  7  1       -2 -.242895738626D-04 0.100000000000D+01
0.167788510865D-04 0.000000000000D+00 0.000000000000D+00 0.262006380332D-08 0.000000000000D+00  7 -2 2 23 -13 13 23 21 2 0.83764774D-01 0.26289503D+00 0.53617834D+06 0.53617834D+06 0.53617834D+06 0.10663728D+01  1  2 15  1  7  1       -2 0.293345860527D-04 0.100000000000D+01
0.315856519993D-03 0.000000000000D+00 0.000000000000D+00 0.262006380332D-08 0.000000000000D+00  7 -2 2 23 -13 13 23 21 2 0.97501315D-01 0.26289503D+00 0.67995558D+06 0.67995558D+06 0.67995558D+06 0.10592006D+01  1  2 12  1  7  1       -2 0.375918515508D-03 0.100000000000D+01
-.304095683764D-03 0.000000000000D+00 0.000000000000D+00 0.262006380332D-08 0.000000000000D+00  7 -2 2 23 -13 13 23 21 2 0.83764774D-01 0.26289503D+00 0.53617834D+06 0.53617834D+06 0.53617834D+06 0.10663728D+01  1  2  4  1  7  1       -2 -.531652671427D-03 0.100000000000D+01
-.710228615648D-03 0.000000000000D+00 -.201802924658D-03 0.262006380332D-08 0.000000000000D+00  7 -2 2 23 -13 13 23 21 2 0.10065234D+00 0.26289503D+00 0.53617834D+06 0.53617834D+06 0.53617834D+06 0.10663728D+01  1  2  5  1  7  1       -2 -.804690053958D-03 0.100000000000D+01
0.738163516416D-03 0.000000000000D+00 0.198446610606D-03 0.262006380332D-08 0.000000000000D+00  7 -2 2 23 -13 13 23 21 2 0.83764774D-01 0.26289503D+00 0.53617834D+06 0.53617834D+06 0.53617834D+06 0.10663728D+01  1  2  6  1  7  1       -2 0.129053658571D-02 0.100000000000D+01
0.727689039011D-05 0.000000000000D+00 0.000000000000D+00 0.262006380332D-08 0.000000000000D+00  7 21 2 23 -13 13 23 2 2 0.97501315D-01 0.26289503D+00 0.67995558D+06 0.67995558D+06 0.67995558D+06 0.10592006D+01  1  2 12  3  7  1       -2 0.781420907973D-04 0.100000000000D+01
-.170232957777D-04 0.000000000000D+00 -.540665281431D-05 0.262006380332D-08 0.000000000000D+00  7 21 2 23 -13 13 23 2 2 0.10065234D+00 0.26289503D+00 0.53617834D+06 0.53617834D+06 0.53617834D+06 0.10663728D+01  1  2  5  3  7  1       -2 -.174261621313D-03 0.100000000000D+01
  </mgrwgt>
  </event>
  <event>
  8     66 0.27870365E-05 0.41882448E+03 0.75467711E-02 0.89685204E-01
       -2 -1    0    0    0  501 0.00000000E+00 0.00000000E+00 0.19993298E+03 0.19993324E+03 0.32000000E+00 0.0000E+00 0.9000E+01
        2 -1    0    0  501    0 0.00000000E+00 0.00000000E+00 -.34228265E+04 0.34228265E+04 0.32000000E+00 0.0000E+00 0.9000E+01
       25  2    1    2    0    0 -.63064380E+03 0.25947984E+03 -.75457035E+03 0.10603437E+04 0.29985164E+03 0.0000E+00 0.0000E+00
       23  2    3    3    0    0 -.28808072E+03 0.20231411E+03 -.50821463E+03 0.62488560E+03 0.90985717E+02 0.0000E+00 0.0000E+00
       23  1    1    2    0    0 0.63064380E+03 -.25947984E+03 -.24683232E+04 0.25624160E+04 0.91188000E+02 0.0000E+00 0.9000E+01
      -13  1    4    4    0    0 -.12641472E+03 0.13086735E+03 -.20663033E+03 0.27532353E+03 0.10565837E+00 0.0000E+00 0.9000E+01
       13  1    4    4    0    0 -.16166600E+03 0.71446760E+02 -.30158430E+03 0.34956206E+03 0.10565837E+00 0.0000E+00 0.9000E+01
       23  1    3    3    0    0 -.34256308E+03 0.57165735E+02 -.24635572E+03 0.43545813E+03 0.91188000E+02 0.0000E+00 0.9000E+01
#aMCatNLO 1  0  0  2  1 0.16758353D+03 0.00000000D+00  -5  7  0 0.00000000D+00 0.00000000D+00 0.00000000D+00 0.00000000D+00 0.00000000D+00
  <mgrwgt>
 0.3023908380D-03    9    2    0
 0.827246275985605D+03 0.000000000000000D+00 0.000000000000000D+00 0.827246275985605D+03
 0.827246275985605D+03 0.000000000000000D+00 0.000000000000000D+00 -.827246275985605D+03
 0.802587430011428D+03 0.630643802555861D+03 -.259479841311645D+03 -.413267392518592D+03
 0.200353588570045D+03 -.126414674123805D+03 0.130867427020792D+03 0.838725650259045D+02
 0.177942918580121D+03 -.161666043991275D+03 0.714466797589629D+02 0.205704750660510D+02
 0.473608614809616D+03 -.342563084440781D+03 0.571657345318904D+02 0.308824352426636D+03
 0.000000000000000D+00 0.000000000000000D+00 0.000000000000000D+00 -.000000000000000D+00
 0.854562868543284D+03 0.000000000000000D+00 0.000000000000000D+00 0.854562868543284D+03
 0.113563453996460D+04 0.000000000000000D+00 0.000000000000000D+00 -.113563453996460D+04
 0.762494517778133D+03 0.560740878416496D+03 -.296415869769633D+03 -.413267392518592D+03
 0.206507261503491D+03 -.144586734173528D+03 0.121265486395266D+03 0.838725650259045D+02
 0.189950758957606D+03 -.178097671656902D+03 0.627643667578839D+02 0.205704750660510D+02
 0.504005622742093D+03 -.386227311723996D+03 0.340939795032526D+02 0.308824352426636D+03
 0.327239247526563D+03 0.148170839137930D+03 0.782920371132301D+02 -.281071671421319D+03
0.205980901307D-03 0.000000000000D+00 0.000000000000D+00 0.362838662248D-05 0.000000000000D+00  7 -2 2 23 -13 13 23 21 0 0.30758941D-01 0.52658871D+00 0.49405730D+06 0.49405730D+06 0.49405730D+06 0.10688776D+01  1  2  2  2  7  2        2 0.223432154552D-03 0.100000000000D+01
-.110741737351D-04 0.000000000000D+00 -.791020897038D-06 0.362838662248D-05 0.000000000000D+00  7 -2 2 23 -13 13 23 21 2 0.30758941D-01 0.52658871D+00 0.49405730D+06 0.49405730D+06 0.49405730D+06 0.10688776D+01  1  2  3  2  7  2        2 -.137241667916D-04 0.100000000000D+01
0.130337251602D-04 0.000000000000D+00 0.000000000000D+00 0.362838662248D-05 0.000000000000D+00  7 -2 2 23 -13 13 23 21 2 0.30758941D-01 0.52658871D+00 0.49405730D+06 0.49405730D+06 0.49405730D+06 0.10688776D+01  1  2 15  2  7  2        2 0.161526288366D-04 0.100000000000D+01
0.282734882771D-03 0.000000000000D+00 0.000000000000D+00 0.362838662248D-05 0.000000000000D+00  7 -2 2 23 -13 13 23 21 2 0.30758941D-01 0.72916348D+00 0.62743816D+06 0.62743816D+06 0.62743816D+06 0.10616108D+01  1  2 12  2  7  2        2 0.240523833652D-04 0.100000000000D+01
-.286383432216D-03 0.000000000000D+00 0.000000000000D+00 0.362838662248D-05 0.000000000000D+00  7 -2 2 23 -13 13 23 21 2 0.30758941D-01 0.52658871D+00 0.49405730D+06 0.49405730D+06 0.49405730D+06 0.10688776D+01  1  2  4  2  7  2        2 -.354913520784D-03 0.100000000000D+01
-.344351147599D-03 0.000000000000D+00 -.517476716929D-04 0.362838662248D-05 0.000000000000D+00  7 -2 2 23 -13 13 23 21 2 0.30758941D-01 0.72577229D+00 0.49405730D+06 0.49405730D+06 0.49405730D+06 0.10688776D+01  1  2  5  2  7  2        2 -.322239510866D-04 0.100000000000D+01
0.354731837778D-03 0.000000000000D+00 0.507526278657D-04 0.362838662248D-05 0.000000000000D+00  7 -2 2 23 -13 13 23 21 2 0.30758941D-01 0.52658871D+00 0.49405730D+06 0.49405730D+06 0.49405730D+06 0.10688776D+01  1  2  6  2  7  2        2 0.439617349739D-03 0.100000000000D+01
0.115908840144D-04 0.000000000000D+00 0.000000000000D+00 0.362838662248D-05 0.000000000000D+00  7 -2 21 23 -13 13 23 -2 2 0.30758941D-01 0.72916348D+00 0.62743816D+06 0.62743816D+06 0.62743816D+06 0.10616108D+01  1  2 12  4  7  2        2 0.854170795006D-08 0.100000000000D+01
-.126850545593D-04 0.000000000000D+00 -.209949494803D-05 0.362838662248D-05 0.000000000000D+00  7 -2 21 23 -13 13 23 -2 2 0.30758941D-01 0.72577229D+00 0.49405730D+06 0.49405730D+06 0.49405730D+06 0.10688776D+01  1  2  5  4  7  2        2 -.105815463302D-07 0.100000000000D+01
  </mgrwgt>
  </event>
  <event>
  9     66 0.27870365E-05 0.24130932E+03 0.75467711E-02 0.94759636E-01
       -2 -1    0    0    0  501 0.00000000E+00 0.00000000E+00 0.40811885E+03 0.40811897E+03 0.32000000E+00 0.0000E+00 0.9000E+01
        2 -1    0    0  502    0 0.00000000E+00 0.00000000E+00 -.17329655E+04 0.17329656E+04 0.32000000E+00 0.0000E+00 0.9000E+01
       25  2    1    2    0    0 -.14148281E+02 0.14072753E+03 -.11587012E+04 0.12049357E+04 0.29879295E+03 0.0000E+00 0.0000E+00
       23  2    3    3    0    0 0.10872356E+02 0.18582573E+03 -.93881480E+03 0.96136816E+03 0.90587549E+02 0.0000E+00 0.0000E+00
       23  1    1    2    0    0 -.30139685E+03 0.34058884E+02 0.23670259E+03 0.39540288E+03 0.91188000E+02 0.0000E+00 0.9000E+01
      -13  1    4    4    0    0 0.44105477E+02 0.52060553E+02 -.26894945E+03 0.27746966E+03 0.10565837E+00 0.0000E+00 0.9000E+01
       13  1    4    4    0    0 -.33233121E+02 0.13376517E+03 -.66986535E+03 0.68389850E+03 0.10565837E+00 0.0000E+00 0.9000E+01
       23  1    3    3    0    0 -.25020637E+02 -.45098199E+02 -.21988643E+03 0.24356759E+03 0.91188000E+02 0.0000E+00 0.9000E+01
       21  1    1    2  502  501 0.31554513E+03 -.17478641E+03 -.40284805E+03 0.54074590E+03 0.75000000E+00 0.0000E+00 0.9000E+01
#aMCatNLO 2  0  0  2  1 0.36072014D+03 0.00000000D+00  -5  7  0 0.00000000D+00 0.00000000D+00 0.00000000D+00 0.00000000D+00 0.00000000D+00
  <mgrwgt>
 0.6822826478D-04    1    2    0
 0.628665895695385D+03 0.000000000000000D+00 0.000000000000000D+00 0.628665895695385D+03
 0.628665895695385D+03 0.000000000000000D+00 0.000000000000000D+00 -.628665895695385D+03
 0.596469949254511D+03 -.148005988750456D+03 -.509072132408309D+02 0.568299069112145D+03
 0.159776322073226D+03 0.821958173077609D+02 0.309615404530270D+02 -.133467987641727D+03
 0.352323629529275D+03 0.549433915104810D+02 0.849225902797720D+02 -.337492692238190D+03
 0.148761890533759D+03 0.108667799322144D+02 -.649769174919682D+02 -.973383892322288D+02
 0.000000000000000D+00 0.000000000000000D+00 -.000000000000000D+00 -.000000000000000D+00
 0.786981285577024D+03 0.000000000000000D+00 0.000000000000000D+00 0.786981285577024D+03
 0.898694082865234D+03 0.000000000000000D+00 0.000000000000000D+00 -.898694082865234D+03
 0.650599070966709D+03 -.301396848426123D+03 0.340588843595062D+02 0.568299069112145D+03
 0.149897617485871D+03 0.441055824948601D+02 0.520604417537679D+02 -.133467987641727D+03
 0.364553036446526D+03 -.332332260563217D+02 0.133765286057668D+03 -.337492692238190D+03
 0.143003122907566D+03 -.250206372911789D+02 -.450981985065333D+02 -.973383892322288D+02
 0.377622520635587D+03 0.315545129278764D+03 -.174786413664409D+03 -.111712797288211D+03
0.195525067782D-04 0.000000000000D+00 0.000000000000D+00 0.465673617641D-06 0.241075765505D-10  7 -2 2 23 -13 13 23 21 2 0.62787499D-01 0.26660997D+00 0.24417039D+06 0.24417039D+06 0.24417039D+06 0.10912308D+01  1  2  1  2  7  2        2 0.682282647833D-04 0.100000000000D+01
  </mgrwgt>
  </event>
  <event>
  8     66 0.27870365E-05 0.19998837E+03 0.75467711E-02 0.10218926E+00
       -2 -1    0    0    0  501 0.00000000E+00 0.00000000E+00 0.58223137E+02 0.58224016E+02 0.32000000E+00 0.0000E+00 0.9000E+01
        2 -1    0    0  501    0 0.00000000E+00 0.00000000E+00 -.12061008E+04 0.12061009E+04 0.32000000E+00 0.0000E+00 0.9000E+01
       25  2    1    2    0    0 0.12156349E+02 0.11765717E+03 -.46545790E+03 0.56575276E+03 0.29905543E+03 0.0000E+00 0.0000E+00
       23  2    3    3    0    0 -.84549877E+01 0.10233699E+03 -.44123630E+03 0.46796998E+03 0.11731193E+03 0.0000E+00 0.0000E+00
       23  1    1    2    0    0 -.12156349E+02 -.11765717E+03 -.68241980E+03 0.69857213E+03 0.91188000E+02 0.0000E+00 0.9000E+01
      -13  1    4    4    0    0 -.54134812E+02 0.13186962E+02 -.16088374E+03 0.17025881E+03 0.10565837E+00 0.0000E+00 0.9000E+01
       13  1    4    4    0    0 0.45679824E+02 0.89150032E+02 -.28035256E+03 0.29771117E+03 0.10565837E+00 0.0000E+00 0.9000E+01
       23  1    3    3    0    0 0.20611337E+02 0.15320171E+02 -.24221601E+02 0.97782781E+02 0.91188000E+02 0.0000E+00 0.9000E+01
#aMCatNLO 1  0  0  1  1 0.12390470D+03 0.00000000D+00  -5  7  0 0.00000000D+00 0.00000000D+00 0.00000000D+00 0.00000000D+00 0.00000000D+00
  <mgrwgt>
 0.5022723137D-03    3    2    0
 0.264997276092714D+03 0.000000000000000D+00 0.000000000000000D+00 0.264997276092714D+03
 0.264997276092714D+03 0.000000000000000D+00 0.000000000000000D+00 -.264997276092714D+03
 0.188469228693012D+03 -.121563494355828D+02 -.117657166554579D+03 -.114953960988244D+03
 0.577126360227857D+02 -.541343161567219D+02 0.131872343956202D+02 -.150439695538644D+02
 0.103006702026688D+03 0.456792012175384D+02 0.891498156237303D+02 -.240021168399240D+02
 0.180805985442943D+03 0.206114643747662D+02 0.153201165352290D+02 0.154000047382033D+03
 0.000000000000000D+00 0.000000000000000D+00 -.000000000000000D+00 -.000000000000000D+00
 0.287779474575003D+03 0.000000000000000D+00 0.000000000000000D+00 0.287779474575003D+03
 0.517595779996120D+03 0.000000000000000D+00 0.000000000000000D+00 -.517595779996120D+03
 0.188992528708786D+03 -.541312284959618D+02 -.106105237940322D+03 -.114953960988244D+03
 0.722889788525170D+02 -.685908854780907D+02 0.171658344665647D+02 -.150439695538644D+02
 0.101018184903550D+03 0.229910221205282D+02 0.953938413644392D+02 -.240021168399240D+02
 0.181985711642320D+03 -.197320599973032D+02 0.264230791649320D+02 0.154000047382033D+03
 0.261089850463950D+03 0.119463151850827D+03 -.328775170556137D+02 -.229816305421116D+03
0.286110185757D-05 0.000000000000D+00 0.000000000000D+00 0.166761569342D-09 0.000000000000D+00  7 -2 2 23 -13 13 23 21 0 0.89574765D-02 0.18555405D+00 0.39995346D+05 0.39995346D+05 0.39995346D+05 0.11559229D+01  1  2  2  1  7  1       -2 0.493745074492D-03 0.100000000000D+01
-.143640047217D-06 0.000000000000D+00 -.109873844785D-07 0.166761569342D-09 0.000000000000D+00  7 -2 2 23 -13 13 23 21 2 0.89574765D-02 0.18555405D+00 0.39995346D+05 0.39995346D+05 0.39995346D+05 0.11559229D+01  1  2  3  1  7  1       -2 -.331209470843D-04 0.100000000000D+01
0.180621267445D-06 0.000000000000D+00 0.000000000000D+00 0.166761569342D-09 0.000000000000D+00  7 -2 2 23 -13 13 23 21 2 0.89574765D-02 0.18555405D+00 0.39995346D+05 0.39995346D+05 0.39995346D+05 0.11559229D+01  1  2 15  1  7  1       -2 0.416481862634D-04 0.100000000000D+01
  </mgrwgt>
  </event>
  <event>
  8     66 0.27870365E-05 0.15738790E+03 0.75467711E-02 0.95343840E-01
       -2 -1    0    0    0  501 0.00000000E+00 0.00000000E+00 0.10893504E+03 0.10893551E+03 0.32000000E+00 0.0000E+00 0.9000E+01
        2 -1    0    0  501    0 0.00000000E+00 0.00000000E+00 -.70123708E+03 0.70123715E+03 0.32000000E+00 0.0000E+00 0.9000E+01
       25  2    1    2    0    0 0.52424078E+02 -.75017291E+02 -.60379626E+03 0.68046820E+03 0.30015191E+03 0.0000E+00 0.0000E+00
       23  2    3    3    0    0 0.44750796E+02 -.63542150E+02 -.70429393E+02 0.13918636E+03 0.91500307E+02 0.0000E+00 0.0000E+00
       23  1    1    2    0    0 -.52424078E+02 0.75017291E+02 0.11494230E+02 0.12970446E+03 0.91188000E+02 0.0000E+00 0.9000E+01
      -13  1    4    4    0    0 0.56110316E+02 -.46502350E+02 -.77977637E+01 0.73291557E+02 0.10565837E+00 0.0000E+00 0.9000E+01
       13  1    4    4    0    0 -.11359520E+02 -.17039801E+02 -.62631629E+02 0.65894808E+02 0.10565837E+00 0.0000E+00 0.9000E+01
       23  1    3    3    0    0 0.76732823E+01 -.11475141E+02 -.53336687E+03 0.54128184E+03 0.91188000E+02 0.0000E+00 0.9000E+01
#aMCatNLO 1  0  0  1  1 0.41933289D+03 0.00000000D+00  -5  7  0 0.00000000D+00 0.00000000D+00 0.00000000D+00 0.00000000D+00 0.00000000D+00
  <mgrwgt>
 0.5185199992D-03    5    2    0
 0.276386524191206D+03 0.000000000000000D+00 0.000000000000000D+00 0.276386524191206D+03
 0.276386524191206D+03 0.000000000000000D+00 0.000000000000000D+00 -.276386524191206D+03
 0.202417725206710D+03 -.524240783994072D+02 0.750172915977739D+02 0.155826204789716D+03
 0.990645904077488D+02 0.561104056045693D+02 -.465023887729038D+02 0.671039737568459D+02
 0.294682940143536D+02 -.113596098611914D+02 -.170397615412144D+02 -.211892931108252D+02
 0.221822438753599D+03 0.767328265602922D+01 -.114751412836557D+02 -.201740885435737D+03
 0.000000000000000D+00 -.000000000000000D+00 -.000000000000000D+00 0.000000000000000D+00
 0.666082402752622D+03 0.000000000000000D+00 0.000000000000000D+00 0.666082402752622D+03
 0.484647407859506D+03 0.000000000000000D+00 0.000000000000000D+00 -.484647407859506D+03
 0.271397460540277D+03 0.512994848347387D+02 0.196030321634780D+03 0.155826204789716D+03
 0.125260286870195D+03 0.105217686867934D+03 0.107904839096937D+02 0.671039737568459D+02
 0.215654099979746D+02 -.187748375050571D+00 -.400568550836782D+01 -.211892931108252D+02
 0.275605432044763D+03 0.116565932708684D+03 0.115568599991259D+03 -.201740885435737D+03
 0.456901221158919D+03 -.272895356036307D+03 -.318383720027365D+03 0.181434994893117D+03
0.309025402101D-05 0.000000000000D+00 0.000000000000D+00 0.493192068190D-06 0.000000000000D+00  7 -2 2 23 -13 13 23 21 0 0.16759279D-01 0.10788267D+00 0.24770950D+05 0.24770950D+05 0.24770950D+05 0.11751329D+01  1  2  2  1  7  1       -2 0.414100262092D-03 0.100000000000D+01
-.105496624967D-06 0.000000000000D+00 -.118673891232D-07 0.493192068190D-06 0.000000000000D+00  7 -2 2 23 -13 13 23 21 2 0.16759279D-01 0.10788267D+00 0.24770950D+05 0.24770950D+05 0.24770950D+05 0.11751329D+01  1  2  3  1  7  1       -2 -.195219808651D-04 0.100000000000D+01
0.182263367970D-06 0.000000000000D+00 0.000000000000D+00 0.493192068190D-06 0.000000000000D+00  7 -2 2 23 -13 13 23 21 2 0.16759279D-01 0.10788267D+00 0.24770950D+05 0.24770950D+05 0.24770950D+05 0.11751329D+01  1  2 15  1  7  1       -2 0.337275432558D-04 0.100000000000D+01
0.214615525604D-05 0.000000000000D+00 -.115050012335D-05 0.493192068190D-06 0.000000000000D+00  7 -2 2 23 -13 13 23 21 2 0.68637155D-01 0.10788267D+00 0.24770950D+05 0.24770950D+05 0.24770950D+05 0.11751329D+01  1  2  5  1  7  1       -2 0.317348905761D-04 0.100000000000D+01
0.371093254115D-06 0.000000000000D+00 -.194154894602D-06 0.493192068190D-06 0.000000000000D+00  7 21 2 23 -13 13 23 2 2 0.68637155D-01 0.10788267D+00 0.24770950D+05 0.24770950D+05 0.24770950D+05 0.11751329D+01  1  2  5  3  7  1       -2 0.584792840977D-04 0.100000000000D+01
  </mgrwgt>
  </event>
  <event>
  9     66 0.27870365E-05 0.35583891E+03 0.75467711E-02 0.97411857E-01
       -2 -1    0    0    0  501 0.00000000E+00 0.00000000E+00 0.48952880E+03 0.48952891E+03 0.32000000E+00 0.0000E+00 0.9000E+01
        2 -1    0    0  502    0 0.00000000E+00 0.00000000E+00 -.40071139E+03 0.40071152E+03 0.32000000E+00 0.0000E+00 0.9000E+01
       25  2    1    2    0    0 0.63834693E+02 -.27603458E+03 0.13071635E+03 0.43633926E+03 0.30501677E+03 0.0000E+00 0.0000E+00
       23  2    3    3    0    0 0.28788748E+02 -.21420162E+03 0.19420405E+03 0.30443978E+03 0.90869378E+02 0.0000E+00 0.0000E+00
       23  1    1    2    0    0 -.38972154E+02 0.34832710E+03 -.76214992E+02 0.37010076E+03 0.91188000E+02 0.0000E+00 0.9000E+01
      -13  1    4    4    0    0 0.57483041E+02 -.95792404E+02 0.10624480E+03 0.15417021E+03 0.10565837E+00 0.0000E+00 0.9000E+01
       13  1    4    4    0    0 -.28694293E+02 -.11840921E+03 0.87959251E+02 0.15026958E+03 0.10565837E+00 0.0000E+00 0.9000E+01
       23  1    3    3    0    0 0.35045945E+02 -.61832958E+02 -.63487697E+02 0.13189948E+03 0.91188000E+02 0.0000E+00 0.9000E+01
       21  1    1    2  502  501 -.24862539E+02 -.72292524E+02 0.34316048E+02 0.83800408E+02 0.75000000E+00 0.0000E+00 0.9000E+01
#aMCatNLO 2  0  0  2  1 0.76448380D+02 0.00000000D+00  -5  7  0 0.00000000D+00 0.00000000D+00 0.00000000D+00 0.00000000D+00 0.00000000D+00
  <mgrwgt>
 0.1086143751D-03    1    2    0
 0.400478074719930D+03 0.000000000000000D+00 0.000000000000000D+00 0.400478074719930D+03
 0.400478074719930D+03 0.000000000000000D+00 0.000000000000000D+00 -.400478074719930D+03
 0.347591307874173D+03 -.501789457781311D+02 0.315741252516248D+03 -.101459355535823D+03
 0.154857957603262D+03 0.528037230025444D+02 -.109398715150633D+03 0.960451716304096D+02
 0.156891254973953D+03 -.333639688417055D+02 -.131986876057084D+03 0.779818954573661D+02
 0.141615628988474D+03 0.307391916172922D+02 -.743556613085313D+02 -.725677115519523D+02
 0.000000000000000D+00 -.000000000000000D+00 -.000000000000000D+00 0.000000000000000D+00
 0.457489426997335D+03 0.000000000000000D+00 0.000000000000000D+00 0.457489426997335D+03
 0.428771286601281D+03 0.000000000000000D+00 0.000000000000000D+00 -.428771286601281D+03
 0.376111495324818D+03 -.389721554992009D+02 0.348327110402668D+03 -.101459355535823D+03
 0.147326736659718D+03 0.574831583717849D+02 -.957923736259378D+02 0.960451716304096D+02
 0.144655779821470D+03 -.286944078516862D+02 -.118409246153648D+03 0.779818954573661D+02
 0.136502227383692D+03 0.350459436091475D+02 -.618329670432069D+02 -.725677115519523D+02
 0.816644744089179D+02 -.248625386300452D+02 -.722925235798756D+02 0.287181403960537D+02
0.563824379800D-05 0.000000000000D+00 0.000000000000D+00 0.750944183079D-08 0.854254441389D-11  7 -2 2 23 -13 13 23 21 2 0.75311845D-01 0.61647682D-01 0.15515092D+06 0.15515092D+06 0.15515092D+06 0.11063966D+01  1  2  1  2  7  2        2 0.108614375098D-03 0.100000000000D+01
  </mgrwgt>
  </event>
  <event>
  8     66 0.27870365E-05 0.12290117E+03 0.75467711E-02 0.10621135E+00
       -2 -1    0    0    0  501 0.00000000E+00 0.00000000E+00 0.34723603E+02 0.34725078E+02 0.32000000E+00 0.0000E+00 0.9000E+01
        2 -1    0    0  501    0 0.00000000E+00 0.00000000E+00 -.12914218E+04 0.12914219E+04 0.32000000E+00 0.0000E+00 0.9000E+01
       25  2    1    2    0    0 -.20713495E+02 0.26252072E+02 -.72357241E+03 0.78424603E+03 0.30061034E+03 0.0000E+00 0.0000E+00
       23  2    3    3    0    0 -.11334803E+02 0.39925425E+02 -.66955403E+03 0.67696995E+03 0.90902128E+02 0.0000E+00 0.0000E+00
       23  1    1    2    0    0 0.20713495E+02 -.26252072E+02 -.53312580E+03 0.54190091E+03 0.91188000E+02 0.0000E+00 0.9000E+01
      -13  1    4    4    0    0 -.25108477E+02 0.21972007E+02 -.63366432E+03 0.63454211E+03 0.10565837E+00 0.0000E+00 0.9000E+01
       13  1    4    4    0    0 0.13773675E+02 0.17953418E+02 -.35889706E+02 0.42427839E+02 0.10565837E+00 0.0000E+00 0.9000E+01
       23  1    3    3    0    0 -.93786922E+01 -.13673353E+02 -.54018387E+02 0.10727608E+03 0.91188000E+02 0.0000E+00 0.9000E+01
#aMCatNLO 1  0  0  1  2 0.12798016D+03 0.00000000D+00  -5  7  0 0.00000000D+00 0.00000000D+00 0.00000000D+00 0.00000000D+00 0.00000000D+00
  <mgrwgt>
 0.4438767938D-03    4    2    0
 0.211763600731097D+03 0.000000000000000D+00 0.000000000000000D+00 0.211763600731097D+03
 0.211763600731097D+03 0.000000000000000D+00 0.000000000000000D+00 -.211763600731097D+03
 0.114897018846063D+03 0.207135297676120D+02 -.262521159783358D+02 -.613828126346365D+02
 0.106654928491089D+03 -.251085366275285D+02 0.219720101733603D+02 -.101301855505242D+03
 0.263571668789338D+02 0.137737201129316D+02 0.179534193631154D+02 0.135151623485144D+02
 0.175618087246108D+03 -.937871325301507D+01 -.136733135581399D+02 0.149169505791365D+03
 0.000000000000000D+00 0.000000000000000D+00 0.000000000000000D+00 -.000000000000000D+00
 0.260571875989196D+03 0.000000000000000D+00 0.000000000000000D+00 0.260571875989196D+03
 0.325276447674653D+03 0.000000000000000D+00 0.000000000000000D+00 -.325276447674653D+03
 0.126199914513560D+03 0.120454199087765D+02 -.608130352104894D+02 -.613828126346365D+02
 0.106823738186999D+03 -.327836924642194D+02 -.862986789301922D+01 -.101301855505242D+03
 0.212595807754659D+02 0.120617647013166D+02 0.111276230045743D+02 0.135151623485144D+02
 0.188157963486924D+03 -.224574808998180D+02 -.658201183008733D+02 0.149169505791365D+03
 0.143407126700900D+03 0.311339887539443D+02 0.124135398399808D+03 -.647045716854564D+02
0.161914545124D-05 0.000000000000D+00 0.000000000000D+00 0.743005780691D-07 0.000000000000D+00  7 -2 2 23 -13 13 23 21 0 0.53422093D-02 0.19868040D+00 0.15104698D+05 0.15104698D+05 0.15104698D+05 0.11960389D+01  1  2  2  1  7  1       -2 0.536472674866D-03 0.100000000000D+01
-.575755410307D-07 0.000000000000D+00 -.621794486355D-08 0.743005780691D-07 0.000000000000D+00  7 -2 2 23 -13 13 23 21 2 0.53422093D-02 0.19868040D+00 0.15104698D+05 0.15104698D+05 0.15104698D+05 0.11960389D+01  1  2  3  1  7  1       -2 -.272891714827D-04 0.100000000000D+01
0.980847609720D-07 0.000000000000D+00 0.000000000000D+00 0.743005780691D-07 0.000000000000D+00  7 -2 2 23 -13 13 23 21 2 0.53422093D-02 0.19868040D+00 0.15104698D+05 0.15104698D+05 0.15104698D+05 0.11960389D+01  1  2 15  1  7  1       -2 0.464893913993D-04 0.100000000000D+01
-.235870883858D-06 0.000000000000D+00 0.000000000000D+00 0.743005780691D-07 0.000000000000D+00  7 -2 2 23 -13 13 23 21 2 0.53422093D-02 0.19868040D+00 0.15104698D+05 0.15104698D+05 0.15104698D+05 0.11960389D+01  1  2  4  1  7  1       -2 -.111796100951D-03 0.100000000000D+01
  </mgrwgt>
  </event>
  <event>
  8     66 0.27870365E-05 0.35762989E+03 0.75467711E-02 0.91745913E-01
       -2 -1    0    0    0  501 0.00000000E+00 0.00000000E+00 0.88069150E+03 0.88069156E+03 0.32000000E+00 0.0000E+00 0.9000E+01
        2 -1    0    0  501    0 0.00000000E+00 0.00000000E+00 -.74078285E+03 0.74078292E+03 0.32000000E+00 0.0000E+00 0.9000E+01
       25  2    1    2    0    0 -.51103791E+03 0.24231361E+03 -.46275172E+03 0.78997559E+03 0.30007773E+03 0.0000E+00 0.0000E+00
       23  2    3    3    0    0 -.13919078E+03 -.19706068E+02 -.18699285E+03 0.25026936E+03 0.88915848E+02 0.0000E+00 0.0000E+00
       23  1    1    2    0    0 0.51103791E+03 -.24231361E+03 0.60266037E+03 0.83149889E+03 0.91188000E+02 0.0000E+00 0.9000E+01
      -13  1    4    4    0    0 -.97032225E+02 0.64344287E+01 -.60827362E+02 0.11470237E+03 0.10565837E+00 0.0000E+00 0.9000E+01
       13  1    4    4    0    0 -.42158553E+02 -.26140497E+02 -.12616549E+03 0.13556699E+03 0.10565837E+00 0.0000E+00 0.9000E+01
       23  1    3    3    0    0 -.37184713E+03 0.26201968E+03 -.27575887E+03 0.53970622E+03 0.91188000E+02 0.0000E+00 0.9000E+01
#aMCatNLO 1  0  0  1  2 0.11633927D+03 0.00000000D+00  -5  7  0 0.00000000D+00 0.00000000D+00 0.00000000D+00 0.00000000D+00 0.00000000D+00
  <mgrwgt>
 0.5194455040D-03    9    2    0
 0.807713602312185D+03 0.000000000000000D+00 0.000000000000000D+00 0.807713602312185D+03
 0.807713602312185D+03 0.000000000000000D+00 0.000000000000000D+00 -.807713602312185D+03
 0.782416456903924D+03 0.511037912302414D+03 -.242313607044244D+03 0.532902081738182D+03
 0.120399840974174D+03 -.970323021316132D+02 0.643447469460408D+01 -.709890948318835D+02
 0.147001439820968D+03 -.421584754799339D+02 -.261405430652568D+02 -.138379038379731D+03
 0.565609466925304D+03 -.371847134690867D+03 0.262019675414897D+03 -.323533948526567D+03
 0.000000000000000D+00 0.000000000000000D+00 -.000000000000000D+00 0.000000000000000D+00
 0.107424109722676D+04 0.000000000000000D+00 0.000000000000000D+00 0.107424109722676D+04
 0.822601469986383D+03 0.000000000000000D+00 0.000000000000000D+00 -.822601469986383D+03
 0.762441617560018D+03 0.503953929104338D+03 -.187210516432569D+03 0.532902081738182D+03
 0.122062319955858D+03 -.981441180987813D+02 0.150827865651079D+02 -.709890948318835D+02
 0.145902085787874D+03 -.435015915165253D+02 -.156930529178504D+02 -.138379038379731D+03
 0.589205003578103D+03 -.377142563728113D+03 0.303210414848941D+03 -.323533948526567D+03
 0.277231540331292D+03 0.148343442390812D+02 -.115389632063630D+03 0.251639627240380D+03
0.231971200210D-03 0.000000000000D+00 0.000000000000D+00 0.119752912205D-05 0.000000000000D+00  7 -2 2 23 -13 13 23 21 0 0.13549101D+00 0.11396660D+00 0.35026835D+06 0.35026835D+06 0.35026835D+06 0.10796090D+01  1  2  2  1  7  1       -2 0.421393244780D-03 0.100000000000D+01
-.113719550970D-04 0.000000000000D+00 -.890830488226D-06 0.119752912205D-05 0.000000000000D+00  7 -2 2 23 -13 13 23 21 2 0.13549101D+00 0.11396660D+00 0.35026835D+06 0.35026835D+06 0.35026835D+06 0.10796090D+01  1  2  3  1  7  1       -2 -.240780695378D-04 0.100000000000D+01
0.146995751734D-04 0.000000000000D+00 0.000000000000D+00 0.119752912205D-05 0.000000000000D+00  7 -2 2 23 -13 13 23 21 2 0.13549101D+00 0.11396660D+00 0.35026835D+06 0.35026835D+06 0.35026835D+06 0.10796090D+01  1  2 15  1  7  1       -2 0.311237065378D-04 0.100000000000D+01
0.921524134536D-03 0.000000000000D+00 0.000000000000D+00 0.119752912205D-05 0.000000000000D+00  7 -2 2 23 -13 13 23 21 2 0.18115075D+00 0.11396660D+00 0.42223639D+06 0.42223639D+06 0.42223639D+06 0.10737379D+01  1  2 12  1  7  1       -2 0.843469681981D-03 0.100000000000D+01
-.918108940351D-03 0.000000000000D+00 0.000000000000D+00 0.119752912205D-05 0.000000000000D+00  7 -2 2 23 -13 13 23 21 2 0.13549101D+00 0.11396660D+00 0.35026835D+06 0.35026835D+06 0.35026835D+06 0.10796090D+01  1  2  4  1  7  1       -2 -.194393054848D-02 0.100000000000D+01
-.103414127110D-02 0.000000000000D+00 -.108776753590D-03 0.119752912205D-05 0.000000000000D+00  7 -2 2 23 -13 13 23 21 2 0.18153672D+00 0.11396660D+00 0.35026835D+06 0.35026835D+06 0.35026835D+06 0.10796090D+01  1  2  5  1  7  1       -2 -.960262344975D-03 0.100000000000D+01
0.102622865914D-02 0.000000000000D+00 0.104282228911D-03 0.119752912205D-05 0.000000000000D+00  7 -2 2 23 -13 13 23 21 2 0.13549101D+00 0.11396660D+00 0.35026835D+06 0.35026835D+06 0.35026835D+06 0.10796090D+01  1  2  6  1  7  1       -2 0.217285460640D-02 0.100000000000D+01
0.347955427812D-04 0.000000000000D+00 0.000000000000D+00 0.119752912205D-05 0.000000000000D+00  7 21 2 23 -13 13 23 2 2 0.18115075D+00 0.11396660D+00 0.42223639D+06 0.42223639D+06 0.42223639D+06 0.10737379D+01  1  2 12  3  7  1       -2 0.255631677866D-03 0.100000000000D+01
-.369095504968D-04 0.000000000000D+00 -.412904219713D-05 0.119752912205D-05 0.000000000000D+00  7 21 2 23 -13 13 23 2 2 0.18153672D+00 0.11396660D+00 0.35026835D+06 0.35026835D+06 0.35026835D+06 0.10796090D+01  1  2  5  3  7  1       -2 -.276756450552D-03 0.100000000000D+01
  </mgrwgt>
  </event>
  <event>
  8     66 0.27870365E-05 0.23024292E+03 0.75467711E-02 0.10018460E+00
       -2 -1    0    0    0  501 0.00000000E+00 0.00000000E+00 0.11203233E+03 0.11203279E+03 0.32000000E+00 0.0000E+00 0.9000E+01
        2 -1    0    0  501    0 0.00000000E+00 0.00000000E+00 -.63222119E+03 0.63222127E+03 0.32000000E+00 0.0000E+00 0.9000E+01
       25  2    1    2    0    0 0.13232244E+02 -.14635079E+03 -.22576773E+03 0.40279732E+03 0.29946781E+03 0.0000E+00 0.0000E+00
       23  2    3    3    0    0 0.75399389E+02 -.15730962E+03 -.66208256E+02 0.20847973E+03 0.92999362E+02 0.0000E+00 0.0000E+00
       23  1    1    2    0    0 -.13232244E+02 0.14635079E+03 -.29442113E+03 0.34145673E+03 0.91188000E+02 0.0000E+00 0.9000E+01
      -11  1    4    4    0    0 0.24980251E+02 -.26353706E+02 -.57343485E+02 0.67873456E+02 0.51099893E-03 0.0000E+00 0.9000E+01
       11  1    4    4    0    0 0.50419139E+02 -.13095591E+03 -.88647710E+01 0.14060628E+03 0.51099893E-03 0.0000E+00 0.9000E+01
       23  1    3    3    0    0 -.62167145E+02 0.10958826E+02 -.15955947E+03 0.19431759E+03 0.91188000E+02 0.0000E+00 0.9000E+01
#aMCatNLO 1  0  0  1  2 0.14356858D+03 0.00000000D+00  -5  7  0 0.00000000D+00 0.00000000D+00 0.00000000D+00 0.00000000D+00 0.00000000D+00
  <mgrwgt>
 0.4975238902D-03    3    2    0
 0.266137958207964D+03 0.000000000000000D+00 0.000000000000000D+00 0.266137958207964D+03
 0.266137958207964D+03 0.000000000000000D+00 0.000000000000000D+00 -.266137958207964D+03
 0.189706059226067D+03 -.132322442998255D+02 0.146350792661032D+03 -.779710892662227D+02
 0.388626501279430D+02 0.249802505465434D+02 -.263537057119122D+02 -.138482797794078D+02
 0.187939061706914D+03 0.504191388125241D+02 -.130955913042862D+03 0.125018199458276D+03
 0.115768145355004D+03 -.621671450592420D+02 0.109588260937415D+02 -.331988304126454D+02
 0.000000000000000D+00 -.000000000000000D+00 0.000000000000000D+00 -.000000000000000D+00
 0.298688548415787D+03 0.000000000000000D+00 0.000000000000000D+00 0.298688548415787D+03
 0.499307730901965D+03 0.000000000000000D+00 0.000000000000000D+00 -.499307730901965D+03
 0.188233099925236D+03 0.364853874652703D+02 0.140377257073971D+03 -.779710892662227D+02
 0.477891641102131D+02 0.363792360386645D+02 -.277232851362761D+02 -.138482797794078D+02
 0.212371389954390D+03 0.103079698443627D+03 -.137283039171419D+03 0.125018199458276D+03
 0.102904440640510D+03 -.334009194792836D+02 0.750258600130945D+01 -.331988304126454D+02
 0.246698184687403D+03 -.142543402468278D+03 0.171264812324140D+02 -.200619182486178D+03
0.338684968120D-05 0.000000000000D+00 0.000000000000D+00 0.510819912863D-07 0.000000000000D+00  7 -2 2 23 -11 11 23 21 0 0.17235784D-01 0.97264840D-01 0.53011803D+05 0.53011803D+05 0.53011803D+05 0.11450677D+01  1  2  2  1  7  1       -2 0.491285370760D-03 0.100000000000D+01
-.183356327319D-06 0.000000000000D+00 -.130063945538D-07 0.510819912863D-07 0.000000000000D+00  7 -2 2 23 -11 11 23 21 2 0.17235784D-01 0.97264840D-01 0.53011803D+05 0.53011803D+05 0.53011803D+05 0.11450677D+01  1  2  3  1  7  1       -2 -.348735467688D-04 0.100000000000D+01
0.216156891543D-06 0.000000000000D+00 0.000000000000D+00 0.510819912863D-07 0.000000000000D+00  7 -2 2 23 -11 11 23 21 2 0.17235784D-01 0.97264840D-01 0.53011803D+05 0.53011803D+05 0.53011803D+05 0.11450677D+01  1  2 15  1  7  1       -2 0.411120661983D-04 0.100000000000D+01
  </mgrwgt>
  </event>
  <event>
  8     66 0.27870365E-05 0.19600728E+03 0.75467711E-02 0.83926064E-01
       -2 -1    0    0    0  501 0.00000000E+00 0.00000000E+00 0.26681934E+03 0.26681954E+03 0.32000000E+00 0.0000E+00 0.9000E+01
        2 -1    0    0  501    0 0.00000000E+00 0.00000000E+00 -.19645274E+03 0.19645300E+03 0.32000000E+00 0.0000E+00 0.9000E+01
       25  2    1    2    0    0 0.91791797E+02 -.54758695E+02 0.44060379E+02 0.32033368E+03 0.29874420E+03 0.0000E+00 0.0000E+00
       23  2    3    3    0    0 -.61030707E+01 -.72339751E+02 0.11849382E+03 0.16622953E+03 0.91220526E+02 0.0000E+00 0.0000E+00
       23  1    1    2    0    0 -.91791797E+02 0.54758695E+02 0.26306228E+02 0.14293886E+03 0.91188000E+02 0.0000E+00 0.9000E+01
      -13  1    4    4    0    0 0.25966563E+02 0.10301464E+02 0.28054953E+02 0.39591339E+02 0.10565837E+00 0.0000E+00 0.9000E+01
       13  1    4    4    0    0 -.32069634E+02 -.82641215E+02 0.90438868E+02 0.12663819E+03 0.10565837E+00 0.0000E+00 0.9000E+01
       23  1    3    3    0    0 0.97894868E+02 0.17581056E+02 -.74433442E+02 0.15410414E+03 0.91188000E+02 0.0000E+00 0.9000E+01
#aMCatNLO 1  0  0  1  2 0.14294516D+04 0.00000000D+00  -5  7  0 0.00000000D+00 0.00000000D+00 0.00000000D+00 0.00000000D+00 0.00000000D+00
  <mgrwgt>
 0.5939622120D-03    3    2    0
 0.228948674609578D+03 0.000000000000000D+00 0.000000000000000D+00 0.228948674609578D+03
 0.228948674609578D+03 0.000000000000000D+00 0.000000000000000D+00 -.228948674609578D+03
 0.140574238475509D+03 -.917918048486236D+02 0.547586998193873D+02 0.464914354388932D+01
 0.357446921039409D+02 0.259666418968379D+02 0.103015869167820D+02 0.223000858564022D+02
 0.114226837327037D+03 -.320697067821516D+02 -.826413376851858D+02 0.720396667000007D+02
 0.167351581312669D+03 0.978948697339374D+02 0.175810509490166D+02 -.989888961002922D+02
 0.000000000000000D+00 0.000000000000000D+00 -.000000000000000D+00 -.000000000000000D+00
 0.114321785470126D+04 0.000000000000000D+00 0.000000000000000D+00 0.114321785470126D+04
 0.205126404201404D+04 0.000000000000000D+00 0.000000000000000D+00 -.205126404201404D+04
 0.768768926317562D+03 -.486910333254996D+03 0.587866586532415D+03 0.464914354388932D+01
 0.947407162105638D+02 -.307305484575473D+02 0.867994404958121D+02 0.223000858564022D+02
 0.226785294259456D+03 -.180242824278269D+03 0.117279070640475D+03 0.720396667000007D+02
 0.410705382298766D+03 -.153276553376920D+03 0.356470414394958D+03 -.989888961002922D+02
 0.169348157762895D+04 0.851160259367732D+03 -.114841551206366D+04 -.908046187312772D+03
0.497496638474D-05 0.000000000000D+00 0.000000000000D+00 0.287364007123D-07 0.000000000000D+00  7 -2 2 23 -13 13 23 21 0 0.41049165D-01 0.30223533D-01 0.38418854D+05 0.38418854D+05 0.38418854D+05 0.11574983D+01  1  2  2  1  7  1       -2 0.586466836980D-03 0.100000000000D+01
-.268277419567D-06 0.000000000000D+00 -.191051808561D-07 0.287364007123D-07 0.000000000000D+00  7 -2 2 23 -13 13 23 21 2 0.41049165D-01 0.30223533D-01 0.38418854D+05 0.38418854D+05 0.38418854D+05 0.11574983D+01  1  2  3  1  7  1       -2 -.423719219195D-04 0.100000000000D+01
0.315734315034D-06 0.000000000000D+00 0.000000000000D+00 0.287364007123D-07 0.000000000000D+00  7 -2 2 23 -13 13 23 21 2 0.41049165D-01 0.30223533D-01 0.38418854D+05 0.38418854D+05 0.38418854D+05 0.11574983D+01  1  2 15  1  7  1       -2 0.498672969403D-04 0.100000000000D+01
  </mgrwgt>
  </event>
  <event>
  9     66 0.27870365E-05 0.30555642E+03 0.75467711E-02 0.10030887E+00
       -2 -1    0    0    0  501 0.00000000E+00 0.00000000E+00 0.94292885E+03 0.94292891E+03 0.32000000E+00 0.0000E+00 0.9000E+01
        2 -1    0    0  502    0 0.00000000E+00 0.00000000E+00 -.14563907E+03 0.14563942E+03 0.32000000E+00 0.0000E+00 0.9000E+01
       25  2    1    2    0    0 0.16829211E+03 -.15783926E+03 0.65973494E+03 0.76102179E+03 0.30111211E+03 0.0000E+00 0.0000E+00
       23  2    3    3    0    0 0.25558297E+02 -.17421662E+03 0.27292115E+03 0.33843296E+03 0.95111801E+02 0.0000E+00 0.0000E+00
       23  1    1    2    0    0 -.18038113E+03 0.16107773E+03 0.82828366E+02 0.27140224E+03 0.91188000E+02 0.0000E+00 0.9000E+01
      -13  1    4    4    0    0 0.25409262E+02 -.34998230E+02 0.13778524E+03 0.14441360E+03 0.10565837E+00 0.0000E+00 0.9000E+01
       13  1    4    4    0    0 0.14903418E+00 -.13921839E+03 0.13513591E+03 0.19401935E+03 0.10565837E+00 0.0000E+00 0.9000E+01
       23  1    3    3    0    0 0.14273381E+03 0.16377364E+02 0.38681379E+03 0.42258883E+03 0.91188000E+02 0.0000E+00 0.9000E+01
       21  1    1    2  502  501 0.12089016E+02 -.32384735E+01 0.54726476E+02 0.56144294E+02 0.75000000E+00 0.0000E+00 0.9000E+01
#aMCatNLO 2  0  0  2  2 0.12515271D+02 0.00000000D+00  -5  7  0 0.00000000D+00 0.00000000D+00 0.00000000D+00 0.00000000D+00 0.00000000D+00
  <mgrwgt>
 0.1055395512D-03    2    2    0
 0.358588371688394D+03 0.000000000000000D+00 0.000000000000000D+00 0.358588371688394D+03
 0.358588371688394D+03 0.000000000000000D+00 0.000000000000000D+00 -.358588371688394D+03
 0.301173478682066D+03 -.175273450315009D+03 0.159709460357644D+03 -.161747701079178D+03
 0.658167755840694D+02 0.265136154456829D+02 -.352939352269332D+02 0.488181757184683D+02
 0.140015685869039D+03 0.250348565413514D+01 -.139849252795005D+03 -.634912132784843D+01
 0.210170803241615D+03 0.146256349215191D+03 0.154337276642941D+02 0.119278646688558D+03
 0.000000000000000D+00 0.000000000000000D+00 -.000000000000000D+00 0.000000000000000D+00
 0.381038698972991D+03 0.000000000000000D+00 0.000000000000000D+00 0.381038698972991D+03
 0.360391426171262D+03 0.000000000000000D+00 0.000000000000000D+00 -.360391426171262D+03
 0.304894993927148D+03 -.180381126933476D+03 0.161077733469421D+03 -.161747701079178D+03
 0.652204995217014D+02 0.254092913363560D+02 -.349981026795052D+02 0.488181757184683D+02
 0.139363302508615D+03 0.149003295922485D+00 -.139218520831425D+03 -.634912132784843D+01
 0.207807139538392D+03 0.142733816264119D+03 0.163773635837797D+02 0.119278646688558D+03
 0.241441896483973D+02 0.120890160370781D+02 -.323847354227062D+01 0.206472728017299D+02
-.290441439181D-05 0.000000000000D+00 0.000000000000D+00 0.146858459918D-07 0.000000000000D+00  7 -2 2 23 -13 13 23 21 2 0.13651670D+00 0.22293584D-01 0.93364726D+05 0.93364726D+05 0.93364726D+05 0.11241771D+01  1  2  8  2  7  2        2 -.434644651412D-04 0.100000000000D+01
0.118209968020D-04 0.000000000000D+00 0.000000000000D+00 0.146858459918D-07 0.631876992597D-09  7 -2 2 23 -13 13 23 21 2 0.14506367D+00 0.22405681D-01 0.97220270D+05 0.97220270D+05 0.97220270D+05 0.11227281D+01  1  2  1  2  7  2        2 0.149004016363D-03 0.100000000000D+01
  </mgrwgt>
  </event>
  <event>
  8     66 0.27870365E-05 0.96454239E+02 0.75467711E-02 0.10643366E+00
       -2 -1    0    0    0  501 0.00000000E+00 0.00000000E+00 0.57856857E+02 0.57857742E+02 0.32000000E+00 0.0000E+00 0.9000E+01
        2 -1    0    0  501    0 0.00000000E+00 0.00000000E+00 -.70672971E+03 0.70672979E+03 0.32000000E+00 0.0000E+00 0.9000E+01
       25  2    1    2    0    0 0.32265927E+02 -.31426087E+02 -.48327560E+03 0.57025176E+03 0.29933772E+03 0.0000E+00 0.0000E+00
       23  2    3    3    0    0 -.70162107E+02 0.76330231E+01 -.77330757E+02 0.13999186E+03 0.92933790E+02 0.0000E+00 0.0000E+00
       23  1    1    2    0    0 -.32265927E+02 0.31426087E+02 -.16559726E+03 0.19433577E+03 0.91188000E+02 0.0000E+00 0.9000E+01
      -11  1    4    4    0    0 -.16438583E+02 -.41034460E+02 -.29495348E+02 0.53141598E+02 0.51099893E-03 0.0000E+00 0.9000E+01
       11  1    4    4    0    0 -.53723524E+02 0.48667483E+02 -.47835409E+02 0.86850258E+02 0.51099893E-03 0.0000E+00 0.9000E+01
       23  1    3    3    0    0 0.10242803E+03 -.39059110E+02 -.40594484E+03 0.43025990E+03 0.91188000E+02 0.0000E+00 0.9000E+01
#aMCatNLO 1  0  0  2  1 0.34264805D+02 0.00000000D+00  -5  7  0 0.00000000D+00 0.00000000D+00 0.00000000D+00 0.00000000D+00 0.00000000D+00
  <mgrwgt>
 0.7223576253D-03    6    2    0
 0.202211587437114D+03 0.000000000000000D+00 0.000000000000000D+00 0.202211587437114D+03
 0.202211587437114D+03 0.000000000000000D+00 0.000000000000000D+00 -.202211587437114D+03
 0.101713117349276D+03 -.322659278906801D+02 0.314260884077857D+02 -.127191259411035D+01
 0.531440176942757D+02 -.164385827007352D+02 -.410344596908363D+02 0.294997073436621D+02
 0.874468315043959D+02 -.537235238633852D+02 0.486674821879929D+02 0.489101983367465D+02
 0.162119208326281D+03 0.102428034454801D+03 -.390591109049424D+02 -.771379930862982D+02
 0.000000000000000D+00 0.000000000000000D+00 0.000000000000000D+00 0.000000000000000D+00
 0.221044468523486D+03 0.000000000000000D+00 0.000000000000000D+00 0.221044468523486D+03
 0.219145065075981D+03 0.000000000000000D+00 0.000000000000000D+00 -.219145065075981D+03
 0.102123632289024D+03 -.383541770625208D+02 0.253243809028661D+02 -.127191259411035D+01
 0.567792378802771D+02 -.197217991516712D+02 -.443249338310225D+02 0.294997073436621D+02
 0.880562654543442D+02 -.589654961113264D+02 0.434139223380150D+02 0.489101983367465D+02
 0.158912988607211D+03 0.928393611140868D+02 -.486689804148605D+02 -.771379930862982D+02
 0.343174093686115D+02 0.242021112114317D+02 0.242556110050018D+02 0.189940344750483D+01
0.174065825515D-05 0.000000000000D+00 0.000000000000D+00 0.131159395787D-07 0.000000000000D+00  7 -2 2 23 -11 11 23 21 0 0.89011286D-02 0.10872772D+00 0.32578634D+05 0.32578634D+05 0.32578634D+05 0.11640278D+01  1  2  2  2  7  2        2 0.616598974676D-03 0.100000000000D+01
-.951856789254D-07 0.000000000000D+00 -.668458602563D-08 0.131159395787D-07 0.000000000000D+00  7 -2 2 23 -11 11 23 21 2 0.89011286D-02 0.10872772D+00 0.32578634D+05 0.32578634D+05 0.32578634D+05 0.11640278D+01  1  2  3  2  7  2        2 -.456864674542D-04 0.100000000000D+01
0.111079025890D-06 0.000000000000D+00 0.000000000000D+00 0.131159395787D-07 0.000000000000D+00  7 -2 2 23 -11 11 23 21 2 0.89011286D-02 0.10872772D+00 0.32578634D+05 0.32578634D+05 0.32578634D+05 0.11640278D+01  1  2 15  2  7  2        2 0.533148301136D-04 0.100000000000D+01
0.185163484932D-05 0.000000000000D+00 0.000000000000D+00 0.131159395787D-07 0.000000000000D+00  7 -2 2 23 -11 11 23 21 2 0.89011286D-02 0.12247023D+00 0.39412977D+05 0.39412977D+05 0.39412977D+05 0.11564968D+01  1  2 12  2  7  2        2 0.762295691076D-03 0.100000000000D+01
-.141616235446D-05 0.000000000000D+00 0.000000000000D+00 0.131159395787D-07 0.000000000000D+00  7 -2 2 23 -11 11 23 21 2 0.89011286D-02 0.10872772D+00 0.32578634D+05 0.32578634D+05 0.32578634D+05 0.11640278D+01  1  2  4  2  7  2        2 -.679718378302D-03 0.100000000000D+01
0.348912202520D-07 0.000000000000D+00 0.000000000000D+00 0.131159395787D-07 0.000000000000D+00  7 -2 21 23 -11 11 23 -2 2 0.89011286D-02 0.12247023D+00 0.39412977D+05 0.39412977D+05 0.39412977D+05 0.11564968D+01  1  2 12  4  7  2        2 0.155529751877D-04 0.100000000000D+01
  </mgrwgt>
  </event>
  <event>
  8     66 0.27870365E-05 0.25470429E+03 0.75467711E-02 0.96825753E-01
       -2 -1    0    0    0  501 0.00000000E+00 0.00000000E+00 0.41065446E+03 0.41065459E+03 0.32000000E+00 0.0000E+00 0.9000E+01
        2 -1    0    0  501    0 0.00000000E+00 0.00000000E+00 -.17936051E+03 0.17936079E+03 0.32000000E+00 0.0000E+00 0.9000E+01
       25  2    1    2    0    0 -.80599598E+02 -.13184080E+03 0.23429935E+03 0.41056461E+03 0.29964783E+03 0.0000E+00 0.0000E+00
       23  2    3    3    0    0 0.28855094E+02 -.15416698E+03 0.16073694E+03 0.24868358E+03 0.10680397E+03 0.0000E+00 0.0000E+00
       23  1    1    2    0    0 0.80599598E+02 0.13184080E+03 -.30053947E+01 0.17945076E+03 0.91188000E+02 0.0000E+00 0.9000E+01
      -13  1    4    4    0    0 0.60662073E+02 -.55883630E+02 0.46573049E+02 0.94720258E+02 0.10565837E+00 0.0000E+00 0.9000E+01
       13  1    4    4    0    0 -.31806980E+02 -.98283351E+02 0.11416389E+03 0.15396333E+03 0.10565837E+00 0.0000E+00 0.9000E+01
       23  1    3    3    0    0 -.10945469E+03 0.22326176E+02 0.73562415E+02 0.16188103E+03 0.91188000E+02 0.0000E+00 0.9000E+01
#aMCatNLO 1  0  0  2  2 0.26006728D+03 0.00000000D+00  -5  7  0 0.00000000D+00 0.00000000D+00 0.00000000D+00 0.00000000D+00 0.00000000D+00
  <mgrwgt>
 0.2842148963D-03    3    2    0
 0.271395123223495D+03 0.000000000000000D+00 0.000000000000000D+00 0.271395123223495D+03
 0.271395123223495D+03 0.000000000000000D+00 0.000000000000000D+00 -.271395123223495D+03
 0.196344427900110D+03 0.805995983253663D+02 0.131840805207062D+03 -.797344960200081D+02
 0.831155718377508D+02 0.606620405548792D+02 -.558836952886725D+02 0.102629293341285D+02
 0.118711152977176D+03 -.318067734340036D+02 -.982833736103436D+02 0.584897040226584D+02
 0.144619093731953D+03 -.109454865446242D+03 0.223262636919539D+02 0.109818626632212D+02
 0.000000000000000D+00 0.000000000000000D+00 0.000000000000000D+00 0.000000000000000D+00
 0.447816017181969D+03 0.000000000000000D+00 0.000000000000000D+00 0.447816017181969D+03
 0.416060149736635D+03 0.000000000000000D+00 0.000000000000000D+00 -.416060149736635D+03
 0.146513928419311D+03 0.233123024206520D+02 0.790571095926380D+02 -.797344960200081D+02
 0.889316223417393D+02 0.319151299404156D+02 -.823706878367713D+02 0.102629293341285D+02
 0.174750292088230D+03 -.808404700910121D+02 -.143462320850207D+03 0.584897040226584D+02
 0.191681421573931D+03 -.165646429041347D+03 -.294478398341740D+02 0.109818626632212D+02
 0.261998902495392D+03 0.191259466771292D+03 0.176223738928514D+03 0.317558674453350D+02
0.498629617237D-05 0.000000000000D+00 0.000000000000D+00 0.124531262682D-08 0.000000000000D+00  7 -2 2 23 -13 13 23 21 0 0.63177641D-01 0.27593955D-01 0.64874278D+05 0.64874278D+05 0.64874278D+05 0.11374779D+01  1  2  2  2  7  2        2 0.280643179011D-03 0.100000000000D+01
-.275659519876D-06 0.000000000000D+00 -.191486902238D-07 0.124531262682D-08 0.000000000000D+00  7 -2 2 23 -13 13 23 21 2 0.63177641D-01 0.27593955D-01 0.64874278D+05 0.64874278D+05 0.64874278D+05 0.11374779D+01  1  2  3  2  7  2        2 -.200740646237D-04 0.100000000000D+01
0.324706780460D-06 0.000000000000D+00 0.000000000000D+00 0.124531262682D-08 0.000000000000D+00  7 -2 2 23 -13 13 23 21 2 0.63177641D-01 0.27593955D-01 0.64874278D+05 0.64874278D+05 0.64874278D+05 0.11374779D+01  1  2 15  2  7  2        2 0.236457819328D-04 0.100000000000D+01
  </mgrwgt>
  </event>
  <event>
  8     66 0.27870365E-05 0.23687347E+03 0.75467711E-02 0.93012665E-01
       -2 -1    0    0    0  501 0.00000000E+00 0.00000000E+00 0.28363290E+03 0.28363308E+03 0.32000000E+00 0.0000E+00 0.9000E+01
        2 -1    0    0  501    0 0.00000000E+00 0.00000000E+00 -.13542498E+04 0.13542498E+04 0.32000000E+00 0.0000E+00 0.9000E+01
       25  2    1    2    0    0 -.14204128E+03 -.52817503E+03 -.30986838E+03 0.69650193E+03 0.29991988E+03 0.0000E+00 0.0000E+00
       23  2    3    3    0    0 0.32416282E+02 -.23218004E+03 -.20213017E+03 0.32505711E+03 0.99232732E+02 0.0000E+00 0.0000E+00
       23  1    1    2    0    0 0.14204128E+03 0.52817503E+03 -.76074851E+03 0.94138097E+03 0.91188000E+02 0.0000E+00 0.9000E+01
      -11  1    4    4    0    0 0.22950715E+02 -.11930546E+03 -.16689469E+03 0.20643247E+03 0.51099893E-03 0.0000E+00 0.9000E+01
       11  1    4    4    0    0 0.94655673E+01 -.11287457E+03 -.35235489E+02 0.11862464E+03 0.51099893E-03 0.0000E+00 0.9000E+01
       23  1    3    3    0    0 -.17445757E+03 -.29599499E+03 -.10773820E+03 0.37144481E+03 0.91188000E+02 0.0000E+00 0.9000E+01
#aMCatNLO 1  0  0  1  2 0.10742486D+02 0.00000000D+00  -5  7  0 0.00000000D+00 0.00000000D+00 0.00000000D+00 0.00000000D+00 0.00000000D+00
  <mgrwgt>
 0.6046014872D-03    9    2    0
 0.619766056893211D+03 0.000000000000000D+00 0.000000000000000D+00 0.619766056893211D+03
 0.619766056893211D+03 0.000000000000000D+00 0.000000000000000D+00 -.619766056893211D+03
 0.586835613148305D+03 0.142041284349945D+03 0.528175025966690D+03 -.192135892015134D+03
 0.128622680130271D+03 0.229507150912762D+02 -.119305461723654D+03 -.422287262843522D+02
 0.126313439480307D+03 0.946556728441370D+01 -.112874573390400D+03 0.559000779182340D+02
 0.397760381027539D+03 -.174457566725634D+03 -.295994990852636D+03 0.178464540381252D+03
 0.000000000000000D+00 0.000000000000000D+00 0.000000000000000D+00 0.000000000000000D+00
 0.643123418342209D+03 0.000000000000000D+00 0.000000000000000D+00 0.643123418342209D+03
 0.621025730898193D+03 0.000000000000000D+00 0.000000000000000D+00 -.621025730898193D+03
 0.582264489418887D+03 0.139557799402310D+03 0.523759585993202D+03 -.192135892015134D+03
 0.129431200661543D+03 0.224025388254306D+02 -.120280075803372D+03 -.422287262843522D+02
 0.127130589491615D+03 0.892718359114617D+01 -.113831777049956D+03 0.559000779182340D+02
 0.400752383565076D+03 -.176153823895577D+03 -.299010802049966D+03 0.178464540381252D+03
 0.245704861032802D+02 0.526630207668968D+01 0.936306891009207D+01 0.220976874440156D+02
0.205698180133D-04 0.000000000000D+00 0.000000000000D+00 0.525797893548D-07 0.000000000000D+00  7 -2 2 23 -11 11 23 21 0 0.43635847D-01 0.20834614D+00 0.32760230D+06 0.32760230D+06 0.32760230D+06 0.10817350D+01  1  2  2  1  7  1       -2 0.199273119584D-03 0.100000000000D+01
-.113397186426D-05 0.000000000000D+00 -.789935173284D-07 0.525797893548D-07 0.000000000000D+00  7 -2 2 23 -11 11 23 21 2 0.43635847D-01 0.20834614D+00 0.32760230D+06 0.32760230D+06 0.32760230D+06 0.10817350D+01  1  2  3  1  7  1       -2 -.128547118662D-04 0.100000000000D+01
0.129614925939D-05 0.000000000000D+00 0.000000000000D+00 0.525797893548D-07 0.000000000000D+00  7 -2 2 23 -11 11 23 21 2 0.43635847D-01 0.20834614D+00 0.32760230D+06 0.32760230D+06 0.32760230D+06 0.10817350D+01  1  2 15  1  7  1       -2 0.146931557917D-04 0.100000000000D+01
0.189519748406D-03 0.000000000000D+00 0.000000000000D+00 0.525797893548D-07 0.000000000000D+00  7 -2 2 23 -11 11 23 21 2 0.45323788D-01 0.20834614D+00 0.33393629D+06 0.33393629D+06 0.33393629D+06 0.10811252D+01  1  2 12  1  7  1       -2 0.199295929761D-02 0.100000000000D+01
-.192306708166D-03 0.000000000000D+00 0.000000000000D+00 0.525797893548D-07 0.000000000000D+00  7 -2 2 23 -11 11 23 21 2 0.43635847D-01 0.20834614D+00 0.32760230D+06 0.32760230D+06 0.32760230D+06 0.10817350D+01  1  2  4  1  7  1       -2 -.217998999916D-02 0.100000000000D+01
-.105828358246D-02 0.000000000000D+00 -.692266913593D-04 0.525797893548D-07 0.000000000000D+00  7 -2 2 23 -11 11 23 21 2 0.45336342D-01 0.20834614D+00 0.32760230D+06 0.32760230D+06 0.32760230D+06 0.10817350D+01  1  2  5  1  7  1       -2 -.111432738272D-01 0.100000000000D+01
0.106020581855D-02 0.000000000000D+00 0.691761336777D-04 0.525797893548D-07 0.000000000000D+00  7 -2 2 23 -11 11 23 21 2 0.43635847D-01 0.20834614D+00 0.32760230D+06 0.32760230D+06 0.32760230D+06 0.10817350D+01  1  2  6  1  7  1       -2 0.120184995289D-01 0.100000000000D+01
0.459169420629D-05 0.000000000000D+00 0.000000000000D+00 0.525797893548D-07 0.000000000000D+00  7 21 2 23 -11 11 23 2 2 0.45323788D-01 0.20834614D+00 0.33393629D+06 0.33393629D+06 0.33393629D+06 0.10811252D+01  1  2 12  3  7  1       -2 0.511867529034D-03 0.100000000000D+01
-.713305023228D-05 0.000000000000D+00 -.468967168164D-06 0.525797893548D-07 0.000000000000D+00  7 21 2 23 -11 11 23 2 2 0.45336342D-01 0.20834614D+00 0.32760230D+06 0.32760230D+06 0.32760230D+06 0.10817350D+01  1  2  5  3  7  1       -2 -.796572605466D-03 0.100000000000D+01
  </mgrwgt>
  </event>
  <event>
  8     66 0.27870365E-05 0.35597064E+02 0.75467711E-02 0.10651891E+00
       -2 -1    0    0    0  501 0.00000000E+00 0.00000000E+00 0.17499579E+03 0.17499608E+03 0.32000000E+00 0.0000E+00 0.9000E+01
        2 -1    0    0  501    0 0.00000000E+00 0.00000000E+00 -.93918421E+03 0.93918427E+03 0.32000000E+00 0.0000E+00 0.9000E+01
       25  2    1    2    0    0 -.34522451E+01 -.21710963E+02 0.41054458E+02 0.30349259E+03 0.29989832E+03 0.0000E+00 0.0000E+00
       23  2    3    3    0    0 0.10579443E+03 0.13243331E+00 -.31399889E+02 0.14231923E+03 0.89868414E+02 0.0000E+00 0.0000E+00
       23  1    1    2    0    0 0.34522451E+01 0.21710963E+02 -.80524288E+03 0.81068775E+03 0.91188000E+02 0.0000E+00 0.9000E+01
      -11  1    4    4    0    0 -.89133508E+01 -.20256630E+02 -.76622763E+01 0.23419850E+02 0.51099893E-03 0.0000E+00 0.9000E+01
       11  1    4    4    0    0 0.11470778E+03 0.20389064E+02 -.23737613E+02 0.11889938E+03 0.51099893E-03 0.0000E+00 0.9000E+01
       23  1    3    3    0    0 -.10924667E+03 -.21843397E+02 0.72454347E+02 0.16117336E+03 0.91188000E+02 0.0000E+00 0.9000E+01
#aMCatNLO 1  0  0  1  2 0.18176312D+02 0.00000000D+00  -5  7  0 0.00000000D+00 0.00000000D+00 0.00000000D+00 0.00000000D+00 0.00000000D+00
  <mgrwgt>
 0.7375131898D-03    6    2    0
 0.405405322638973D+03 0.000000000000000D+00 0.000000000000000D+00 0.405405322638973D+03
 0.405405322638973D+03 0.000000000000000D+00 0.000000000000000D+00 -.405405322638973D+03
 0.355070665657271D+03 0.345224508269471D+01 0.217109632702104D+02 -.342456774416957D+03
 0.249608389457175D+02 -.891335084677654D+01 -.202566304941032D+02 0.115440278318135D+02
 0.141013620287370D+03 0.114707778850215D+03 0.203890638001582D+02 0.794433927721734D+02
 0.289765520387587D+03 -.109246673086133D+03 -.218433965762654D+02 0.251469353812970D+03
 0.000000000000000D+00 0.000000000000000D+00 0.000000000000000D+00 -.000000000000000D+00
 0.413495685248077D+03 0.000000000000000D+00 0.000000000000000D+00 0.413495685248077D+03
 0.415846349893564D+03 0.000000000000000D+00 0.000000000000000D+00 -.415846349893564D+03
 0.354670987940888D+03 0.122255513255868D+01 0.140755588822240D+02 -.342456774416957D+03
 0.254590172553860D+02 -.907174742120467D+01 -.207990475684398D+02 0.115440278318135D+02
 0.139889490752264D+03 0.113825307262882D+03 0.173671066756784D+02 0.794433927721734D+02
 0.290994857071020D+03 -.111071161715893D+03 -.280912197270351D+02 0.251469353812970D+03
 0.183276821220839D+02 0.509504674165668D+01 0.174476017375725D+02 -.235066464548724D+01
0.930096793674D-05 0.000000000000D+00 0.000000000000D+00 0.814950776887D-06 0.000000000000D+00  7 -2 2 23 -11 11 23 21 0 0.26922456D-01 0.14448991D+00 0.35420504D+05 0.35420504D+05 0.35420504D+05 0.11607018D+01  1  2  2  1  7  1       -2 0.397672215442D-03 0.100000000000D+01
-.146772750510D-06 0.000000000000D+00 -.357181658782D-07 0.814950776887D-06 0.000000000000D+00  7 -2 2 23 -11 11 23 21 2 0.26922456D-01 0.14448991D+00 0.35420504D+05 0.35420504D+05 0.35420504D+05 0.11607018D+01  1  2  3  1  7  1       -2 -.845442115971D-05 0.100000000000D+01
0.574747621876D-06 0.000000000000D+00 0.000000000000D+00 0.814950776887D-06 0.000000000000D+00  7 -2 2 23 -11 11 23 21 2 0.26922456D-01 0.14448991D+00 0.35420504D+05 0.35420504D+05 0.35420504D+05 0.11607018D+01  1  2 15  1  7  1       -2 0.331066798095D-04 0.100000000000D+01
0.126559195137D-04 0.000000000000D+00 0.000000000000D+00 0.814950776887D-06 0.000000000000D+00  7 -2 2 23 -11 11 23 21 2 0.27798630D-01 0.14448991D+00 0.38949850D+05 0.38949850D+05 0.38949850D+05 0.11569598D+01  1  2 12  1  7  1       -2 0.684823082446D-03 0.100000000000D+01
-.860048686643D-05 0.000000000000D+00 0.000000000000D+00 0.814950776887D-06 0.000000000000D+00  7 -2 2 23 -11 11 23 21 2 0.26922456D-01 0.14448991D+00 0.35420504D+05 0.35420504D+05 0.35420504D+05 0.11607018D+01  1  2  4  1  7  1       -2 -.495406251466D-03 0.100000000000D+01
0.188148856747D-06 0.000000000000D+00 0.000000000000D+00 0.814950776887D-06 0.000000000000D+00  7 21 2 23 -11 11 23 2 2 0.27798630D-01 0.14448991D+00 0.38949850D+05 0.38949850D+05 0.38949850D+05 0.11569598D+01  1  2 12  3  7  1       -2 0.125771884710D-03 0.100000000000D+01
  </mgrwgt>
  </event>
  <event>
  8     66 0.27870365E-05 0.89602962E+02 0.75467711E-02 0.99707535E-01
       -2 -1    0    0    0  501 0.00000000E+00 0.00000000E+00 0.57357676E+02 0.57358568E+02 0.32000000E+00 0.0000E+00 0.9000E+01
        2 -1    0    0  501    0 0.00000000E+00 0.00000000E+00 -.19600850E+04 0.19600850E+04 0.32000000E+00 0.0000E+00 0.9000E+01
       25  2    1    2    0    0 -.79479949E+02 0.21794966E+03 -.14680561E+04 0.15163713E+04 0.30062285E+03 0.0000E+00 0.0000E+00
       23  2    3    3    0    0 0.23623470E+02 0.22001451E+03 -.10224856E+04 0.10500207E+04 0.90012101E+02 0.0000E+00 0.0000E+00
       23  1    1    2    0    0 0.79479949E+02 -.21794966E+03 -.43467121E+03 0.50107228E+03 0.91188000E+02 0.0000E+00 0.9000E+01
      -11  1    4    4    0    0 0.25091726E+02 0.14528637E+03 -.83967543E+03 0.85252129E+03 0.51099893E-03 0.0000E+00 0.9000E+01
       11  1    4    4    0    0 -.14682558E+01 0.74728141E+02 -.18281014E+03 0.19749936E+03 0.51099893E-03 0.0000E+00 0.9000E+01
       23  1    3    3    0    0 -.10310342E+03 -.20648513E+01 -.44557052E+03 0.46635064E+03 0.91188000E+02 0.0000E+00 0.9000E+01
#aMCatNLO 1  0  0  2  1 0.43918887D+02 0.00000000D+00  -5  7  0 0.00000000D+00 0.00000000D+00 0.00000000D+00 0.00000000D+00 0.00000000D+00
  <mgrwgt>
 0.6254910643D-03    9    2    0
 0.335301126764351D+03 0.000000000000000D+00 0.000000000000000D+00 0.335301126764351D+03
 0.335301126764351D+03 0.000000000000000D+00 0.000000000000000D+00 -.335301126764351D+03
 0.274118179875132D+03 0.794799488980206D+02 -.217949659813734D+03 0.114045643074607D+03
 0.182284256628865D+03 0.250917256921988D+02 0.145286369936279D+03 -.107190606991771D+03
 0.754634725726513D+02 -.146825581912534D+01 0.747281412109114D+02 0.104059996509221D+02
 0.138736344452054D+03 -.103103418771094D+03 -.206485133345554D+01 -.172610357337584D+02
 0.000000000000000D+00 0.000000000000000D+00 -.000000000000000D+00 -.000000000000000D+00
 0.351827183538957D+03 0.000000000000000D+00 0.000000000000000D+00 0.351827183538957D+03
 0.366524557643518D+03 0.000000000000000D+00 0.000000000000000D+00 -.366524557643518D+03
 0.267782374331250D+03 0.618887975775672D+02 -.215767274368899D+03 0.114045643074607D+03
 0.182215435335799D+03 0.132593531510793D+02 0.146754312377407D+03 -.107190606991771D+03
 0.763231110927406D+02 -.639554504395912D+01 0.753394283342430D+02 0.104059996509221D+02
 0.145717955419977D+03 -.112337361408652D+03 -.919274125713767D+00 -.172610357337584D+02
 0.463128650027081D+02 0.435847557239645D+02 -.540719221703676D+01 -.146973741045612D+02
0.416481854890D-05 0.000000000000D+00 0.000000000000D+00 0.115573152379D-06 0.000000000000D+00  7 -2 2 23 -11 11 23 21 0 0.88243285D-02 0.30155161D+00 0.92752467D+05 0.92752467D+05 0.92752467D+05 0.11244133D+01  1  2  2  2  7  2        2 0.287767078818D-03 0.100000000000D+01
-.228776176286D-06 0.000000000000D+00 -.159939998497D-07 0.115573152379D-06 0.000000000000D+00  7 -2 2 23 -11 11 23 21 2 0.88243285D-02 0.30155161D+00 0.92752467D+05 0.92752467D+05 0.92752467D+05 0.11244133D+01  1  2  3  2  7  2        2 -.199851652538D-04 0.100000000000D+01
0.263962636841D-06 0.000000000000D+00 0.000000000000D+00 0.115573152379D-06 0.000000000000D+00  7 -2 2 23 -11 11 23 21 2 0.88243285D-02 0.30155161D+00 0.92752467D+05 0.92752467D+05 0.92752467D+05 0.11244133D+01  1  2 15  2  7  2        2 0.230589434781D-04 0.100000000000D+01
0.650143318102D-05 0.000000000000D+00 0.000000000000D+00 0.115573152379D-06 0.000000000000D+00  7 -2 2 23 -11 11 23 21 2 0.88243285D-02 0.33652248D+00 0.10688200D+06 0.10688200D+06 0.10688200D+06 0.11193578D+01  1  2 12  2  7  2        2 0.422662242843D-03 0.100000000000D+01
-.606037054186D-05 0.000000000000D+00 0.000000000000D+00 0.115573152379D-06 0.000000000000D+00  7 -2 2 23 -11 11 23 21 2 0.88243285D-02 0.30155161D+00 0.92752467D+05 0.92752467D+05 0.92752467D+05 0.11244133D+01  1  2  4  2  7  2        2 -.529414857546D-03 0.100000000000D+01
-.191613673260D-04 0.000000000000D+00 -.387767874158D-05 0.115573152379D-06 0.000000000000D+00  7 -2 2 23 -11 11 23 21 2 0.88243285D-02 0.33673961D+00 0.92752467D+05 0.92752467D+05 0.92752467D+05 0.11244133D+01  1  2  5  2  7  2        2 -.125912671880D-02 0.100000000000D+01
0.194939889591D-04 0.000000000000D+00 0.385418049264D-05 0.115573152379D-06 0.000000000000D+00  7 -2 2 23 -11 11 23 21 2 0.88243285D-02 0.30155161D+00 0.92752467D+05 0.92752467D+05 0.92752467D+05 0.11244133D+01  1  2  6  2  7  2        2 0.170293339599D-02 0.100000000000D+01
0.114351853642D-06 0.000000000000D+00 0.000000000000D+00 0.115573152379D-06 0.000000000000D+00  7 -2 21 23 -11 11 23 -2 2 0.88243285D-02 0.33652248D+00 0.10688200D+06 0.10688200D+06 0.10688200D+06 0.11193578D+01  1  2 12  4  7  2        2 0.127979163070D-05 0.100000000000D+01
-.323344491015D-06 0.000000000000D+00 -.685448581708D-07 0.115573152379D-06 0.000000000000D+00  7 -2 21 23 -11 11 23 -2 2 0.88243285D-02 0.33673961D+00 0.92752467D+05 0.92752467D+05 0.92752467D+05 0.11244133D+01  1  2  5  4  7  2        2 -.368364680215D-05 0.100000000000D+01
  </mgrwgt>
  </event>
  <event>
  8     66 0.27870365E-05 0.78661804E+02 0.75467711E-02 0.10188336E+00
       -2 -1    0    0    0  501 0.00000000E+00 0.00000000E+00 0.34007977E+03 0.34007992E+03 0.32000000E+00 0.0000E+00 0.9000E+01
        2 -1    0    0  501    0 0.00000000E+00 0.00000000E+00 -.40987023E+03 0.40987035E+03 0.32000000E+00 0.0000E+00 0.9000E+01
       25  2    1    2    0    0 -.34793232E+02 0.19985522E+03 0.19013302E+03 0.40785652E+03 0.29840190E+03 0.0000E+00 0.0000E+00
       23  2    3    3    0    0 -.36252044E+02 0.97586889E+02 -.42615422E+02 0.13776759E+03 0.79538818E+02 0.0000E+00 0.0000E+00
       23  1    1    2    0    0 0.34793232E+02 -.19985522E+03 -.25992347E+03 0.34209376E+03 0.91188000E+02 0.0000E+00 0.9000E+01
      -13  1    4    4    0    0 -.59529392E+02 0.84926657E+02 -.27646742E+02 0.10733424E+03 0.10565837E+00 0.0000E+00 0.9000E+01
       13  1    4    4    0    0 0.23277348E+02 0.12660233E+02 -.14968680E+02 0.30433353E+02 0.10565837E+00 0.0000E+00 0.9000E+01
       23  1    3    3    0    0 0.14588115E+01 0.10226833E+03 0.23274844E+03 0.27008892E+03 0.91188000E+02 0.0000E+00 0.9000E+01
#aMCatNLO 1  0  0  1  2 0.59740569D+02 0.00000000D+00  -5  7  0 0.00000000D+00 0.00000000D+00 0.00000000D+00 0.00000000D+00 0.00000000D+00
  <mgrwgt>
 0.1004569178D-02    9    2    0
 0.373347931557179D+03 0.000000000000000D+00 0.000000000000000D+00 0.373347931557179D+03
 0.373347931557179D+03 0.000000000000000D+00 0.000000000000000D+00 -.373347931557179D+03
 0.319290819694584D+03 0.347932324101720D+02 -.199855220925389D+03 -.229082294917252D+03
 0.105218158654114D+03 -.595295371592163D+02 0.849267836527282D+02 -.177351778839256D+02
 0.291668011393251D+02 0.232774933079573D+02 0.126601054694139D+02 -.121894349131638D+02
 0.293020083626336D+03 0.145881144108701D+01 0.102268331803247D+03 0.259006907714341D+03
 0.000000000000000D+00 0.000000000000000D+00 -.000000000000000D+00 0.000000000000000D+00
 0.443286651536928D+03 0.000000000000000D+00 0.000000000000000D+00 0.443286651536928D+03
 0.387519690835579D+03 0.000000000000000D+00 0.000000000000000D+00 -.387519690835579D+03
 0.313441366489105D+03 0.104022988543196D+02 -.193244232039531D+03 -.229082294917252D+03
 0.111928787029969D+03 -.679002457144140D+02 0.871956046102551D+02 -.177351778839256D+02
 0.277274812917965D+02 0.210842989473933D+02 0.132545551861094D+02 -.121894349131638D+02
 0.295984234893091D+03 -.212464744773801D+02 0.108422437898181D+03 0.259006907714341D+03
 0.817244726685448D+02 0.576601223900812D+02 -.156283656550144D+02 0.557669607013486D+02
0.237650107455D-04 0.000000000000D+00 0.000000000000D+00 0.873829261987D-09 0.000000000000D+00  7 -2 2 23 -13 13 23 21 0 0.52319986D-01 0.63056980D-01 0.59939369D+05 0.59939369D+05 0.59939369D+05 0.11404330D+01  1  2  2  1  7  1       -2 0.790044148267D-03 0.100000000000D+01
-.103445174180D-05 0.000000000000D+00 -.912638987337D-07 0.873829261987D-09 0.000000000000D+00  7 -2 2 23 -13 13 23 21 2 0.52319986D-01 0.63056980D-01 0.59939369D+05 0.59939369D+05 0.59939369D+05 0.11404330D+01  1  2  3  1  7  1       -2 -.447263169791D-04 0.100000000000D+01
0.147645743952D-05 0.000000000000D+00 0.000000000000D+00 0.873829261987D-09 0.000000000000D+00  7 -2 2 23 -13 13 23 21 2 0.52319986D-01 0.63056980D-01 0.59939369D+05 0.59939369D+05 0.59939369D+05 0.11404330D+01  1  2 15  1  7  1       -2 0.638372006911D-04 0.100000000000D+01
0.488670950000D-04 0.000000000000D+00 0.000000000000D+00 0.873829261987D-09 0.000000000000D+00  7 -2 2 23 -13 13 23 21 2 0.62984705D-01 0.63056980D-01 0.76271763D+05 0.76271763D+05 0.76271763D+05 0.11315052D+01  1  2 12  1  7  1       -2 0.142498836913D-02 0.100000000000D+01
-.510887747140D-04 0.000000000000D+00 0.000000000000D+00 0.873829261987D-09 0.000000000000D+00  7 -2 2 23 -13 13 23 21 2 0.52319986D-01 0.63056980D-01 0.59939369D+05 0.59939369D+05 0.59939369D+05 0.11404330D+01  1  2  4  1  7  1       -2 -.220891187052D-02 0.100000000000D+01
-.750205538680D-04 0.000000000000D+00 -.167500945160D-04 0.873829261987D-09 0.000000000000D+00  7 -2 2 23 -13 13 23 21 2 0.63873791D-01 0.63056980D-01 0.59939369D+05 0.59939369D+05 0.59939369D+05 0.11404330D+01  1  2  5  1  7  1       -2 -.216687718920D-02 0.100000000000D+01
0.771498345106D-04 0.000000000000D+00 0.164221060401D-04 0.873829261987D-09 0.000000000000D+00  7 -2 2 23 -13 13 23 21 2 0.52319986D-01 0.63056980D-01 0.59939369D+05 0.59939369D+05 0.59939369D+05 0.11404330D+01  1  2  6  1  7  1       -2 0.333570703571D-02 0.100000000000D+01
0.131951322381D-05 0.000000000000D+00 0.000000000000D+00 0.873829261987D-09 0.000000000000D+00  7 21 2 23 -13 13 23 2 2 0.62984705D-01 0.63056980D-01 0.76271763D+05 0.76271763D+05 0.76271763D+05 0.11315052D+01  1  2 12  3  7  1       -2 0.401140504267D-03 0.100000000000D+01
-.195085759622D-05 0.000000000000D+00 -.478471277711D-06 0.873829261987D-09 0.000000000000D+00  7 21 2 23 -13 13 23 2 2 0.63873791D-01 0.63056980D-01 0.59939369D+05 0.59939369D+05 0.59939369D+05 0.11404330D+01  1  2  5  3  7  1       -2 -.590632703777D-03 0.100000000000D+01
  </mgrwgt>
  </event>
  <event>
  9     66 -.27870365E-05 0.19165838E+03 0.75467711E-02 0.10673459E+00
       -2 -1    0    0    0  501 0.00000000E+00 0.00000000E+00 0.35894310E+02 0.35895737E+02 0.32000000E+00 0.0000E+00 0.9000E+01
        2 -1    0    0  502    0 0.00000000E+00 0.00000000E+00 -.22760492E+04 0.22760492E+04 0.32000000E+00 0.0000E+00 0.9000E+01
       25  2    1    2    0    0 0.27413389E+02 0.33856696E+02 -.64382759E+03 0.71213623E+03 0.30120801E+03 0.0000E+00 0.0000E+00
       23  2    3    3    0    0 -.37799498E+02 0.11747463E+03 -.43035984E+03 0.45693354E+03 0.91376019E+02 0.0000E+00 0.0000E+00
       23  1    1    2    0    0 -.23595905E+02 -.29070428E+02 -.15381275E+04 0.15412830E+04 0.91188000E+02 0.0000E+00 0.9000E+01
      -13  1    4    4    0    0 -.45575506E+02 0.25912904E+02 -.87788985E+02 0.10225225E+03 0.10565837E+00 0.0000E+00 0.9000E+01
       13  1    4    4    0    0 0.77760085E+01 0.91561722E+02 -.34257086E+03 0.35468129E+03 0.10565837E+00 0.0000E+00 0.9000E+01
       23  1    3    3    0    0 0.65212887E+02 -.83617931E+02 -.21346775E+03 0.25520269E+03 0.91188000E+02 0.0000E+00 0.9000E+01
       21  1    1    2  502  501 -.38174840E+01 -.47862678E+01 -.58199801E+02 0.58525728E+02 0.75000000E+00 0.0000E+00 0.9000E+01
#aMCatNLO 2  0  0  2  1 0.61222172D+01 0.00000000D+00  -5  7  0 0.00000000D+00 0.00000000D+00 0.00000000D+00 0.00000000D+00 0.00000000D+00
  <mgrwgt>
 -.2089684379D-03    3    2    0
 0.281483897427003D+03 0.000000000000000D+00 0.000000000000000D+00 0.281483897427003D+03
 0.281483897427003D+03 0.000000000000000D+00 0.000000000000000D+00 -.281483897427003D+03
 0.208290538111048D+03 -.250068599035192D+02 -.308394484971918D+02 -.183011699890321D+03
 0.691256285133218D+02 -.460439884886912D+02 0.253255314985413D+02 0.449101446861556D+02
 0.911304514344601D+02 0.715534438932111D+01 0.907835419941342D+02 0.345090253672551D+01
 0.194421176795176D+03 0.638955040028893D+02 -.852696249954837D+02 0.134650652667439D+03
 0.000000000000000D+00 -.000000000000000D+00 -.000000000000000D+00 -.000000000000000D+00
 0.282768226900854D+03 0.000000000000000D+00 0.000000000000000D+00 0.282768226900854D+03
 0.288892270152714D+03 0.000000000000000D+00 0.000000000000000D+00 -.288892270152714D+03
 0.207871090460242D+03 -.235959058344787D+02 -.290704288966574D+02 -.183011699890321D+03
 0.690328055444522D+02 -.455755762389235D+02 0.259128152869732D+02 0.449101446861556D+02
 0.919561884264651D+02 0.777608119387845D+01 0.915618065727833D+02 0.345090253672551D+01
 0.194140998682203D+03 0.652128849071480D+02 -.836179251335681D+02 0.134650652667439D+03
 0.865941394020545D+01 -.381748402762430D+01 -.478626782953106D+01 -.612404325186015D+01
-.360747436455D-05 0.000000000000D+00 0.000000000000D+00 0.738761511775D-07 0.000000000000D+00  7 -2 2 23 -13 13 23 21 2 0.54969167D-02 0.35090749D+00 0.37805552D+05 0.37805552D+05 0.37805552D+05 0.11581306D+01  1  2 13  2  7  2        2 -.463975993835D-03 0.100000000000D+01
-.198106109037D-04 0.000000000000D+00 0.000000000000D+00 0.738761511775D-07 0.000000000000D+00  7 -2 2 23 -13 13 23 21 2 0.54969167D-02 0.34116246D+00 0.36732933D+05 0.36732933D+05 0.36732933D+05 0.11592641D+01  1  2  8  2  7  2        2 -.276354179268D-02 0.100000000000D+01
0.234814804051D-04 0.000000000000D+00 0.000000000000D+00 0.738761511775D-07 0.141042094106D-07  7 -2 2 23 -13 13 23 21 2 0.55219975D-02 0.35014152D+00 0.37805552D+05 0.37805552D+05 0.37805552D+05 0.11581306D+01  1  2  1  2  7  2        2 0.301854934860D-02 0.100000000000D+01
  </mgrwgt>
  </event>
  <event>
  9     66 -.27870365E-05 0.29315024E+03 0.75467711E-02 0.10094780E+00
       -2 -1    0    0    0  502 0.00000000E+00 0.00000000E+00 0.62757707E+02 0.62758522E+02 0.32000000E+00 0.0000E+00 0.9000E+01
        2 -1    0    0  501    0 0.00000000E+00 0.00000000E+00 -.32184875E+04 0.32184875E+04 0.32000000E+00 0.0000E+00 0.9000E+01
       25  2    1    2    0    0 -.22158236E+03 0.50957816E+02 -.28888955E+04 0.29133212E+04 0.30004637E+03 0.0000E+00 0.0000E+00
       23  2    3    3    0    0 -.11348635E+03 -.89304418E+02 -.10708452E+04 0.10843925E+04 0.91340728E+02 0.0000E+00 0.0000E+00
       23  1    1    2    0    0 0.21542237E+03 -.55052784E+02 -.23829765E+03 0.33843556E+03 0.91188000E+02 0.0000E+00 0.9000E+01
      -11  1    4    4    0    0 -.22656095E+02 -.31510564E+02 -.60607640E+03 0.60731773E+03 0.51099893E-03 0.0000E+00 0.9000E+01
       11  1    4    4    0    0 -.90830258E+02 -.57793854E+02 -.46476884E+03 0.47707477E+03 0.51099893E-03 0.0000E+00 0.9000E+01
       23  1    3    3    0    0 -.10809601E+03 0.14026223E+03 -.18180503E+04 0.18289287E+04 0.91188000E+02 0.0000E+00 0.9000E+01
       21  1    1    2  501  502 0.61599936E+01 0.40949684E+01 -.28536598E+02 0.29489222E+02 0.75000000E+00 0.0000E+00 0.9000E+01
#aMCatNLO 2  0  0  1  2 0.73969107D+01 0.00000000D+00  -5  7  0 0.00000000D+00 0.00000000D+00 0.00000000D+00 0.00000000D+00 0.00000000D+00
  <mgrwgt>
 -.1521653308D-03    3    2    0
 0.445682170618700D+03 0.000000000000000D+00 0.000000000000000D+00 0.445682170618700D+03
 0.445682170618700D+03 0.000000000000000D+00 0.000000000000000D+00 -.445682170618700D+03
 0.399846494041799D+03 0.218181244288944D+03 -.532187728449971D+02 0.318004204863583D+03
 0.889231849418197D+02 -.220405489840328D+02 -.311013683565996D+02 -.803383588768568D+02
 0.108948733337753D+03 -.900742802163392D+02 -.572913043378192D+02 -.217751460771347D+02
 0.293645928916029D+03 -.106066415088572D+03 0.141611445539416D+03 -.215890699909591D+03
 0.000000000000000D+00 0.000000000000000D+00 0.000000000000000D+00 -.000000000000000D+00
 0.449087193676144D+03 0.000000000000000D+00 0.000000000000000D+00 0.449087193676144D+03
 0.449732876676992D+03 0.000000000000000D+00 0.000000000000000D+00 -.449732876676992D+03
 0.398596955303520D+03 0.215422371373555D+03 -.550527840722967D+02 0.318004204863583D+03
 0.892214444438934D+02 -.226560946353088D+02 -.315105635859479D+02 -.803383588768568D+02
 0.109838164020961D+03 -.908302576695452D+02 -.577938541758459D+02 -.217751460771347D+02
 0.293738468255720D+03 -.108096012683252D+03 0.140262233419213D+03 -.215890699909591D+03
 0.742503832904235D+01 0.615999361455175D+01 0.409496841487771D+01 -.645683000847729D+00
-.767765295741D-05 0.000000000000D+00 0.000000000000D+00 0.145506205445D-05 0.000000000000D+00  7 -2 2 23 -11 11 23 21 2 0.96978698D-02 0.49067156D+00 0.88020591D+05 0.88020591D+05 0.88020591D+05 0.11262981D+01  1  2 13  1  7  1       -2 -.112879748245D-03 0.100000000000D+01
-.136955835503D-03 0.000000000000D+00 0.000000000000D+00 0.145506205445D-05 0.000000000000D+00  7 -2 2 23 -11 11 23 21 2 0.95814871D-02 0.49067156D+00 0.85937064D+05 0.85937064D+05 0.85937064D+05 0.11271636D+01  1  2  8  1  7  1       -2 -.205682622576D-02 0.100000000000D+01
0.142326199427D-03 0.000000000000D+00 0.000000000000D+00 0.145506205445D-05 0.179930964266D-06  7 -2 2 23 -11 11 23 21 2 0.96546899D-02 0.49513117D+00 0.88020591D+05 0.88020591D+05 0.88020591D+05 0.11262981D+01  1  2  1  1  7  1       -2 0.201754064323D-02 0.100000000000D+01
  </mgrwgt>
  </event>
  <event>
  8     66 0.27870365E-05 0.23419934E+03 0.75467711E-02 0.96838598E-01
       -2 -1    0    0    0  501 0.00000000E+00 0.00000000E+00 0.58402656E+02 0.58403532E+02 0.32000000E+00 0.0000E+00 0.9000E+01
        2 -1    0    0  501    0 0.00000000E+00 0.00000000E+00 -.31111253E+04 0.31111253E+04 0.32000000E+00 0.0000E+00 0.9000E+01
       25  2    1    2    0    0 -.29437269E+03 0.21971354E+03 -.17293190E+04 0.17930690E+04 0.29937071E+03 0.0000E+00 0.0000E+00
       23  2    3    3    0    0 -.23477549E+03 0.21960504E+03 -.97096901E+03 0.10269347E+04 0.92022055E+02 0.0000E+00 0.0000E+00
       23  1    1    2    0    0 0.29437269E+03 -.21971354E+03 -.13234036E+04 0.13764598E+04 0.91188000E+02 0.0000E+00 0.9000E+01
      -13  1    4    4    0    0 -.10819313E+03 0.14957509E+03 -.63145169E+03 0.65788274E+03 0.10565837E+00 0.0000E+00 0.9000E+01
       13  1    4    4    0    0 -.12658236E+03 0.70029957E+02 -.33951732E+03 0.36905191E+03 0.10565837E+00 0.0000E+00 0.9000E+01
       23  1    3    3    0    0 -.59597197E+02 0.10850006E+00 -.75835002E+03 0.76613435E+03 0.91188000E+02 0.0000E+00 0.9000E+01
#aMCatNLO 1  0  0  2  1 0.94733617D+01 0.00000000D+00  -5  7  0 0.00000000D+00 0.00000000D+00 0.00000000D+00 0.00000000D+00 0.00000000D+00
  <mgrwgt>
 0.1054507975D-02   11    2    0
 0.426262117599592D+03 0.000000000000000D+00 0.000000000000000D+00 0.426262117599592D+03
 0.426262117599592D+03 0.000000000000000D+00 0.000000000000000D+00 -.426262117599592D+03
 0.378575747443953D+03 0.294372690907083D+03 -.219713543348888D+03 0.866157756684165D+01
 0.184782433841227D+03 -.108193109079054D+03 0.149575190976085D+03 0.812780711895024D+01
 0.156322153504275D+03 -.126582385266475D+03 0.700298523077050D+02 0.592396421513916D+02
 0.132843900409728D+03 -.595971965615545D+02 0.108500065098298D+00 -.760290268371835D+02
 0.000000000000000D+00 0.000000000000000D+00 -.000000000000000D+00 -.000000000000000D+00
 0.430395879078581D+03 0.000000000000000D+00 0.000000000000000D+00 0.430395879078581D+03
 0.431750745999052D+03 0.000000000000000D+00 0.000000000000000D+00 -.431750745999052D+03
 0.375245946269939D+03 0.290187016826324D+03 -.219569445022559D+03 0.866157756684165D+01
 0.186052572654789D+03 -.110252209378067D+03 0.149646078699570D+03 0.812780711895024D+01
 0.157764346076091D+03 -.128326383524117D+03 0.700898921543818D+02 0.592396421513916D+02
 0.133514003196023D+03 -.610761767801194D+02 0.159416254476110D+00 -.760290268371835D+02
 0.956975688078999D+01 0.946775285597910D+01 -.325942085868537D+00 -.135486692047098D+01
0.161712320139D-04 0.000000000000D+00 0.000000000000D+00 0.210938731746D-06 0.000000000000D+00  7 -2 2 23 -13 13 23 21 0 0.89850926D-02 0.47863472D+00 0.16674117D+06 0.16674117D+06 0.16674117D+06 0.11039438D+01  1  2  2  2  7  2        2 0.229799423863D-03 0.100000000000D+01
-.896386251100D-06 0.000000000000D+00 -.621017889165D-07 0.210938731746D-06 0.000000000000D+00  7 -2 2 23 -13 13 23 21 2 0.89850926D-02 0.47863472D+00 0.16674117D+06 0.16674117D+06 0.16674117D+06 0.11039438D+01  1  2  3  2  7  2        2 -.155236900065D-04 0.100000000000D+01
0.102620807731D-05 0.000000000000D+00 0.000000000000D+00 0.210938731746D-06 0.000000000000D+00  7 -2 2 23 -13 13 23 21 2 0.89850926D-02 0.47863472D+00 0.16674117D+06 0.16674117D+06 0.16674117D+06 0.11039438D+01  1  2 15  2  7  2        2 0.177719549522D-04 0.100000000000D+01
0.816801944254D-05 0.000000000000D+00 0.000000000000D+00 0.210938731746D-06 0.000000000000D+00  7 -2 2 23 -13 13 23 21 2 0.89850926D-02 0.48709238D+00 0.17076172D+06 0.17076172D+06 0.17076172D+06 0.11031363D+01  1  2 12  2  7  2        2 0.130010685041D-03 0.100000000000D+01
-.683788907303D-05 0.000000000000D+00 0.000000000000D+00 0.210938731746D-06 0.000000000000D+00  7 -2 2 23 -13 13 23 21 2 0.89850926D-02 0.47863472D+00 0.16674117D+06 0.16674117D+06 0.16674117D+06 0.11039438D+01  1  2  4  2  7  2        2 -.118419119144D-03 0.100000000000D+01
-.638343316240D-03 0.000000000000D+00 -.737230898033D-04 0.210938731746D-06 0.000000000000D+00  7 -2 2 23 -13 13 23 21 2 0.89850926D-02 0.48633623D+00 0.16674117D+06 0.16674117D+06 0.16674117D+06 0.11039438D+01  1  2  5  2  7  2        2 -.102617784063D-01 0.100000000000D+01
0.639448044061D-03 0.000000000000D+00 0.737136984363D-04 0.210938731746D-06 0.000000000000D+00  7 -2 2 23 -13 13 23 21 2 0.89850926D-02 0.47863472D+00 0.16674117D+06 0.16674117D+06 0.16674117D+06 0.11039438D+01  1  2  6  2  7  2        2 0.110740132382D-01 0.100000000000D+01
0.107808886134D-08 0.000000000000D+00 0.000000000000D+00 0.210938731746D-06 0.152578576550D-07  7 -2 2 23 -13 13 23 21 2 0.90722274D-02 0.48479771D+00 0.17076172D+06 0.17076172D+06 0.17076172D+06 0.11031363D+01  1  2 11  2  7  2        2 0.172877005088D-07 0.100000000000D+01
0.347297972266D-06 0.000000000000D+00 0.000000000000D+00 0.210938731746D-06 0.000000000000D+00  7 -2 21 23 -13 13 23 -2 2 0.89850926D-02 0.48709238D+00 0.17076172D+06 0.17076172D+06 0.17076172D+06 0.11031363D+01  1  2 12  4  7  2        2 0.311158851188D-06 0.100000000000D+01
-.185869900599D-05 0.000000000000D+00 -.215460950502D-06 0.210938731746D-06 0.000000000000D+00  7 -2 21 23 -13 13 23 -2 2 0.89850926D-02 0.48633623D+00 0.16674117D+06 0.16674117D+06 0.16674117D+06 0.11039438D+01  1  2  5  4  7  2        2 -.169456177718D-05 0.100000000000D+01
0.422463950653D-11 0.000000000000D+00 0.000000000000D+00 0.210938731746D-06 0.361236347964D-10  7 -2 21 23 -13 13 23 -2 2 0.90722274D-02 0.48479771D+00 0.17076172D+06 0.17076172D+06 0.17076172D+06 0.11031363D+01  1  2 11  4  7  2        2 0.388518950551D-11 0.100000000000D+01
  </mgrwgt>
  </event>
  <event>
  9     66 0.27870365E-05 0.23290922E+03 0.75467711E-02 0.99952551E-01
       21 -1    0    0  502  501 0.00000000E+00 0.00000000E+00 0.11866884E+03 0.11867121E+03 0.75000000E+00 0.0000E+00 0.9000E+01
        2 -1    0    0  501    0 0.00000000E+00 0.00000000E+00 -.31300431E+04 0.31300432E+04 0.32000000E+00 0.0000E+00 0.9000E+01
       25  2    1    2    0    0 0.20906727E+02 -.13853546E+03 -.16898031E+03 0.37132777E+03 0.29950092E+03 0.0000E+00 0.0000E+00
       23  2    3    3    0    0 0.11299970E+03 -.10310750E+03 -.32496735E+02 0.17980943E+03 0.88742918E+02 0.0000E+00 0.0000E+00
       23  1    1    2    0    0 0.11254716E+03 0.13650848E+03 -.25281463E+04 0.25359693E+04 0.91188000E+02 0.0000E+00 0.9000E+01
      -11  1    4    4    0    0 0.79734907E+02 -.16163787E+02 -.45105311E+00 0.81358017E+02 0.51099893E-03 0.0000E+00 0.9000E+01
       11  1    4    4    0    0 0.33264793E+02 -.86943711E+02 -.32045682E+02 0.98451415E+02 0.51099893E-03 0.0000E+00 0.9000E+01
       23  1    3    3    0    0 -.92092973E+02 -.35427964E+02 -.13648357E+03 0.19151834E+03 0.91188000E+02 0.0000E+00 0.9000E+01
        2  1    1    2  502    0 -.13345389E+03 0.20269830E+01 -.31424769E+03 0.34141728E+03 0.32000000E+00 0.0000E+00 0.9000E+01
#aMCatNLO 2  0  0  1  2 0.13346928D+03 0.00000000D+00  -5  7  0 0.00000000D+00 0.00000000D+00 0.00000000D+00 0.00000000D+00 0.00000000D+00
  <mgrwgt>
 0.3244445073D-04    2    2    0
 0.538532817299463D+03 0.000000000000000D+00 0.000000000000000D+00 0.538532817299463D+03
 0.538532817299463D+03 0.000000000000000D+00 0.000000000000000D+00 -.538532817299463D+03
 0.500751670416924D+03 0.501340830852975D+02 0.137456449360757D+03 -.470137514269676D+03
 0.208568237596205D+03 0.534814429119684D+02 -.157650326776777D+02 0.200977383659735D+03
 0.181215235474766D+03 0.107192784137264D+02 -.866012757240794D+02 0.158821527764425D+03
 0.186530491111032D+03 -.114334804410992D+03 -.350901409589998D+02 0.110338602845515D+03
 0.000000000000000D+00 -.000000000000000D+00 0.000000000000000D+00 0.000000000000000D+00
 0.612802553652495D+03 0.000000000000000D+00 0.000000000000000D+00 0.612802553652495D+03
 0.606136911927138D+03 0.000000000000000D+00 0.000000000000000D+00 -.606136911927138D+03
 0.510534976470582D+03 0.112547161350596D+03 0.136508479605009D+03 -.470137514269676D+03
 0.216819814994018D+03 0.797349071509657D+02 -.161637870857905D+02 0.200977383659735D+03
 0.184092457959661D+03 0.332647928150206D+02 -.869437114182356D+02 0.158821527764425D+03
 0.173856592938321D+03 -.920929728276300D+02 -.354279641242640D+02 0.110338602845515D+03
 0.133635623217050D+03 -.133453888488953D+03 0.202698302328098D+01 0.666564172535759D+01
-.307158218087D-06 0.000000000000D+00 0.000000000000D+00 0.251367949459D-06 0.000000000000D+00  7 21 2 23 -11 11 23 2 2 0.19137160D-01 0.42783710D+00 0.10282007D+06 0.10282007D+06 0.10282007D+06 0.11207323D+01  1  2 13  3  7  1       -2 -.349994872667D-04 0.100000000000D+01
0.892136503689D-06 0.000000000000D+00 0.000000000000D+00 0.251367949459D-06 0.206770716109D-11  7 21 2 23 -11 11 23 2 2 0.18256923D-01 0.48154513D+00 0.10282007D+06 0.10282007D+06 0.10282007D+06 0.11207323D+01  1  2  1  3  7  1       -2 0.674439380006D-04 0.100000000000D+01
  </mgrwgt>
  </event>
  <event>
  8     66 0.27870365E-05 0.84345408E+03 0.75467711E-02 0.79052485E-01
       -2 -1    0    0    0  501 0.00000000E+00 0.00000000E+00 0.56121220E+03 0.56121229E+03 0.32000000E+00 0.0000E+00 0.9000E+01
        2 -1    0    0  501    0 0.00000000E+00 0.00000000E+00 -.13493872E+04 0.13493872E+04 0.32000000E+00 0.0000E+00 0.9000E+01
       25  2    1    2    0    0 -.80641892E+03 -.19639662E+03 -.55719336E+03 0.10442561E+04 0.30186643E+03 0.0000E+00 0.0000E+00
       23  2    3    3    0    0 -.26106878E+03 -.84887540E+01 -.74814321E+02 0.28681246E+03 0.91843551E+02 0.0000E+00 0.0000E+00
       23  1    1    2    0    0 0.80641892E+03 0.19639662E+03 -.23098165E+03 0.86634340E+03 0.91188000E+02 0.0000E+00 0.9000E+01
      -13  1    4    4    0    0 -.77181991E+02 0.24802151E+02 0.98253848E+01 0.81662450E+02 0.10565837E+00 0.0000E+00 0.9000E+01
       13  1    4    4    0    0 -.18388679E+03 -.33290905E+02 -.84639706E+02 0.20515001E+03 0.10565837E+00 0.0000E+00 0.9000E+01
       23  1    3    3    0    0 -.54535014E+03 -.18790786E+03 -.48237904E+03 0.75744368E+03 0.91188000E+02 0.0000E+00 0.9000E+01
#aMCatNLO 1  0  0  2  2 0.23304069D+04 0.00000000D+00  -5  7  0 0.00000000D+00 0.00000000D+00 0.00000000D+00 0.00000000D+00 0.00000000D+00
  <mgrwgt>
 0.4500598517D-03    5    2    0
 0.870225652650877D+03 0.000000000000000D+00 0.000000000000000D+00 0.870225652650877D+03
 0.870225652650877D+03 0.000000000000000D+00 0.000000000000000D+00 -.870225652650877D+03
 0.846436395404631D+03 0.806418921110356D+03 0.196396617460890D+03 0.138766755553033D+03
 0.940952204406443D+02 -.771818499683164D+02 0.248022279899235D+02 0.477673741373503D+02
 0.186876138836852D+03 -.183886926306652D+03 -.332909820528243D+02 -.106780454402546D-01
 0.613043550619626D+03 -.545350144835387D+03 -.187907863397989D+03 -.186523451644943D+03
 0.000000000000000D+00 0.000000000000000D+00 -.000000000000000D+00 -.000000000000000D+00
 0.205114794073589D+04 0.000000000000000D+00 0.000000000000000D+00 0.205114794073589D+04
 0.372908780277382D+04 0.000000000000000D+00 0.000000000000000D+00 -.372908780277382D+04
 0.443422462519814D+03 0.183086617529311D+03 0.368145768627179D+03 0.138766755553033D+03
 0.265702528080303D+03 -.251056346414944D+03 0.727105378955909D+02 0.477673741373503D+02
 0.537835109039333D+03 -.534108137561238D+03 0.632068176085146D+02 -.106780454402546D-01
 0.166164218823551D+04 -.164460615475657D+04 0.114974380204292D+03 -.186523451644943D+03
 0.287163345563475D+04 0.224668402120344D+04 -.619037504335577D+03 -.167793986203793D+04
0.199581063416D-03 0.000000000000D+00 0.000000000000D+00 0.272045207740D-06 0.000000000000D+00  7 -2 2 23 -13 13 23 21 0 0.86340348D-01 0.20759804D+00 0.71141478D+06 0.71141478D+06 0.71141478D+06 0.10578518D+01  1  2  2  2  7  2        2 0.447064175856D-03 0.100000000000D+01
-.110746740803D-04 0.000000000000D+00 -.766443834420D-06 0.272045207740D-06 0.000000000000D+00  7 -2 2 23 -13 13 23 21 2 0.86340348D-01 0.20759804D+00 0.71141478D+06 0.71141478D+06 0.71141478D+06 0.10578518D+01  1  2  3  2  7  2        2 -.277607480831D-04 0.100000000000D+01
0.122690939378D-04 0.000000000000D+00 0.000000000000D+00 0.272045207740D-06 0.000000000000D+00  7 -2 2 23 -13 13 23 21 2 0.86340348D-01 0.20759804D+00 0.71141478D+06 0.71141478D+06 0.71141478D+06 0.10578518D+01  1  2 15  2  7  2        2 0.307547855174D-04 0.100000000000D+01
0.511153266859D-04 0.000000000000D+00 -.661945832026D-04 0.272045207740D-06 0.000000000000D+00  7 -2 2 23 -13 13 23 21 2 0.86340348D-01 0.92793155D+00 0.71141478D+06 0.71141478D+06 0.71141478D+06 0.10578518D+01  1  2  5  2  7  2        2 0.163781848159D-08 0.100000000000D+01
0.874925027684D-05 0.000000000000D+00 -.119769934082D-04 0.272045207740D-06 0.000000000000D+00  7 -2 21 23 -13 13 23 -2 2 0.86340348D-01 0.92793155D+00 0.71141478D+06 0.71141478D+06 0.71141478D+06 0.10578518D+01  1  2  5  4  7  2        2 0.634592279072D-12 0.100000000000D+01
  </mgrwgt>
  </event>
  <event>
  9     66 0.27870365E-05 0.26449378E+03 0.75467711E-02 0.10221812E+00
       -2 -1    0    0    0  501 0.00000000E+00 0.00000000E+00 0.16578740E+03 0.16578770E+03 0.32000000E+00 0.0000E+00 0.9000E+01
        2 -1    0    0  502    0 0.00000000E+00 0.00000000E+00 -.51823676E+03 0.51823686E+03 0.32000000E+00 0.0000E+00 0.9000E+01
       25  2    1    2    0    0 -.16926457E+03 -.70891140E+02 -.28723619E+03 0.45444166E+03 0.30056038E+03 0.0000E+00 0.0000E+00
       23  2    3    3    0    0 -.19541935E+03 -.71464698E+02 -.10689816E+03 0.25067351E+03 0.90078103E+02 0.0000E+00 0.0000E+00
       23  1    1    2    0    0 0.17760549E+03 0.66816623E+02 -.64728483E+02 0.22025712E+03 0.91188000E+02 0.0000E+00 0.9000E+01
      -11  1    4    4    0    0 -.20262639E+03 -.74708028E+02 -.93965101E+02 0.23551684E+03 0.51099893E-03 0.0000E+00 0.9000E+01
       11  1    4    4    0    0 0.72070340E+01 0.32433297E+01 -.12933061E+02 0.15156668E+02 0.51099893E-03 0.0000E+00 0.9000E+01
       23  1    3    3    0    0 0.26154788E+02 0.57355806E+00 -.18033803E+03 0.20376815E+03 0.91188000E+02 0.0000E+00 0.9000E+01
       21  1    1    2  502  501 -.83409278E+01 0.40745174E+01 -.48468932E+00 0.93257811E+01 0.75000000E+00 0.0000E+00 0.9000E+01
#aMCatNLO 2  0  0  2  2 0.92829289D+01 0.00000000D+00  -5  7  0 0.00000000D+00 0.00000000D+00 0.00000000D+00 0.00000000D+00 0.00000000D+00
  <mgrwgt>
 0.1325818599D-03    2    2    0
 0.287772975449938D+03 0.000000000000000D+00 0.000000000000000D+00 0.287772975449938D+03
 0.287772975449938D+03 0.000000000000000D+00 0.000000000000000D+00 -.287772975449938D+03
 0.216517767594843D+03 0.174452863032316D+03 0.683566732012447D+02 0.588069396324989D+02
 0.221035736924669D+03 -.205811824139465D+03 -.731519525089593D+02 0.338685973483477D+02
 0.977733695367577D+01 0.706476698012547D+01 0.331282675583747D+01 -.589156722002306D+01
 0.128215109426688D+03 0.242941941270230D+02 0.148245255187714D+01 -.867839697608236D+02
 0.000000000000000D+00 -.000000000000000D+00 0.000000000000000D+00 0.000000000000000D+00
 0.295681370774808D+03 0.000000000000000D+00 0.000000000000000D+00 0.295681370774808D+03
 0.290547449102397D+03 0.000000000000000D+00 0.000000000000000D+00 -.290547449102397D+03
 0.218590210497708D+03 0.177605494215582D+03 0.668166226094296D+02 0.588069396324989D+02
 0.218599690588038D+03 -.202626388735313D+03 -.747080278613166D+02 0.338685973483477D+02
 0.985753983189655D+01 0.720703402175762D+01 0.324332974558636D+01 -.589156722002306D+01
 0.128573366876736D+03 0.261547882752766D+02 0.573558059443204D+00 -.867839697608236D+02
 0.106080120828259D+02 -.834092777730313D+01 0.407451744685743D+01 0.513392167241071D+01
-.422156255789D-05 0.000000000000D+00 0.000000000000D+00 0.120706207410D-06 0.000000000000D+00  7 -2 2 23 -11 11 23 21 2 0.24822472D-01 0.78963842D-01 0.69956961D+05 0.69956961D+05 0.69956961D+05 0.11346823D+01  1  2  8  2  7  2        2 -.546937088690D-03 0.100000000000D+01
0.556414878515D-05 0.000000000000D+00 0.000000000000D+00 0.120706207410D-06 0.959993277838D-08  7 -2 2 23 -11 11 23 21 2 0.25504628D-01 0.79725147D-01 0.72507401D+05 0.72507401D+05 0.72507401D+05 0.11333626D+01  1  2  1  2  7  2        2 0.679518948580D-03 0.100000000000D+01
  </mgrwgt>
  </event>
  <event>
  8     66 0.27870365E-05 0.23214174E+03 0.75467711E-02 0.10411830E+00
       -2 -1    0    0    0  501 0.00000000E+00 0.00000000E+00 0.99333179E+02 0.99333695E+02 0.32000000E+00 0.0000E+00 0.9000E+01
        2 -1    0    0  501    0 0.00000000E+00 0.00000000E+00 -.16402485E+04 0.16402485E+04 0.32000000E+00 0.0000E+00 0.9000E+01
       25  2    1    2    0    0 -.71542835E+02 0.12816099E+03 -.20510222E+03 0.39263920E+03 0.30092359E+03 0.0000E+00 0.0000E+00
       23  2    3    3    0    0 -.88986960E+02 -.38037519E+02 -.29579788E+02 0.13369979E+03 0.87379281E+02 0.0000E+00 0.0000E+00
       23  1    1    2    0    0 0.71542835E+02 -.12816099E+03 -.13358131E+04 0.13469430E+04 0.91188000E+02 0.0000E+00 0.9000E+01
      -11  1    4    4    0    0 -.38131248E+02 -.32230868E+02 -.56883123E+02 0.75686925E+02 0.51099893E-03 0.0000E+00 0.9000E+01
       11  1    4    4    0    0 -.50855712E+02 -.58066505E+01 0.27303335E+02 0.58012867E+02 0.51099893E-03 0.0000E+00 0.9000E+01
       23  1    3    3    0    0 0.17444125E+02 0.16619851E+03 -.17552243E+03 0.25893941E+03 0.91188000E+02 0.0000E+00 0.9000E+01
#aMCatNLO 1  0  0  1  1 0.37683781D+01 0.00000000D+00  -5  7  0 0.00000000D+00 0.00000000D+00 0.00000000D+00 0.00000000D+00 0.00000000D+00
  <mgrwgt>
 0.3627151693D-03    8    2    0
 0.403647832560874D+03 0.000000000000000D+00 0.000000000000000D+00 0.403647832560874D+03
 0.403647832560874D+03 0.000000000000000D+00 0.000000000000000D+00 -.403647832560874D+03
 0.352712495035948D+03 0.715428347430190D+02 -.128160992546884D+03 -.307485342084488D+03
 0.545172676834613D+02 -.381312483629909D+02 -.322308681736297D+02 0.218931841157056D+02
 0.177122565365822D+03 -.508557118202935D+02 -.580665053258437D+01 0.169565275179246D+03
 0.222943337036518D+03 0.174441254402653D+02 0.166198511253098D+03 0.116026882789536D+03
 0.000000000000000D+00 -.000000000000000D+00 0.000000000000000D+00 -.000000000000000D+00
 0.403977419152496D+03 0.000000000000000D+00 0.000000000000000D+00 0.403977419152496D+03
 0.414569476091881D+03 0.000000000000000D+00 0.000000000000000D+00 -.414569476091881D+03
 0.353170306825812D+03 0.731523435184998D+02 -.128512697117347D+03 -.307485342084488D+03
 0.543760899121462D+02 -.378829567001547D+02 -.322851240521671D+02 0.218931841157056D+02
 0.176898364238948D+03 -.500484959603803D+02 -.598304069062945D+01 0.169565275179246D+03
 0.222859699309268D+03 0.184606169842470D+02 0.165976390860030D+03 0.116026882789536D+03
 0.112424349582041D+02 -.368150784221170D+01 0.804471000113669D+00 -.105920569393843D+02
0.712140707700D-05 0.000000000000D+00 0.000000000000D+00 0.262292392710D-07 0.000000000000D+00  7 -2 2 23 -11 11 23 21 0 0.15282070D-01 0.25234596D+00 0.53889786D+05 0.53889786D+05 0.53889786D+05 0.11444444D+01  1  2  2  1  7  1       -2 0.312760419371D-03 0.100000000000D+01
-.248425935607D-06 0.000000000000D+00 -.273480782852D-07 0.262292392710D-07 0.000000000000D+00  7 -2 2 23 -11 11 23 21 2 0.15282070D-01 0.25234596D+00 0.53889786D+05 0.53889786D+05 0.53889786D+05 0.11444444D+01  1  2  3  1  7  1       -2 -.142900037316D-04 0.100000000000D+01
0.423956773091D-06 0.000000000000D+00 0.000000000000D+00 0.262292392710D-07 0.000000000000D+00  7 -2 2 23 -11 11 23 21 2 0.15282070D-01 0.25234596D+00 0.53889786D+05 0.53889786D+05 0.53889786D+05 0.11444444D+01  1  2 15  1  7  1       -2 0.243869218192D-04 0.100000000000D+01
-.228378243244D-05 0.000000000000D+00 0.000000000000D+00 0.262292392710D-07 0.000000000000D+00  7 -2 2 23 -11 11 23 21 2 0.15282070D-01 0.25234596D+00 0.53889786D+05 0.53889786D+05 0.53889786D+05 0.11444444D+01  1  2  4  1  7  1       -2 -.131368165735D-03 0.100000000000D+01
0.268510732745D-06 0.000000000000D+00 0.000000000000D+00 0.262292392710D-07 0.000000000000D+00  7 -2 2 23 -11 11 23 21 2 0.15837841D-01 0.25234596D+00 0.53889786D+05 0.53889786D+05 0.53889786D+05 0.11444444D+01  1  2  5  1  7  1       -2 0.145909564274D-04 0.100000000000D+01
-.268339506862D-06 0.000000000000D+00 0.000000000000D+00 0.262292392710D-07 0.000000000000D+00  7 -2 2 23 -11 11 23 21 2 0.15282070D-01 0.25234596D+00 0.53889786D+05 0.53889786D+05 0.53889786D+05 0.11444444D+01  1  2  6  1  7  1       -2 -.154354759499D-04 0.100000000000D+01
0.226363472148D-05 0.000000000000D+00 0.000000000000D+00 0.262292392710D-07 0.128928678733D-07  7 -2 2 23 -11 11 23 21 2 0.15294548D-01 0.25917378D+00 0.54744532D+05 0.54744532D+05 0.54744532D+05 0.11438484D+01  1  2 11  1  7  1       -2 0.123041756768D-03 0.100000000000D+01
0.658943591525D-07 0.000000000000D+00 0.000000000000D+00 0.262292392710D-07 0.199512945317D-11  7 21 2 23 -11 11 23 2 2 0.15294548D-01 0.25917378D+00 0.54744532D+05 0.54744532D+05 0.54744532D+05 0.11438484D+01  1  2 11  3  7  1       -2 0.490287603361D-04 0.100000000000D+01
  </mgrwgt>
  </event>
  <event>
  9     66 0.27870365E-05 0.22896863E+03 0.75467711E-02 0.99648957E-01
       -2 -1    0    0    0  501 0.00000000E+00 0.00000000E+00 0.25519636E+03 0.25519656E+03 0.32000000E+00 0.0000E+00 0.9000E+01
        2 -1    0    0  502    0 0.00000000E+00 0.00000000E+00 -.53614372E+03 0.53614382E+03 0.32000000E+00 0.0000E+00 0.9000E+01
       25  2    1    2    0    0 0.30531360E+02 -.38419270E+02 -.76940296E+02 0.31272950E+03 0.29911825E+03 0.0000E+00 0.0000E+00
       23  2    3    3    0    0 0.12443553E+03 -.66796330E+02 -.28290726E+02 0.17023289E+03 0.90735439E+02 0.0000E+00 0.0000E+00
       23  1    1    2    0    0 0.10777061E+03 0.13561140E+03 0.21333824E+02 0.19691455E+03 0.91188000E+02 0.0000E+00 0.9000E+01
      -13  1    4    4    0    0 -.22411525E+01 0.98577080E+01 -.19431889E+02 0.21904489E+02 0.10565837E+00 0.0000E+00 0.9000E+01
       13  1    4    4    0    0 0.12667669E+03 -.76654038E+02 -.88588375E+01 0.14832840E+03 0.10565837E+00 0.0000E+00 0.9000E+01
       23  1    3    3    0    0 -.93904173E+02 0.28377060E+02 -.48649570E+02 0.14249661E+03 0.91188000E+02 0.0000E+00 0.9000E+01
       21  1    1    2  502  501 -.13830197E+03 -.97192125E+02 -.22534089E+03 0.28169633E+03 0.75000000E+00 0.0000E+00 0.9000E+01
#aMCatNLO 2  0  0  2  1 0.16903770D+03 0.00000000D+00  -5  7  0 0.00000000D+00 0.00000000D+00 0.00000000D+00 0.00000000D+00 0.00000000D+00
  <mgrwgt>
 0.1209500531D-03    2    2    0
 0.238784017612039D+03 0.000000000000000D+00 0.000000000000000D+00 0.238784017612039D+03
 0.238784017612039D+03 0.000000000000000D+00 0.000000000000000D+00 -.238784017612039D+03
 0.153815526183584D+03 0.579884500666390D+02 0.100626832662182D+03 0.430760369391034D+02
 0.197558074919682D+02 -.781443821644048D+01 0.594130414435902D+01 -.171443107206257D+02
 0.136174702421861D+03 0.867080377352736D+02 -.104742362795241D+03 0.736907103038922D+01
 0.167821999126664D+03 -.136882049585472D+03 -.182577401130042D+01 -.333007972488669D+02
 0.000000000000000D+00 -.000000000000000D+00 -.000000000000000D+00 -.000000000000000D+00
 0.284740045697429D+03 0.000000000000000D+00 0.000000000000000D+00 0.284740045697429D+03
 0.480513942419742D+03 0.000000000000000D+00 0.000000000000000D+00 -.480513942419742D+03
 0.200438902806517D+03 0.107770616964530D+03 0.135611399133649D+03 0.430760369391034D+02
 0.199029555607111D+02 -.224132748108383D+01 0.985782435879328D+01 -.171443107206257D+02
 0.148247053683723D+03 0.126676857242213D+03 -.766541555122065D+02 0.736907103038922D+01
 0.138012483040678D+03 -.939041727024989D+02 0.283770573298680D+02 -.333007972488669D+02
 0.258652593025542D+03 -.138301974023160D+03 -.971921253101038D+02 -.195773896722313D+03
-.319490843647D-06 0.000000000000D+00 0.000000000000D+00 0.626121176909D-07 0.000000000000D+00  7 -2 2 23 -13 13 23 21 2 0.32924358D-01 0.82852470D-01 0.10787976D+06 0.10787976D+06 0.10787976D+06 0.11190289D+01  1  2 13  2  7  2        2 -.232982386945D-04 0.100000000000D+01
0.271080828859D-05 0.000000000000D+00 0.000000000000D+00 0.626121176909D-07 0.207057391534D-10  7 -2 2 23 -13 13 23 21 2 0.39260932D-01 0.82483527D-01 0.10787976D+06 0.10787976D+06 0.10787976D+06 0.11190289D+01  1  2  1  2  7  2        2 0.144248291776D-03 0.100000000000D+01
  </mgrwgt>
  </event>
  <event>
  8     66 0.27870365E-05 0.18155782E+03 0.75467711E-02 0.10068653E+00
       -2 -1    0    0    0  501 0.00000000E+00 0.00000000E+00 0.54315393E+02 0.54316335E+02 0.32000000E+00 0.0000E+00 0.9000E+01
        2 -1    0    0  501    0 0.00000000E+00 0.00000000E+00 -.18382935E+04 0.18382935E+04 0.32000000E+00 0.0000E+00 0.9000E+01
       25  2    1    2    0    0 -.12628019E+03 -.17438910E+03 -.79784654E+03 0.87913615E+03 0.29993837E+03 0.0000E+00 0.0000E+00
       23  2    3    3    0    0 -.61176505E+02 -.22169244E+03 -.50376794E+03 0.56090106E+03 0.89094132E+02 0.0000E+00 0.0000E+00
       23  1    1    2    0    0 0.12628019E+03 0.17438910E+03 -.98613156E+03 0.10134737E+04 0.91188000E+02 0.0000E+00 0.9000E+01
      -11  1    4    4    0    0 -.57242062E+02 -.94417929E+02 -.16081112E+03 0.19506823E+03 0.51099893E-03 0.0000E+00 0.9000E+01
       11  1    4    4    0    0 -.39344429E+01 -.12727451E+03 -.34295682E+03 0.36583283E+03 0.51099893E-03 0.0000E+00 0.9000E+01
       23  1    3    3    0    0 -.65103682E+02 0.47303343E+02 -.29407860E+03 0.31823509E+03 0.91188000E+02 0.0000E+00 0.9000E+01
#aMCatNLO 1  0  0  2  1 0.12169758D+02 0.00000000D+00  -5  7  0 0.00000000D+00 0.00000000D+00 0.00000000D+00 0.00000000D+00 0.00000000D+00
  <mgrwgt>
 0.4123013162D-03    9    2    0
 0.315988213644443D+03 0.000000000000000D+00 0.000000000000000D+00 0.315988213644443D+03
 0.315988213644443D+03 0.000000000000000D+00 0.000000000000000D+00 -.315988213644443D+03
 0.251391043763358D+03 0.126280187330156D+03 0.174389098591950D+03 -.923253059598420D+02
 0.130233564914253D+03 -.572420620127752D+02 -.944179290198101D+02 0.690607156523203D+02
 0.127459452736357D+03 -.393444287276969D+01 -.127274512849912D+03 0.562411148093901D+01
 0.122892365874918D+03 -.651036824446112D+02 0.473033432777724D+02 0.176404788265827D+02
 0.000000000000000D+00 0.000000000000000D+00 -.000000000000000D+00 -.000000000000000D+00
 0.316657154396724D+03 0.000000000000000D+00 0.000000000000000D+00 0.316657154396724D+03
 0.376709056004260D+03 0.000000000000000D+00 0.000000000000000D+00 -.376709056004260D+03
 0.249650213749395D+03 0.121535257132371D+03 0.175257516341835D+03 -.923253059598420D+02
 0.131014664693082D+03 -.597161189795317D+02 -.939651267878280D+02 0.690607156523203D+02
 0.127116377200822D+03 -.634531128925825D+01 -.126833275394725D+03 0.562411148093901D+01
 0.124312335260883D+03 -.674447452490528D+02 0.477318049006473D+02 0.176404788265827D+02
 0.612726194968019D+02 0.119709183854720D+02 -.219091905992932D+01 -.600519016075350D+02
0.307631299155D-05 0.000000000000D+00 0.000000000000D+00 0.971298819630D-07 0.000000000000D+00  7 -2 2 23 -11 11 23 21 0 0.83562889D-02 0.28281446D+00 0.87969573D+05 0.87969573D+05 0.87969573D+05 0.11263190D+01  1  2  2  2  7  2        2 0.268539458680D-03 0.100000000000D+01
-.170072820978D-06 0.000000000000D+00 -.118138518994D-07 0.971298819630D-07 0.000000000000D+00  7 -2 2 23 -11 11 23 21 2 0.83562889D-02 0.28281446D+00 0.87969573D+05 0.87969573D+05 0.87969573D+05 0.11263190D+01  1  2  3  2  7  2        2 -.188336871047D-04 0.100000000000D+01
0.197624629625D-06 0.000000000000D+00 0.000000000000D+00 0.971298819630D-07 0.000000000000D+00  7 -2 2 23 -11 11 23 21 2 0.83562889D-02 0.28281446D+00 0.87969573D+05 0.87969573D+05 0.87969573D+05 0.11263190D+01  1  2 15  2  7  2        2 0.218847457056D-04 0.100000000000D+01
0.814919971182D-04 0.000000000000D+00 0.000000000000D+00 0.971298819630D-07 0.000000000000D+00  7 -2 2 23 -11 11 23 21 2 0.83562889D-02 0.33742339D+00 0.91658137D+05 0.91658137D+05 0.91658137D+05 0.11248396D+01  1  2 12  2  7  2        2 0.579219593162D-02 0.100000000000D+01
-.806912806420D-04 0.000000000000D+00 0.000000000000D+00 0.971298819630D-07 0.000000000000D+00  7 -2 2 23 -11 11 23 21 2 0.83562889D-02 0.28281446D+00 0.87969573D+05 0.87969573D+05 0.87969573D+05 0.11263190D+01  1  2  4  2  7  2        2 -.893566839750D-02 0.100000000000D+01
-.861357831617D-04 0.000000000000D+00 -.191821275074D-05 0.971298819630D-07 0.000000000000D+00  7 -2 2 23 -11 11 23 21 2 0.83562889D-02 0.33737874D+00 0.87969573D+05 0.87969573D+05 0.87969573D+05 0.11263190D+01  1  2  5  2  7  2        2 -.614655410305D-02 0.100000000000D+01
0.851747940662D-04 0.000000000000D+00 0.188874541032D-05 0.971298819630D-07 0.000000000000D+00  7 -2 2 23 -11 11 23 21 2 0.83562889D-02 0.28281446D+00 0.87969573D+05 0.87969573D+05 0.87969573D+05 0.11263190D+01  1  2  6  2  7  2        2 0.943216800558D-02 0.100000000000D+01
0.211687646921D-05 0.000000000000D+00 0.000000000000D+00 0.971298819630D-07 0.000000000000D+00  7 -2 21 23 -11 11 23 -2 2 0.83562889D-02 0.33742339D+00 0.91658137D+05 0.91658137D+05 0.91658137D+05 0.11248396D+01  1  2 12  4  7  2        2 0.259828249041D-04 0.100000000000D+01
-.221842703188D-05 0.000000000000D+00 -.497991030867D-07 0.971298819630D-07 0.000000000000D+00  7 -2 21 23 -11 11 23 -2 2 0.83562889D-02 0.33737874D+00 0.87969573D+05 0.87969573D+05 0.87969573D+05 0.11263190D+01  1  2  5  4  7  2        2 -.274134626417D-04 0.100000000000D+01
  </mgrwgt>
  </event>
  <event>
  8     66 0.27870365E-05 0.23109371E+03 0.75467711E-02 0.98104709E-01
       -2 -1    0    0    0  501 0.00000000E+00 0.00000000E+00 0.41245880E+02 0.41247121E+02 0.32000000E+00 0.0000E+00 0.9000E+01
        2 -1    0    0  501    0 0.00000000E+00 0.00000000E+00 -.16017646E+04 0.16017646E+04 0.32000000E+00 0.0000E+00 0.9000E+01
       25  2    1    2    0    0 0.13972800E+03 -.13546243E+02 -.12162703E+04 0.12602199E+04 0.29855185E+03 0.0000E+00 0.0000E+00
       23  2    3    3    0    0 0.61885341E+02 -.10090078E+03 -.87942989E+03 0.89216142E+03 0.92435369E+02 0.0000E+00 0.0000E+00
       23  1    1    2    0    0 -.13972800E+03 0.13546243E+02 -.34424839E+03 0.38279187E+03 0.91188000E+02 0.0000E+00 0.9000E+01
      -13  1    4    4    0    0 -.23801459E+01 -.78277462E+02 -.56746761E+03 0.57284598E+03 0.10565837E+00 0.0000E+00 0.9000E+01
       13  1    4    4    0    0 0.64265487E+02 -.22623322E+02 -.31196228E+03 0.31931543E+03 0.10565837E+00 0.0000E+00 0.9000E+01
       23  1    3    3    0    0 0.77842661E+02 0.87354542E+02 -.33684043E+03 0.36805845E+03 0.91188000E+02 0.0000E+00 0.9000E+01
#aMCatNLO 1  0  0  2  2 0.24134840D+03 0.00000000D+00  -5  7  0 0.00000000D+00 0.00000000D+00 0.00000000D+00 0.00000000D+00 0.00000000D+00
  <mgrwgt>
 0.5862935354D-03    3    2    0
 0.257035475136383D+03 0.000000000000000D+00 0.000000000000000D+00 0.257035475136383D+03
 0.257035475136383D+03 0.000000000000000D+00 0.000000000000000D+00 -.257035475136383D+03
 0.178429641878129D+03 -.139728004284255D+03 0.135462430599291D+02 0.617613946932689D+02
 0.108251369570204D+03 -.238023038294258D+01 -.782775340018721D+02 -.747350064409893D+02
 0.735618303882197D+02 0.642655721054439D+02 -.226232505086324D+02 -.277392802438863D+02
 0.153828108436214D+03 0.778426625617540D+02 0.873545414505755D+02 0.407128919916068D+02
 0.000000000000000D+00 -.000000000000000D+00 -.000000000000000D+00 0.000000000000000D+00
 0.786837185763454D+03 0.000000000000000D+00 0.000000000000000D+00 0.786837185763454D+03
 0.312910842775951D+03 0.000000000000000D+00 0.000000000000000D+00 -.312910842775951D+03
 0.186005622539754D+03 -.118356765789421D+03 0.919785104783271D+02 0.617613946932689D+02
 0.838367512336383D+02 0.888421475323433D+01 -.369371140980808D+02 -.747350064409893D+02
 0.789498880215296D+02 0.732091750594498D+02 0.101996979013127D+02 -.277392802438863D+02
 0.219114411914741D+03 0.997127841593871D+02 0.167617705704397D+03 0.407128919916068D+02
 0.531841354829743D+03 -.634494081826498D+02 -.232858799985956D+03 0.473926342987503D+03
0.327127988197D-05 0.000000000000D+00 0.000000000000D+00 0.159239174005D-07 0.000000000000D+00  7 -2 2 23 -13 13 23 21 0 0.63456179D-02 0.24642542D+00 0.53404302D+05 0.53404302D+05 0.53404302D+05 0.11447877D+01  1  2  2  2  7  2        2 0.579355248470D-03 0.100000000000D+01
-.179236648277D-06 0.000000000000D+00 -.125625760946D-07 0.159239174005D-07 0.000000000000D+00  7 -2 2 23 -13 13 23 21 2 0.63456179D-02 0.24642542D+00 0.53404302D+05 0.53404302D+05 0.53404302D+05 0.11447877D+01  1  2  3  2  7  2        2 -.416010163322D-04 0.100000000000D+01
0.209130035807D-06 0.000000000000D+00 0.000000000000D+00 0.159239174005D-07 0.000000000000D+00  7 -2 2 23 -13 13 23 21 2 0.63456179D-02 0.24642542D+00 0.53404302D+05 0.53404302D+05 0.53404302D+05 0.11447877D+01  1  2 15  2  7  2        2 0.485393033109D-04 0.100000000000D+01
  </mgrwgt>
  </event>
  <event>
  8     66 0.27870365E-05 0.91746588E+02 0.75467711E-02 0.99221931E-01
       -2 -1    0    0    0  501 0.00000000E+00 0.00000000E+00 0.50105493E+03 0.50105503E+03 0.32000000E+00 0.0000E+00 0.9000E+01
        2 -1    0    0  501    0 0.00000000E+00 0.00000000E+00 -.66738394E+03 0.66738402E+03 0.32000000E+00 0.0000E+00 0.9000E+01
       25  2    1    2    0    0 0.96541025E+02 -.27514984E+03 0.36537831E+03 0.55520538E+03 0.29953982E+03 0.0000E+00 0.0000E+00
       23  2    3    3    0    0 0.79277602E+01 -.18604494E+03 0.65150103E+02 0.21720505E+03 0.90873149E+02 0.0000E+00 0.0000E+00
       23  1    1    2    0    0 -.96541025E+02 0.27514984E+03 -.53170732E+03 0.61323367E+03 0.91188000E+02 0.0000E+00 0.9000E+01
      -11  1    4    4    0    0 -.16492240E+02 0.18439803E+01 0.11817654E+02 0.20372805E+02 0.51099893E-03 0.0000E+00 0.9000E+01
       11  1    4    4    0    0 0.24420000E+02 -.18788892E+03 0.53332448E+02 0.19683225E+03 0.51099893E-03 0.0000E+00 0.9000E+01
       23  1    3    3    0    0 0.88613265E+02 -.89104897E+02 0.30022821E+03 0.33800033E+03 0.91188000E+02 0.0000E+00 0.9000E+01
#aMCatNLO 1  0  0  2  1 0.13464866D+02 0.00000000D+00  -5  7  0 0.00000000D+00 0.00000000D+00 0.00000000D+00 0.00000000D+00 0.00000000D+00
  <mgrwgt>
 0.7738656546D-03    9    2    0
 0.578269938061396D+03 0.000000000000000D+00 0.000000000000000D+00 0.578269938061396D+03
 0.578269938061396D+03 0.000000000000000D+00 0.000000000000000D+00 -.578269938061396D+03
 0.543074934072672D+03 -.965410250412637D+02 0.275149839583842D+03 -.448984998563432D+03
 0.222819815020879D+02 -.164922398605164D+02 0.184398027178076D+01 0.148691782153508D+02
 0.206527439666855D+03 0.244200000412217D+02 -.187888923280550D+03 0.821888036280411D+02
 0.384655520881177D+03 0.886132648605584D+02 -.891048965750720D+02 0.351927016720041D+03
 0.000000000000000D+00 0.000000000000000D+00 0.000000000000000D+00 -.000000000000000D+00
 0.579651679089146D+03 0.000000000000000D+00 0.000000000000000D+00 0.579651679089146D+03
 0.612069953690684D+03 0.000000000000000D+00 0.000000000000000D+00 -.612069953690684D+03
 0.543244579997771D+03 -.102585205694929D+03 0.273291362817192D+03 -.448984998563432D+03
 0.224607107663188D+02 -.167411840353185D+02 0.176743441857535D+01 0.148691782153508D+02
 0.206912588617883D+03 0.221196582098888D+02 -.188596236991681D+03 0.821888036280411D+02
 0.384000375561929D+03 0.843365350049018D+02 -.904199140322613D+02 0.351927016720041D+03
 0.351033778359295D+02 0.128701965154571D+02 0.395735378817486D+01 -.324182746015386D+02
0.429998756776D-04 0.000000000000D+00 0.000000000000D+00 0.179963202965D-05 0.000000000000D+00  7 -2 2 23 -11 11 23 21 0 0.77085388D-01 0.10267447D+00 0.11117221D+06 0.11117221D+06 0.11117221D+06 0.11179670D+01  1  2  2  2  7  2        2 0.363891346144D-03 0.100000000000D+01
-.150826960680D-05 0.000000000000D+00 -.165130844729D-06 0.179963202965D-05 0.000000000000D+00  7 -2 2 23 -11 11 23 21 2 0.77085388D-01 0.10267447D+00 0.11117221D+06 0.11117221D+06 0.11117221D+06 0.11179670D+01  1  2  3  2  7  2        2 -.159529659765D-04 0.100000000000D+01
0.253160161134D-05 0.000000000000D+00 0.000000000000D+00 0.179963202965D-05 0.000000000000D+00  7 -2 2 23 -11 11 23 21 2 0.77085388D-01 0.10267447D+00 0.11117221D+06 0.11117221D+06 0.11117221D+06 0.11179670D+01  1  2 15  2  7  2        2 0.267767474659D-04 0.100000000000D+01
0.776812254076D-03 0.000000000000D+00 0.000000000000D+00 0.179963202965D-05 0.000000000000D+00  7 -2 2 23 -11 11 23 21 2 0.77085388D-01 0.10879446D+00 0.11547932D+06 0.11547932D+06 0.11547932D+06 0.11166287D+01  1  2 12  2  7  2        2 0.763881423552D-02 0.100000000000D+01
-.785969512354D-03 0.000000000000D+00 0.000000000000D+00 0.179963202965D-05 0.000000000000D+00  7 -2 2 23 -11 11 23 21 2 0.77085388D-01 0.10267447D+00 0.11117221D+06 0.11117221D+06 0.11117221D+06 0.11179670D+01  1  2  4  2  7  2        2 -.831319866995D-02 0.100000000000D+01
-.152708019841D-02 0.000000000000D+00 -.950444466190D-04 0.179963202965D-05 0.000000000000D+00  7 -2 2 23 -11 11 23 21 2 0.77085388D-01 0.10880009D+00 0.11117221D+06 0.11117221D+06 0.11117221D+06 0.11179670D+01  1  2  5  2  7  2        2 -.150696770610D-01 0.100000000000D+01
0.153017733367D-02 0.000000000000D+00 0.948850872945D-04 0.179963202965D-05 0.000000000000D+00  7 -2 2 23 -11 11 23 21 2 0.77085388D-01 0.10267447D+00 0.11117221D+06 0.11117221D+06 0.11117221D+06 0.11179670D+01  1  2  6  2  7  2        2 0.161846839796D-01 0.100000000000D+01
0.119880032339D-04 0.000000000000D+00 0.000000000000D+00 0.179963202965D-05 0.000000000000D+00  7 -2 21 23 -11 11 23 -2 2 0.77085388D-01 0.10879446D+00 0.11547932D+06 0.11547932D+06 0.11547932D+06 0.11166287D+01  1  2 12  4  7  2        2 0.144144154046D-03 0.100000000000D+01
-.153585603975D-04 0.000000000000D+00 -.948629979725D-06 0.179963202965D-05 0.000000000000D+00  7 -2 21 23 -11 11 23 -2 2 0.77085388D-01 0.10880009D+00 0.11117221D+06 0.11117221D+06 0.11117221D+06 0.11179670D+01  1  2  5  4  7  2        2 -.185616111273D-03 0.100000000000D+01
  </mgrwgt>
  </event>
  <event>
  8     66 0.27870365E-05 0.47177613E+03 0.75467711E-02 0.93644710E-01
       -2 -1    0    0    0  501 0.00000000E+00 0.00000000E+00 0.15137517E+03 0.15137551E+03 0.32000000E+00 0.0000E+00 0.9000E+01
        2 -1    0    0  501    0 0.00000000E+00 0.00000000E+00 -.22494503E+04 0.22494503E+04 0.32000000E+00 0.0000E+00 0.9000E+01
       25  2    1    2    0    0 -.37964928E+03 0.36245613E+03 -.84608565E+03 0.10402006E+04 0.30107871E+03 0.0000E+00 0.0000E+00
       23  2    3    3    0    0 -.23856623E+03 0.14054253E+03 -.25882987E+03 0.39032781E+03 0.93256883E+02 0.0000E+00 0.0000E+00
       23  1    1    2    0    0 0.37964928E+03 -.36245613E+03 -.12519894E+04 0.13606252E+04 0.91188000E+02 0.0000E+00 0.9000E+01
      -11  1    4    4    0    0 -.81505526E+02 0.40198531E+02 -.31102010E+02 0.96054191E+02 0.51099893E-03 0.0000E+00 0.9000E+01
       11  1    4    4    0    0 -.15706071E+03 0.10034399E+03 -.22772786E+03 0.29427362E+03 0.51099893E-03 0.0000E+00 0.9000E+01
       23  1    3    3    0    0 -.14108304E+03 0.22191361E+03 -.58725578E+03 0.64987281E+03 0.91188000E+02 0.0000E+00 0.9000E+01
#aMCatNLO 1  0  0  2  1 0.29026771D+01 0.00000000D+00  -5  7  0 0.00000000D+00 0.00000000D+00 0.00000000D+00 0.00000000D+00 0.00000000D+00
  <mgrwgt>
 0.6301291378D-03   10    2    0
 0.583533496922190D+03 0.000000000000000D+00 0.000000000000000D+00 0.583533496922190D+03
 0.583533496922190D+03 0.000000000000000D+00 0.000000000000000D+00 -.583533496922190D+03
 0.548259970613419D+03 0.379649279324839D+03 -.362456130503118D+03 -.129482516973779D+03
 0.141684262041924D+03 -.815055255011951D+02 0.401985314889840D+02 0.108698470501051D+03
 0.195969502152400D+03 -.157060709129886D+03 0.100343993877569D+03 0.605562739456067D+02
 0.281153259036637D+03 -.141083044693758D+03 0.221913605136565D+03 -.397722274728785D+02
 0.000000000000000D+00 0.000000000000000D+00 -.000000000000000D+00 -.000000000000000D+00
 0.584638712701901D+03 0.000000000000000D+00 0.000000000000000D+00 0.584638712701901D+03
 0.585444276564080D+03 0.000000000000000D+00 0.000000000000000D+00 -.585444276564080D+03
 0.547170658842196D+03 0.378309249773550D+03 -.362211081950444D+03 -.129482516973779D+03
 0.141902095299512D+03 -.818524339123365D+02 0.402619699437394D+02 0.108698470501051D+03
 0.196399264629977D+03 -.157540689996180D+03 0.100431767028902D+03 0.605562739456067D+02
 0.281598584771891D+03 -.141771453508035D+03 0.222039493094352D+03 -.397722274728785D+02
 0.301238572240610D+01 0.285532764300200D+01 -.522148116548947D+00 -.805563862179235D+00
0.156836850022D-04 0.000000000000D+00 0.000000000000D+00 0.885253009634D-07 0.000000000000D+00  7 -2 2 23 -11 11 23 21 0 0.23288515D-01 0.34606930D+00 0.29611807D+06 0.29611807D+06 0.29611807D+06 0.10849706D+01  1  2  2  2  7  2        2 0.152360288892D-03 0.100000000000D+01
-.866147758966D-06 0.000000000000D+00 -.602294800174D-07 0.885253009634D-07 0.000000000000D+00  7 -2 2 23 -11 11 23 21 2 0.23288515D-01 0.34606930D+00 0.29611807D+06 0.29611807D+06 0.29611807D+06 0.10849706D+01  1  2  3  2  7  2        2 -.990493428003D-05 0.100000000000D+01
0.953476741345D-06 0.000000000000D+00 0.000000000000D+00 0.885253009634D-07 0.000000000000D+00  7 -2 2 23 -11 11 23 21 2 0.23288515D-01 0.34606930D+00 0.29611807D+06 0.29611807D+06 0.29611807D+06 0.10849706D+01  1  2 15  2  7  2        2 0.109035951000D-04 0.100000000000D+01
-.513488475994D-03 0.000000000000D+00 0.000000000000D+00 0.885253009634D-07 0.000000000000D+00  7 -2 2 23 -11 11 23 21 2 0.23288515D-01 0.34606930D+00 0.29611807D+06 0.29611807D+06 0.29611807D+06 0.10849706D+01  1  2  4  2  7  2        2 -.587205768949D-02 0.100000000000D+01
-.401241782222D-02 0.000000000000D+00 -.347998032525D-03 0.885253009634D-07 0.000000000000D+00  7 -2 2 23 -11 11 23 21 2 0.23288515D-01 0.34748720D+00 0.29611807D+06 0.29611807D+06 0.29611807D+06 0.10849706D+01  1  2  5  2  7  2        2 -.453415529442D-01 0.100000000000D+01
0.401381007492D-02 0.000000000000D+00 0.347995123574D-03 0.885253009634D-07 0.000000000000D+00  7 -2 2 23 -11 11 23 21 2 0.23288515D-01 0.34606930D+00 0.29611807D+06 0.29611807D+06 0.29611807D+06 0.10849706D+01  1  2  6  2  7  2        2 0.459003958541D-01 0.100000000000D+01
0.513494479036D-03 0.000000000000D+00 0.000000000000D+00 0.885253009634D-07 0.659427212829D-07  7 -2 2 23 -11 11 23 21 2 0.23332624D-01 0.34720250D+00 0.29776510D+06 0.29776510D+06 0.29776510D+06 0.10847922D+01  1  2 11  2  7  2        2 0.579441168380D-02 0.100000000000D+01
0.590308561898D-08 0.000000000000D+00 0.000000000000D+00 0.885253009634D-07 0.000000000000D+00  7 -2 21 23 -11 11 23 -2 2 0.23288515D-01 0.34752938D+00 0.29776510D+06 0.29776510D+06 0.29776510D+06 0.10847922D+01  1  2 12  4  7  2        2 0.100428692258D-07 0.100000000000D+01
-.305517197175D-05 0.000000000000D+00 -.265164109261D-06 0.885253009634D-07 0.000000000000D+00  7 -2 21 23 -11 11 23 -2 2 0.23288515D-01 0.34748720D+00 0.29611807D+06 0.29611807D+06 0.29611807D+06 0.10849706D+01  1  2  5  4  7  2        2 -.520571143936D-05 0.100000000000D+01
0.451189711169D-06 0.000000000000D+00 0.000000000000D+00 0.885253009634D-07 0.402272943860D-10  7 -2 21 23 -11 11 23 -2 2 0.23332624D-01 0.34720250D+00 0.29776510D+06 0.29776510D+06 0.29776510D+06 0.10847922D+01  1  2 11  4  7  2        2 0.768952537238D-06 0.100000000000D+01
  </mgrwgt>
  </event>
  <event>
  9     66 0.27870365E-05 0.31205945E+03 0.75467711E-02 0.99513983E-01
       -2 -1    0    0    0  502 0.00000000E+00 0.00000000E+00 0.18529761E+03 0.18529789E+03 0.32000000E+00 0.0000E+00 0.9000E+01
        2 -1    0    0  501    0 0.00000000E+00 0.00000000E+00 -.86666877E+03 0.86666882E+03 0.32000000E+00 0.0000E+00 0.9000E+01
       25  2    1    2    0    0 -.13369320E+03 -.21993558E+03 -.60330880E+03 0.72116041E+03 0.29974205E+03 0.0000E+00 0.0000E+00
       23  2    3    3    0    0 0.93306964E+01 -.18397710E+03 -.23082139E+03 0.31029429E+03 0.95233379E+02 0.0000E+00 0.0000E+00
       23  1    1    2    0    0 0.13614814E+03 0.17919283E+03 -.12010955E+00 0.24282021E+03 0.91188000E+02 0.0000E+00 0.9000E+01
      -13  1    4    4    0    0 -.98705952E+01 -.18722404E+03 -.20296960E+03 0.27630950E+03 0.10565837E+00 0.0000E+00 0.9000E+01
       13  1    4    4    0    0 0.19201292E+02 0.32469476E+01 -.27851784E+02 0.33984780E+02 0.10565837E+00 0.0000E+00 0.9000E+01
       23  1    3    3    0    0 -.14302389E+03 -.35958482E+02 -.37248741E+03 0.41086612E+03 0.91188000E+02 0.0000E+00 0.9000E+01
       21  1    1    2  501  502 -.24549408E+01 0.40742746E+02 -.77942242E+02 0.87986100E+02 0.75000000E+00 0.0000E+00 0.9000E+01
#aMCatNLO 2  0  0  1  1 0.40816640D+02 0.00000000D+00  -5  7  0 0.00000000D+00 0.00000000D+00 0.00000000D+00 0.00000000D+00 0.00000000D+00
  <mgrwgt>
 0.1827378114D-03    1    2    0
 0.375321919721731D+03 0.000000000000000D+00 0.000000000000000D+00 0.375321919721731D+03
 0.375321919721731D+03 0.000000000000000D+00 0.000000000000000D+00 -.375321919721731D+03
 0.321015177276921D+03 0.135114964800985D+03 0.196339583251021D+03 0.194756789442055D+03
 0.181544999053796D+03 -.104800125913799D+02 -.177110783956698D+03 -.384776067833120D+02
 0.213671243859507D+02 0.191317347471399D+02 0.440214220033943D+01 -.843515703100788D+01
 0.226716538726793D+03 -.143766686956745D+03 -.236309414946627D+02 -.147844025627735D+03
 0.000000000000000D+00 -.000000000000000D+00 0.000000000000000D+00 -.000000000000000D+00
 0.386344367165964D+03 0.000000000000000D+00 0.000000000000000D+00 0.386344367165964D+03
 0.415664243500543D+03 0.000000000000000D+00 0.000000000000000D+00 -.415664243500543D+03
 0.311274548727108D+03 0.136148136635241D+03 0.179192832441031D+03 0.194756789442055D+03
 0.191391967181513D+03 -.987062744147038D+01 -.187224276181669D+03 -.384776067833120D+02
 0.212223230693811D+02 0.192013266062793D+02 0.324718014320312D+01 -.843515703100788D+01
 0.227863894154919D+03 -.143023895036615D+03 -.359584823120361D+02 -.147844025627735D+03
 0.502558775335856D+02 -.245494076343558D+01 0.407427459094715D+02 -.293198763345793D+02
0.344851419192D-05 0.000000000000D+00 0.000000000000D+00 0.657732074016D-07 0.264254465225D-09  7 -2 2 23 -13 13 23 21 2 0.28507147D-01 0.13333273D+00 0.11021905D+06 0.11021905D+06 0.11021905D+06 0.11182708D+01  1  2  1  1  7  1       -2 0.182737811353D-03 0.100000000000D+01
  </mgrwgt>
  </event>
  <event>
  8     66 0.27870365E-05 0.10290678E+04 0.75467711E-02 0.83533656E-01
       -2 -1    0    0    0  501 0.00000000E+00 0.00000000E+00 0.95691104E+03 0.95691109E+03 0.32000000E+00 0.0000E+00 0.9000E+01
        2 -1    0    0  501    0 0.00000000E+00 0.00000000E+00 -.15367224E+04 0.15367225E+04 0.32000000E+00 0.0000E+00 0.9000E+01
       25  2    1    2    0    0 -.82701011E+03 -.57845975E+03 0.35880060E+03 0.11123772E+04 0.30013961E+03 0.0000E+00 0.0000E+00
       23  2    3    3    0    0 -.38286654E+03 -.41011979E+03 0.17183323E+03 0.59384669E+03 0.91335662E+02 0.0000E+00 0.0000E+00
       23  1    1    2    0    0 0.82701011E+03 0.57845975E+03 -.93861200E+03 0.13812564E+04 0.91188000E+02 0.0000E+00 0.9000E+01
      -11  1    4    4    0    0 -.14915512E+03 -.16655240E+03 0.22421528E+02 0.22469908E+03 0.51099893E-03 0.0000E+00 0.9000E+01
       11  1    4    4    0    0 -.23371143E+03 -.24356739E+03 0.14941170E+03 0.36914761E+03 0.51099893E-03 0.0000E+00 0.9000E+01
       23  1    3    3    0    0 -.44414356E+03 -.16833996E+03 0.18696737E+03 0.51853052E+03 0.91188000E+02 0.0000E+00 0.9000E+01
#aMCatNLO 1  0  0  2  1 0.84773810D+03 0.00000000D+00  -5  7  0 0.00000000D+00 0.00000000D+00 0.00000000D+00 0.00000000D+00 0.00000000D+00
  <mgrwgt>
 0.6853196599D-03    3    2    0
 0.121264453876607D+04 0.000000000000000D+00 0.000000000000000D+00 0.121264453876607D+04
 0.121264453876607D+04 0.000000000000000D+00 0.000000000000000D+00 -.121264453876607D+04
 0.119578705696944D+04 0.827010107306016D+03 0.578459746609025D+03 -.634846468241214D+03
 0.236391376991533D+03 -.149155116903098D+03 -.166552401858405D+03 0.767719457404392D+02
 0.415269870789397D+03 -.233711426671757D+03 -.243567386320205D+03 0.241873857515934D+03
 0.577840772781763D+03 -.444143563731161D+03 -.168339958430415D+03 0.316200664984840D+03
 0.000000000000000D+00 -.000000000000000D+00 -.000000000000000D+00 0.000000000000000D+00
 0.312785468910153D+04 0.000000000000000D+00 0.000000000000000D+00 0.312785468910153D+04
 0.138206118165227D+04 0.000000000000000D+00 0.000000000000000D+00 -.138206118165227D+04
 0.160045832359133D+04 0.128311136507413D+04 0.709751210487185D+03 -.634846468241214D+03
 0.184210785420978D+03 -.805498447656921D+02 -.146803965616953D+03 0.767719457404392D+02
 0.337852790820204D+03 -.110868061206842D+03 -.208206191837798D+03 0.241873857515934D+03
 0.446658320412752D+03 -.277035437871835D+03 -.120236888999370D+03 0.316200664984840D+03
 0.194073565050855D+04 -.814658021229761D+03 -.234504164033063D+03 0.174579350744926D+04
0.153294416155D-02 0.000000000000D+00 0.000000000000D+00 0.835946189920D-05 0.000000000000D+00  7 -2 2 23 -11 11 23 21 0 0.14721709D+00 0.23641884D+00 0.10589806D+07 0.10589806D+07 0.10589806D+07 0.10462113D+01  1  2  2  2  7  2        2 0.679537803489D-03 0.100000000000D+01
-.823734755874D-04 0.000000000000D+00 -.588690921382D-05 0.835946189920D-05 0.000000000000D+00  7 -2 2 23 -11 11 23 21 2 0.14721709D+00 0.23641884D+00 0.10589806D+07 0.10589806D+07 0.10589806D+07 0.10462113D+01  1  2  3  2  7  2        2 -.399680952895D-04 0.100000000000D+01
0.942897704857D-04 0.000000000000D+00 0.000000000000D+00 0.835946189920D-05 0.000000000000D+00  7 -2 2 23 -11 11 23 21 2 0.14721709D+00 0.23641884D+00 0.10589806D+07 0.10589806D+07 0.10589806D+07 0.10462113D+01  1  2 15  2  7  2        2 0.457499517257D-04 0.100000000000D+01
  </mgrwgt>
  </event>
  <event>
  8     66 0.27870365E-05 0.80202561E+02 0.75467711E-02 0.10209650E+00
       -2 -1    0    0    0  501 0.00000000E+00 0.00000000E+00 0.32677913E+03 0.32677929E+03 0.32000000E+00 0.0000E+00 0.9000E+01
        2 -1    0    0  501    0 0.00000000E+00 0.00000000E+00 -.63731484E+03 0.63731492E+03 0.32000000E+00 0.0000E+00 0.9000E+01
       25  2    1    2    0    0 -.10844606E+03 -.22785703E+02 0.23958255E+03 0.39556533E+03 0.29460548E+03 0.0000E+00 0.0000E+00
       23  2    3    3    0    0 -.14402108E+03 -.89094984E+02 0.18029093E+03 0.26330327E+03 0.90243033E+02 0.0000E+00 0.0000E+00
       23  1    1    2    0    0 0.10844606E+03 0.22785703E+02 -.55011826E+03 0.56852888E+03 0.91188000E+02 0.0000E+00 0.9000E+01
      -11  1    4    4    0    0 -.13229749E+03 -.88246896E+02 0.19020411E+03 0.24792689E+03 0.51099893E-03 0.0000E+00 0.9000E+01
       11  1    4    4    0    0 -.11723598E+02 -.84808870E+00 -.99131800E+01 0.15376382E+02 0.51099893E-03 0.0000E+00 0.9000E+01
       23  1    3    3    0    0 0.35575023E+02 0.66309281E+02 0.59291626E+02 0.13226206E+03 0.91188000E+02 0.0000E+00 0.9000E+01
#aMCatNLO 1  0  0  1  2 0.11022204D+03 0.00000000D+00  -5  7  0 0.00000000D+00 0.00000000D+00 0.00000000D+00 0.00000000D+00 0.00000000D+00
  <mgrwgt>
 0.8839283506D-02    9    2    0
 0.456356554836333D+03 0.000000000000000D+00 0.000000000000000D+00 0.456356554836333D+03
 0.456356554836333D+03 0.000000000000000D+00 0.000000000000000D+00 -.456356554836333D+03
 0.413365422808633D+03 0.108446059920991D+03 0.227857028205501D+02 -.387654466328386D+03
 0.326597748080647D+03 -.132297485334125D+03 -.882468955635213D+02 0.285264701372283D+03
 0.128691969694651D+02 -.117235976114751D+02 -.848088700705842D+00 -.523967892516712D+01
 0.159880741813921D+03 0.355750230246087D+02 0.663092814436770D+02 0.107629443881271D+03
 0.000000000000000D+00 0.000000000000000D+00 -.000000000000000D+00 0.000000000000000D+00
 0.515388583767690D+03 0.000000000000000D+00 0.000000000000000D+00 0.515388583767690D+03
 0.514184429634559D+03 0.000000000000000D+00 0.000000000000000D+00 -.514184429634559D+03
 0.404162105206263D+03 0.603956554337056D+02 0.332886689602510D+02 -.387654466328386D+03
 0.342303076104925D+03 -.171612314575459D+03 -.796533712276519D+02 0.285264701372283D+03
 0.143239489906512D+02 -.133218822170567D+02 -.498732035072141D+00 -.523967892516712D+01
 0.158555265804505D+03 0.168588594153717D+02 0.704003028357016D+02 0.107629443881271D+03
 0.110228617295904D+03 0.107679681943438D+03 -.235368685332285D+02 0.120415413313069D+01
0.325055708058D-03 0.000000000000D+00 0.000000000000D+00 0.128625102863D-07 0.000000000000D+00  7 -2 2 23 -11 11 23 21 0 0.50273731D-01 0.98048455D-01 0.46768401D+05 0.46768401D+05 0.46768401D+05 0.11498565D+01  1  2  2  1  7  1       -2 0.718133006417D-02 0.100000000000D+01
-.581341488669D-05 0.000000000000D+00 -.124829950808D-05 0.128625102863D-07 0.000000000000D+00  7 -2 2 23 -11 11 23 21 2 0.50273731D-01 0.98048455D-01 0.46768401D+05 0.46768401D+05 0.46768401D+05 0.11498565D+01  1  2  3  1  7  1       -2 -.169810961912D-03 0.100000000000D+01
0.194109417135D-04 0.000000000000D+00 0.000000000000D+00 0.128625102863D-07 0.000000000000D+00  7 -2 2 23 -11 11 23 21 2 0.50273731D-01 0.98048455D-01 0.46768401D+05 0.46768401D+05 0.46768401D+05 0.11498565D+01  1  2 15  1  7  1       -2 0.566997323989D-03 0.100000000000D+01
0.147322994551D-03 0.000000000000D+00 0.000000000000D+00 0.128625102863D-07 0.000000000000D+00  7 -2 2 23 -11 11 23 21 2 0.59575763D-01 0.98048455D-01 0.73850104D+05 0.73850104D+05 0.73850104D+05 0.11326882D+01  1  2 12  1  7  1       -2 0.294883630129D-02 0.100000000000D+01
-.201261775285D-03 0.000000000000D+00 0.000000000000D+00 0.128625102863D-07 0.000000000000D+00  7 -2 2 23 -11 11 23 21 2 0.50273731D-01 0.98048455D-01 0.46768401D+05 0.46768401D+05 0.46768401D+05 0.11498565D+01  1  2  4  1  7  1       -2 -.587889499088D-02 0.100000000000D+01
-.353068427756D-03 0.000000000000D+00 -.203599897874D-03 0.128625102863D-07 0.000000000000D+00  7 -2 2 23 -11 11 23 21 2 0.63260784D-01 0.98048455D-01 0.46768401D+05 0.46768401D+05 0.46768401D+05 0.11498565D+01  1  2  5  1  7  1       -2 -.650852803998D-02 0.100000000000D+01
0.394646860292D-03 0.000000000000D+00 0.198340606826D-03 0.128625102863D-07 0.000000000000D+00  7 -2 2 23 -11 11 23 21 2 0.50273731D-01 0.98048455D-01 0.46768401D+05 0.46768401D+05 0.46768401D+05 0.11498565D+01  1  2  6  1  7  1       -2 0.115277103506D-01 0.100000000000D+01
0.371058522681D-05 0.000000000000D+00 0.000000000000D+00 0.128625102863D-07 0.000000000000D+00  7 21 2 23 -11 11 23 2 2 0.59575763D-01 0.98048455D-01 0.73850104D+05 0.73850104D+05 0.73850104D+05 0.11326882D+01  1  2 12  3  7  1       -2 0.782616830899D-03 0.100000000000D+01
-.825610067879D-05 0.000000000000D+00 -.647218818537D-05 0.128625102863D-07 0.000000000000D+00  7 21 2 23 -11 11 23 2 2 0.63260784D-01 0.98048455D-01 0.46768401D+05 0.46768401D+05 0.46768401D+05 0.11498565D+01  1  2  5  3  7  1       -2 -.161097337254D-02 0.100000000000D+01
  </mgrwgt>
  </event>
  <event>
  8     66 0.27870365E-05 0.18797022E+03 0.75467711E-02 0.89929033E-01
       -2 -1    0    0    0  501 0.00000000E+00 0.00000000E+00 0.53283318E+03 0.53283328E+03 0.32000000E+00 0.0000E+00 0.9000E+01
        2 -1    0    0  501    0 0.00000000E+00 0.00000000E+00 -.62066113E+03 0.62066121E+03 0.32000000E+00 0.0000E+00 0.9000E+01
       25  2    1    2    0    0 0.10037693E+03 0.59065156E+02 0.47441061E+03 0.57212398E+03 0.29781907E+03 0.0000E+00 0.0000E+00
       23  2    3    3    0    0 -.23161443E+01 0.49587413E+02 0.31049983E+02 0.10788310E+03 0.90611181E+02 0.0000E+00 0.0000E+00
       23  1    1    2    0    0 -.10037693E+03 -.59065156E+02 -.56223856E+03 0.58137051E+03 0.91188000E+02 0.0000E+00 0.9000E+01
      -11  1    4    4    0    0 0.98523259E+01 -.18625683E+02 0.32319483E+02 0.38581516E+02 0.51099893E-03 0.0000E+00 0.9000E+01
       11  1    4    4    0    0 -.12168470E+02 0.68213096E+02 -.12694999E+01 0.69301586E+02 0.51099893E-03 0.0000E+00 0.9000E+01
       23  1    3    3    0    0 0.10269308E+03 0.94777428E+01 0.44336062E+03 0.46424088E+03 0.91188000E+02 0.0000E+00 0.9000E+01
#aMCatNLO 1  0  0  1  2 0.71251849D+03 0.00000000D+00  -5  7  0 0.00000000D+00 0.00000000D+00 0.00000000D+00 0.00000000D+00 0.00000000D+00
  <mgrwgt>
 0.8646139709D-03    5    2    0
 0.575072990900660D+03 0.000000000000000D+00 0.000000000000000D+00 0.575072990900660D+03
 0.575072990900660D+03 0.000000000000000D+00 0.000000000000000D+00 -.575072990900660D+03
 0.540129188394480D+03 -.100376934129456D+03 -.590651562225304D+02 -.519480574446109D+03
 0.411618350996882D+02 0.985232589838768D+01 -.186256828506570D+02 0.353597551110386D+02
 0.694064065301503D+02 -.121684701721384D+02 0.682130963193295D+02 0.401884207554154D+01
 0.499448551777002D+03 0.102693078403206D+03 0.947774275385789D+01 0.480101977259529D+03
 0.000000000000000D+00 -.000000000000000D+00 0.000000000000000D+00 0.000000000000000D+00
 0.194014396021168D+04 0.000000000000000D+00 0.000000000000000D+00 0.194014396021168D+04
 0.776922123758791D+03 0.000000000000000D+00 0.000000000000000D+00 -.776922123758791D+03
 0.616484071929537D+03 0.135069769836802D+03 -.289194484124777D+03 -.519480574446109D+03
 0.608506651641111D+02 0.306185645145176D+02 -.389229325266284D+02 0.353597551110386D+02
 0.467169235868500D+02 0.114702483758178D+02 0.451082393802783D+02 0.401884207554154D+01
 0.628914851008408D+03 0.332389082396408D+03 -.215030760148620D+03 0.480101977259529D+03
 0.136409957228157D+04 -.509547665123546D+03 0.498039937419747D+03 0.116322183645289D+04
0.910350756765D-04 0.000000000000D+00 0.000000000000D+00 0.183067736864D-06 0.000000000000D+00  7 -2 2 23 -11 11 23 21 0 0.81974349D-01 0.95486341D-01 0.35332805D+05 0.35332805D+05 0.35332805D+05 0.11608000D+01  1  2  2  1  7  1       -2 0.757162328798D-03 0.100000000000D+01
0.263144762868D-05 0.000000000000D+00 -.349598660684D-06 0.183067736864D-06 0.000000000000D+00  7 -2 2 23 -11 11 23 21 2 0.81974349D-01 0.95486341D-01 0.35332805D+05 0.35332805D+05 0.35332805D+05 0.11608000D+01  1  2  3  1  7  1       -2 0.294910184608D-04 0.100000000000D+01
0.534907711366D-05 0.000000000000D+00 0.000000000000D+00 0.183067736864D-06 0.000000000000D+00  7 -2 2 23 -11 11 23 21 2 0.81974349D-01 0.95486341D-01 0.35332805D+05 0.35332805D+05 0.35332805D+05 0.11608000D+01  1  2 15  1  7  1       -2 0.599478895906D-04 0.100000000000D+01
0.352461665215D-04 0.000000000000D+00 -.304904943276D-04 0.183067736864D-06 0.000000000000D+00  7 -2 2 23 -11 11 23 21 2 0.31347043D+00 0.95486341D-01 0.35332805D+05 0.35332805D+05 0.35332805D+05 0.11608000D+01  1  2  5  1  7  1       -2 0.756659580488D-05 0.100000000000D+01
0.618384481238D-05 0.000000000000D+00 -.485079260772D-05 0.183067736864D-06 0.000000000000D+00  7 21 2 23 -11 11 23 2 2 0.31347043D+00 0.95486341D-01 0.35332805D+05 0.35332805D+05 0.35332805D+05 0.11608000D+01  1  2  5  3  7  1       -2 0.104461382256D-04 0.100000000000D+01
  </mgrwgt>
  </event>
  <event>
  8     66 0.27870365E-05 0.21986066E+03 0.75467711E-02 0.92696885E-01
       -2 -1    0    0    0  501 0.00000000E+00 0.00000000E+00 0.20625273E+03 0.20625298E+03 0.32000000E+00 0.0000E+00 0.9000E+01
        2 -1    0    0  501    0 0.00000000E+00 0.00000000E+00 -.29451246E+03 0.29451263E+03 0.32000000E+00 0.0000E+00 0.9000E+01
       25  2    1    2    0    0 0.11411142E+03 -.70581909E+02 -.44379806E+02 0.33270634E+03 0.30119880E+03 0.0000E+00 0.0000E+00
       23  2    3    3    0    0 -.24524163E+02 -.61656366E+02 0.68945566E+02 0.13156614E+03 0.90295155E+02 0.0000E+00 0.0000E+00
       23  1    1    2    0    0 -.11411142E+03 0.70581909E+02 -.43879923E+02 0.16805928E+03 0.91188000E+02 0.0000E+00 0.9000E+01
      -11  1    4    4    0    0 -.47595737E+02 -.23216183E+01 0.22112329E+02 0.52532839E+02 0.51099893E-03 0.0000E+00 0.9000E+01
       11  1    4    4    0    0 0.23071574E+02 -.59334747E+02 0.46833238E+02 0.79033296E+02 0.51099893E-03 0.0000E+00 0.9000E+01
       23  1    3    3    0    0 0.13863558E+03 -.89255431E+01 -.11332537E+03 0.20114020E+03 0.91188000E+02 0.0000E+00 0.9000E+01
#aMCatNLO 1  0  0  2  2 0.50940467D+03 0.00000000D+00  -5  7  0 0.00000000D+00 0.00000000D+00 0.00000000D+00 0.00000000D+00 0.00000000D+00
  <mgrwgt>
 0.3459427964D-03    5    2    0
 0.246463193021006D+03 0.000000000000000D+00 0.000000000000000D+00 0.246463193021006D+03
 0.246463193021006D+03 0.000000000000000D+00 0.000000000000000D+00 -.246463193021006D+03
 0.162875187004660D+03 -.114111418412289D+03 0.705819088749130D+02 -.144863220077394D+02
 0.573275616038864D+02 -.475957374233028D+02 -.232161828881704D+01 0.318701300138614D+02
 0.886758092232319D+02 0.230715741910415D+02 -.593347474534096D+02 0.617291612642064D+02
 0.184047828210235D+03 0.138635581644550D+03 -.892554313268630D+01 -.791129692703284D+02
 0.000000000000000D+00 -.000000000000000D+00 0.000000000000000D+00 -.000000000000000D+00
 0.442573156208088D+03 0.000000000000000D+00 0.000000000000000D+00 0.442573156208088D+03
 0.109038631437612D+04 0.000000000000000D+00 0.000000000000000D+00 -.109038631437612D+04
 0.141120503806209D+03 -.907634368604404D+02 -.561416980014614D+02 -.144863220077394D+02
 0.758868479756395D+02 -.373643832583577D+02 -.578533609421263D+02 0.318701300138614D+02
 0.192143375988968D+03 0.446395152965577D+02 -.176396999011162D+03 0.617291612642064D+02
 0.299700130427797D+03 0.175789195183934D+03 -.210580658618629D+03 -.791129692703284D+02
 0.824108612385594D+03 -.923008903616940D+02 0.500972716573378D+03 -.647813158168031D+03
0.269591895463D-05 0.000000000000D+00 0.000000000000D+00 0.185022268041D-07 0.000000000000D+00  7 -2 2 23 -11 11 23 21 0 0.31731222D-01 0.45309642D-01 0.48338710D+05 0.48338710D+05 0.48338710D+05 0.11485884D+01  1  2  2  2  7  2        2 0.324454044371D-03 0.100000000000D+01
-.147397583593D-06 0.000000000000D+00 -.103530386375D-07 0.185022268041D-07 0.000000000000D+00  7 -2 2 23 -11 11 23 21 2 0.31731222D-01 0.45309642D-01 0.48338710D+05 0.48338710D+05 0.48338710D+05 0.11485884D+01  1  2  3  2  7  2        2 -.234026802030D-04 0.100000000000D+01
0.174781087410D-06 0.000000000000D+00 0.000000000000D+00 0.185022268041D-07 0.000000000000D+00  7 -2 2 23 -11 11 23 21 2 0.31731222D-01 0.45309642D-01 0.48338710D+05 0.48338710D+05 0.48338710D+05 0.11485884D+01  1  2 15  2  7  2        2 0.277504270727D-04 0.100000000000D+01
0.122726213126D-05 0.000000000000D+00 -.136120700402D-05 0.185022268041D-07 0.000000000000D+00  7 -2 2 23 -11 11 23 21 2 0.31731222D-01 0.28361807D+00 0.48338710D+05 0.48338710D+05 0.48338710D+05 0.11485884D+01  1  2  5  2  7  2        2 0.165198216156D-04 0.100000000000D+01
0.177497197989D-06 0.000000000000D+00 -.305949280863D-06 0.185022268041D-07 0.000000000000D+00  7 -2 21 23 -11 11 23 -2 2 0.31731222D-01 0.28361807D+00 0.48338710D+05 0.48338710D+05 0.48338710D+05 0.11485884D+01  1  2  5  4  7  2        2 0.621183509368D-06 0.100000000000D+01
  </mgrwgt>
  </event>
  <event>
  8     66 0.27870365E-05 0.25666575E+03 0.75467711E-02 0.91431556E-01
       -2 -1    0    0    0  501 0.00000000E+00 0.00000000E+00 0.12294433E+03 0.12294475E+03 0.32000000E+00 0.0000E+00 0.9000E+01
        2 -1    0    0  501    0 0.00000000E+00 0.00000000E+00 -.42331674E+04 0.42331674E+04 0.32000000E+00 0.0000E+00 0.9000E+01
       25  2    1    2    0    0 0.44271670E+03 -.45204250E+03 -.29452993E+04 0.30273146E+04 0.29917356E+03 0.0000E+00 0.0000E+00
       23  2    3    3    0    0 0.90984438E+02 -.23023713E+03 -.88139347E+03 0.91996176E+03 0.90486885E+02 0.0000E+00 0.0000E+00
       23  1    1    2    0    0 -.44271670E+03 0.45204250E+03 -.11649238E+04 0.13287976E+04 0.91188000E+02 0.0000E+00 0.9000E+01
      -11  1    4    4    0    0 0.51434787E+02 -.18420756E+03 -.76679508E+03 0.79028644E+03 0.51099893E-03 0.0000E+00 0.9000E+01
       11  1    4    4    0    0 0.39549651E+02 -.46029571E+02 -.11459839E+03 0.12967532E+03 0.51099893E-03 0.0000E+00 0.9000E+01
       23  1    3    3    0    0 0.35173226E+03 -.22180537E+03 -.20639058E+04 0.21073528E+04 0.91188000E+02 0.0000E+00 0.9000E+01
#aMCatNLO 1  0  0  2  1 0.21372395D+02 0.00000000D+00  -5  7  0 0.00000000D+00 0.00000000D+00 0.00000000D+00 0.00000000D+00 0.00000000D+00
  <mgrwgt>
 0.2955876295D-03    9    2    0
 0.721418655655074D+03 0.000000000000000D+00 0.000000000000000D+00 0.721418655655074D+03
 0.721418655655074D+03 0.000000000000000D+00 0.000000000000000D+00 -.721418655655074D+03
 0.693283270391373D+03 -.442716701762408D+03 0.452042501410740D+03 0.268301957800337D+03
 0.201601072539614D+03 0.514347869020663D+02 -.184207562766160D+03 -.637575796687192D+02
 0.650491006818006D+02 0.395496506827676D+02 -.460295713979351D+02 0.234198460136801D+02
 0.482903867697360D+03 0.351732264177574D+03 -.221805367246645D+03 -.227964224145298D+03
 0.000000000000000D+00 -.000000000000000D+00 0.000000000000000D+00 -.000000000000000D+00
 0.722047276304605D+03 0.000000000000000D+00 0.000000000000000D+00 0.722047276304605D+03
 0.929321607513455D+03 0.000000000000000D+00 0.000000000000000D+00 -.929321607513455D+03
 0.684448776074508D+03 -.433669047475678D+03 0.447325488238637D+03 0.268301957800337D+03
 0.203560208156541D+03 0.540955068929460D+02 -.185594734606121D+03 -.637575796687192D+02
 0.658909203899460D+02 0.404095421587576D+02 -.464778775876148D+02 0.234198460136801D+02
 0.489095690025986D+03 0.358115447313724D+03 -.225133252903962D+03 -.227964224145298D+03
 0.208373289171079D+03 -.189514488897495D+02 0.988037685906018D+01 -.207274331208851D+03
0.342219777461D-03 0.000000000000D+00 0.000000000000D+00 0.633003903212D-06 0.000000000000D+00  7 -2 2 23 -11 11 23 21 0 0.18914546D-01 0.65125656D+00 0.43356415D+06 0.43356415D+06 0.43356415D+06 0.10729140D+01  1  2  2  2  7  2        2 0.199449965266D-03 0.100000000000D+01
-.188194281248D-04 0.000000000000D+00 -.131421405399D-05 0.633003903212D-06 0.000000000000D+00  7 -2 2 23 -11 11 23 21 2 0.18914546D-01 0.65125656D+00 0.43356415D+06 0.43356415D+06 0.43356415D+06 0.10729140D+01  1  2  3  2  7  2        2 -.126259811323D-04 0.100000000000D+01
0.214562803893D-04 0.000000000000D+00 0.000000000000D+00 0.633003903212D-06 0.000000000000D+00  7 -2 2 23 -11 11 23 21 2 0.18914546D-01 0.65125656D+00 0.43356415D+06 0.43356415D+06 0.43356415D+06 0.10729140D+01  1  2 15  2  7  2        2 0.143950490720D-04 0.100000000000D+01
0.112536863482D-01 0.000000000000D+00 0.000000000000D+00 0.633003903212D-06 0.000000000000D+00  7 -2 2 23 -11 11 23 21 2 0.18914546D-01 0.83916711D+00 0.44800846D+06 0.44800846D+06 0.44800846D+06 0.10718968D+01  1  2 12  2  7  2        2 0.225569557606D-03 0.100000000000D+01
-.134271458699D-01 0.000000000000D+00 0.000000000000D+00 0.633003903212D-06 0.000000000000D+00  7 -2 2 23 -11 11 23 21 2 0.18914546D-01 0.65125656D+00 0.43356415D+06 0.43356415D+06 0.43356415D+06 0.10729140D+01  1  2  4  2  7  2        2 -.900829128759D-02 0.100000000000D+01
-.113781080645D-01 0.000000000000D+00 -.762274971187D-04 0.633003903212D-06 0.000000000000D+00  7 -2 2 23 -11 11 23 21 2 0.18914546D-01 0.83899124D+00 0.43356415D+06 0.43356415D+06 0.43356415D+06 0.10729140D+01  1  2  5  2  7  2        2 -.230502987668D-03 0.100000000000D+01
0.135751596277D-01 0.000000000000D+00 0.909160036333D-04 0.633003903212D-06 0.000000000000D+00  7 -2 2 23 -11 11 23 21 2 0.18914546D-01 0.65125656D+00 0.43356415D+06 0.43356415D+06 0.43356415D+06 0.10729140D+01  1  2  6  2  7  2        2 0.910759392847D-02 0.100000000000D+01
0.384790297679D-03 0.000000000000D+00 0.000000000000D+00 0.633003903212D-06 0.000000000000D+00  7 -2 21 23 -11 11 23 -2 2 0.18914546D-01 0.83916711D+00 0.44800846D+06 0.44800846D+06 0.44800846D+06 0.10718968D+01  1  2 12  4  7  2        2 0.306825299259D-07 0.100000000000D+01
-.387502583203D-03 0.000000000000D+00 -.260481271874D-05 0.633003903212D-06 0.000000000000D+00  7 -2 21 23 -11 11 23 -2 2 0.18914546D-01 0.83899124D+00 0.43356415D+06 0.43356415D+06 0.43356415D+06 0.10729140D+01  1  2  5  4  7  2        2 -.312970756081D-07 0.100000000000D+01
  </mgrwgt>
  </event>
  <event>
  9     66 0.27870365E-05 0.17132533E+03 0.75467711E-02 0.10817932E+00
       21 -1    0    0  502  501 0.00000000E+00 0.00000000E+00 0.32390755E+02 0.32399437E+02 0.75000000E+00 0.0000E+00 0.9000E+01
        2 -1    0    0  501    0 0.00000000E+00 0.00000000E+00 -.15648067E+04 0.15648067E+04 0.32000000E+00 0.0000E+00 0.9000E+01
       25  2    1    2    0    0 -.69705650E+02 -.46574538E+02 -.10436010E+04 0.10888846E+04 0.29923012E+03 0.0000E+00 0.0000E+00
       23  2    3    3    0    0 -.33484300E+02 0.54522558E+02 -.79959586E+03 0.80712878E+03 0.89495375E+02 0.0000E+00 0.0000E+00
       23  1    1    2    0    0 0.66170534E+02 0.36674537E+02 -.35828271E+03 0.37736629E+03 0.91188000E+02 0.0000E+00 0.9000E+01
      -13  1    4    4    0    0 -.97764374E+01 0.57826131E+02 -.74749553E+03 0.74979265E+03 0.10565837E+00 0.0000E+00 0.9000E+01
       13  1    4    4    0    0 -.23707863E+02 -.33035726E+01 -.52100334E+02 0.57336135E+02 0.10565837E+00 0.0000E+00 0.9000E+01
       23  1    3    3    0    0 -.36221350E+02 -.10109710E+03 -.24400513E+03 0.28175586E+03 0.91188000E+02 0.0000E+00 0.9000E+01
        2  1    1    2  502    0 0.35351157E+01 0.99000010E+01 -.13053223E+03 0.13095523E+03 0.32000000E+00 0.0000E+00 0.9000E+01
#aMCatNLO 2  0  0  1  1 0.10512234D+02 0.00000000D+00  -5  7  0 0.00000000D+00 0.00000000D+00 0.00000000D+00 0.00000000D+00 0.00000000D+00
  <mgrwgt>
 0.1455242501D-03    1    2    0
 0.214769269555881D+03 0.000000000000000D+00 0.000000000000000D+00 0.214769269555881D+03
 0.214769269555881D+03 0.000000000000000D+00 0.000000000000000D+00 -.214769269555881D+03
 0.120221990389125D+03 0.671539738342003D+02 0.394285856143809D+02 0.859104556196659D+01
 0.121107493392246D+03 -.878515596583667D+01 0.606022278610648D+02 -.104485482095287D+03
 0.254086152915558D+02 -.234977183216633D+02 -.271509278490923D+01 0.927810518798886D+01
 0.162800440038836D+03 -.348710995467004D+02 -.973157206905364D+02 0.866163313453313D+02
 0.000000000000000D+00 0.000000000000000D+00 0.000000000000000D+00 -.000000000000000D+00
 0.216244183124750D+03 0.000000000000000D+00 0.000000000000000D+00 0.216244183124750D+03
 0.234418612504466D+03 0.000000000000000D+00 0.000000000000000D+00 -.234418612504466D+03
 0.118796559017089D+03 0.661705559728310D+02 0.366745490592496D+02 0.859104556196659D+01
 0.119819298643480D+03 -.977642510021533D+01 0.578262040167847D+02 -.104485482095287D+03
 0.256721877130642D+02 -.237078851650845D+02 -.330365965174723D+01 0.927810518798886D+01
 0.165379109114484D+03 -.362213614036787D+02 -.101097094467844D+03 0.866163313453313D+02
 0.209956411411003D+02 0.353511569614753D+01 0.990000104355676D+01 -.181744293797161D+02
0.242859595720D-07 0.000000000000D+00 0.000000000000D+00 0.185798368279D-07 0.162971340394D-11  7 21 2 23 -13 13 23 2 2 0.49838355D-02 0.24073881D+00 0.31057709D+05 0.31057709D+05 0.31057709D+05 0.11659423D+01  1  2  1  3  7  1       -2 0.145524250122D-03 0.100000000000D+01
  </mgrwgt>
  </event>
  <event>
  8     66 0.27870365E-05 0.38964829E+03 0.75467711E-02 0.87741456E-01
       -2 -1    0    0    0  501 0.00000000E+00 0.00000000E+00 0.22826345E+03 0.22826367E+03 0.32000000E+00 0.0000E+00 0.9000E+01
        2 -1    0    0  501    0 0.00000000E+00 0.00000000E+00 -.11115292E+04 0.11115293E+04 0.32000000E+00 0.0000E+00 0.9000E+01
       25  2    1    2    0    0 -.36733967E+03 0.66810133E+01 -.83206985E+03 0.95779905E+03 0.30009283E+03 0.0000E+00 0.0000E+00
       23  2    3    3    0    0 -.15574726E+03 0.15773231E+02 -.61418209E+03 0.64055412E+03 0.92649529E+02 0.0000E+00 0.0000E+00
       23  1    1    2    0    0 0.36733967E+03 -.66810133E+01 -.51195932E+02 0.38199390E+03 0.91188000E+02 0.0000E+00 0.9000E+01
      -13  1    4    4    0    0 -.12657781E+03 0.39462955E+02 -.55366740E+03 0.56932141E+03 0.10565837E+00 0.0000E+00 0.9000E+01
       13  1    4    4    0    0 -.29169456E+02 -.23689723E+02 -.60514693E+02 0.71232713E+02 0.10565837E+00 0.0000E+00 0.9000E+01
       23  1    3    3    0    0 -.21159241E+03 -.90922182E+01 -.21788776E+03 0.31724492E+03 0.91188000E+02 0.0000E+00 0.9000E+01
#aMCatNLO 1  0  0  1  1 0.80736078D+03 0.00000000D+00  -5  7  0 0.00000000D+00 0.00000000D+00 0.00000000D+00 0.00000000D+00 0.00000000D+00
  <mgrwgt>
 0.8048953032D-03    5    2    0
 0.503707925835269D+03 0.000000000000000D+00 0.000000000000000D+00 0.503707925835269D+03
 0.503707925835269D+03 0.000000000000000D+00 0.000000000000000D+00 -.503707925835269D+03
 0.463138555590842D+03 0.367339667354496D+03 -.668101329807331D+01 0.266831413405489D+03
 0.271722585416741D+03 -.126577932484694D+03 0.394630367401323D+02 -.237178960206645D+03
 0.416771556436833D+02 -.291693294160312D+02 -.236898052807188D+02 -.180257773682160D+02
 0.230877555019272D+03 -.211592405453771D+03 -.909221816134021D+01 -.116266758306277D+02
 0.000000000000000D+00 -.000000000000000D+00 0.000000000000000D+00 0.000000000000000D+00
 0.122301167949700D+04 0.000000000000000D+00 0.000000000000000D+00 0.122301167949700D+04
 0.927683100945787D+03 0.000000000000000D+00 0.000000000000000D+00 -.927683100945787D+03
 0.599151584271862D+03 0.367694832095992D+03 -.379827430369914D+03 0.266831413405489D+03
 0.316492539855624D+03 -.126381269383840D+03 -.167156942328124D+03 -.237178960206645D+03
 0.723728961547453D+02 -.291311980659936D+02 -.637517117208386D+02 -.180257773682160D+02
 0.302997357492134D+03 -.211413910390908D+03 -.196624327603607D+03 -.116266758306277D+02
 0.859680402668420D+03 -.768454255250659D+00 0.807360412022484D+03 0.295328578551211D+03
0.363609455271D-04 0.000000000000D+00 0.000000000000D+00 0.873523258874D-06 0.000000000000D+00  7 -2 2 23 -13 13 23 21 0 0.35117474D-01 0.17100452D+00 0.15182579D+06 0.15182579D+06 0.15182579D+06 0.11071375D+01  1  2  2  1  7  1       -2 0.745863802232D-03 0.100000000000D+01
-.185814310588D-05 0.000000000000D+00 -.139635604881D-06 0.873523258874D-06 0.000000000000D+00  7 -2 2 23 -13 13 23 21 2 0.35117474D-01 0.17100452D+00 0.15182579D+06 0.15182579D+06 0.15182579D+06 0.11071375D+01  1  2  3  1  7  1       -2 -.467204097071D-04 0.100000000000D+01
0.224060287307D-05 0.000000000000D+00 0.000000000000D+00 0.873523258874D-06 0.000000000000D+00  7 -2 2 23 -13 13 23 21 2 0.35117474D-01 0.17100452D+00 0.15182579D+06 0.15182579D+06 0.15182579D+06 0.11071375D+01  1  2 15  1  7  1       -2 0.563368256674D-04 0.100000000000D+01
0.187734568884D-04 0.000000000000D+00 -.135383539882D-04 0.873523258874D-06 0.000000000000D+00  7 -2 2 23 -13 13 23 21 2 0.14863978D+00 0.17100452D+00 0.15182579D+06 0.15182579D+06 0.15182579D+06 0.11071375D+01  1  2  5  1  7  1       -2 0.195457261917D-04 0.100000000000D+01
0.328333820355D-05 0.000000000000D+00 -.234712186450D-05 0.873523258874D-06 0.000000000000D+00  7 21 2 23 -13 13 23 2 2 0.14863978D+00 0.17100452D+00 0.15182579D+06 0.15182579D+06 0.15182579D+06 0.11071375D+01  1  2  5  3  7  1       -2 0.298693588207D-04 0.100000000000D+01
  </mgrwgt>
  </event>
  <event>
  8     66 0.27870365E-05 0.17899323E+03 0.75467711E-02 0.95860681E-01
       -2 -1    0    0    0  501 0.00000000E+00 0.00000000E+00 0.50763574E+02 0.50764582E+02 0.32000000E+00 0.0000E+00 0.9000E+01
        2 -1    0    0  501    0 0.00000000E+00 0.00000000E+00 -.16324213E+04 0.16324213E+04 0.32000000E+00 0.0000E+00 0.9000E+01
       25  2    1    2    0    0 0.20374575E+02 -.98973646E+01 -.15568847E+04 0.15860158E+04 0.30173321E+03 0.0000E+00 0.0000E+00
       23  2    3    3    0    0 -.36464549E+02 0.88508574E+02 -.41794589E+03 0.43779484E+03 0.88442763E+02 0.0000E+00 0.0000E+00
       23  1    1    2    0    0 -.20374575E+02 0.98973646E+01 -.24772998E+02 0.97170129E+02 0.91188000E+02 0.0000E+00 0.9000E+01
      -11  1    4    4    0    0 0.17803619E+02 0.45888918E+01 -.18674332E+02 0.26206058E+02 0.51099893E-03 0.0000E+00 0.9000E+01
       11  1    4    4    0    0 -.54268168E+02 0.83919682E+02 -.39927156E+03 0.41158878E+03 0.51099893E-03 0.0000E+00 0.9000E+01
       23  1    3    3    0    0 0.56839124E+02 -.98405938E+02 -.11389388E+04 0.11482209E+04 0.91188000E+02 0.0000E+00 0.9000E+01
#aMCatNLO 1  0  0  2  2 0.37560249D+03 0.00000000D+00  -5  7  0 0.00000000D+00 0.00000000D+00 0.00000000D+00 0.00000000D+00 0.00000000D+00
  <mgrwgt>
 0.4498930621D-03    5    2    0
 0.287868742835860D+03 0.000000000000000D+00 0.000000000000000D+00 0.287868742835860D+03
 0.287868742835860D+03 0.000000000000000D+00 0.000000000000000D+00 -.287868742835860D+03
 0.216023776822546D+03 -.203745745880819D+02 0.989736461779973D+01 0.194519766842997D+03
 0.253123442556072D+02 0.178036192118997D+02 0.458889177024465D+01 0.173979305376538D+02
 0.106419147552742D+03 -.542681683899640D+02 0.839196817213062D+02 -.365716814659297D+02
 0.227982217040826D+03 0.568391237661462D+02 -.984059381093506D+02 -.175346015914721D+03
 0.000000000000000D+00 -.000000000000000D+00 -.000000000000000D+00 -.000000000000000D+00
 0.494624140371642D+03 0.000000000000000D+00 0.000000000000000D+00 0.494624140371642D+03
 0.577418748750025D+03 0.000000000000000D+00 0.000000000000000D+00 -.577418748750025D+03
 0.248067278977587D+03 0.107371755722028D+03 0.620925916342608D+02 0.194519766842997D+03
 0.421069048495307D+02 0.363615327028110D+02 0.121713757857037D+02 0.173979305376538D+02
 0.114996902423901D+03 0.667911232741623D+01 0.108821822904988D+03 -.365716814659297D+02
 0.282252279130831D+03 0.197286959743463D+03 -.410210671309738D+02 -.175346015914721D+03
 0.384619523739817D+03 -.347699360495719D+03 -.142064723193979D+03 -.827946083783829D+02
0.346137014558D-05 0.000000000000D+00 0.000000000000D+00 0.786308047255D-08 0.000000000000D+00  7 -2 2 23 -11 11 23 21 0 0.78098606D-02 0.25114182D+00 0.32038577D+05 0.32038577D+05 0.32038577D+05 0.11646961D+01  1  2  2  2  7  2        2 0.434355102807D-03 0.100000000000D+01
-.139510898185D-06 0.000000000000D+00 -.132925727587D-07 0.786308047255D-08 0.000000000000D+00  7 -2 2 23 -11 11 23 21 2 0.78098606D-02 0.25114182D+00 0.32038577D+05 0.32038577D+05 0.32038577D+05 0.11646961D+01  1  2  3  2  7  2        2 -.237481743435D-04 0.100000000000D+01
0.209879199117D-06 0.000000000000D+00 0.000000000000D+00 0.786308047255D-08 0.000000000000D+00  7 -2 2 23 -11 11 23 21 2 0.78098606D-02 0.25114182D+00 0.32038577D+05 0.32038577D+05 0.32038577D+05 0.11646961D+01  1  2 15  2  7  2        2 0.357265839195D-04 0.100000000000D+01
0.459003572182D-06 0.000000000000D+00 -.866678897620D-06 0.786308047255D-08 0.000000000000D+00  7 -2 2 23 -11 11 23 21 2 0.78098606D-02 0.59501594D+00 0.32038577D+05 0.32038577D+05 0.32038577D+05 0.11646961D+01  1  2  5  2  7  2        2 0.354091678746D-05 0.100000000000D+01
0.978726124638D-07 0.000000000000D+00 -.816493918623D-07 0.786308047255D-08 0.000000000000D+00  7 -2 21 23 -11 11 23 -2 2 0.78098606D-02 0.59501594D+00 0.32038577D+05 0.32038577D+05 0.32038577D+05 0.11646961D+01  1  2  5  4  7  2        2 0.186329033618D-07 0.100000000000D+01
  </mgrwgt>
  </event>
  <event>
  8     66 0.27870365E-05 0.11810239E+03 0.75467711E-02 0.10208780E+00
       -2 -1    0    0    0  501 0.00000000E+00 0.00000000E+00 0.38538503E+02 0.38539831E+02 0.32000000E+00 0.0000E+00 0.9000E+01
        2 -1    0    0  501    0 0.00000000E+00 0.00000000E+00 -.10390857E+04 0.10390857E+04 0.32000000E+00 0.0000E+00 0.9000E+01
       25  2    1    2    0    0 -.31511746E+02 -.14692462E+02 -.78965718E+03 0.84524936E+03 0.29946478E+03 0.0000E+00 0.0000E+00
       23  2    3    3    0    0 0.71452646E+02 0.25920594E+02 -.16153600E+03 0.20096483E+03 0.92280142E+02 0.0000E+00 0.0000E+00
       23  1    1    2    0    0 0.31511746E+02 0.14692462E+02 -.21089000E+03 0.23237621E+03 0.91188000E+02 0.0000E+00 0.9000E+01
      -13  1    4    4    0    0 0.87671582E+02 0.21680603E+01 -.99797363E+02 0.13285530E+03 0.10565837E+00 0.0000E+00 0.9000E+01
       13  1    4    4    0    0 -.16218936E+02 0.23752533E+02 -.61738641E+02 0.68109527E+02 0.10565837E+00 0.0000E+00 0.9000E+01
       23  1    3    3    0    0 -.10296439E+03 -.40613056E+02 -.62812118E+03 0.64428453E+03 0.91188000E+02 0.0000E+00 0.9000E+01
#aMCatNLO 1  0  0  1  2 0.15639833D+03 0.00000000D+00  -5  7  0 0.00000000D+00 0.00000000D+00 0.00000000D+00 0.00000000D+00 0.00000000D+00
  <mgrwgt>
 0.5372123740D-03    7    2    0
 0.200113839749048D+03 0.000000000000000D+00 0.000000000000000D+00 0.200113839749048D+03
 0.200113839749048D+03 0.000000000000000D+00 0.000000000000000D+00 -.200113839749048D+03
 0.984670900869784D+02 0.315123514189583D+02 0.146927445495084D+02 0.131000554139321D+02
 0.108228847888866D+03 0.876713752574410D+02 0.216789349328719D+01 0.634232899936762D+02
 0.290437300410699D+02 -.162191643057749D+02 0.237525110837781D+02 0.403672901441534D+01
 0.164488011481182D+03 -.102964562370624D+03 -.406131491265736D+02 -.805600744220236D+02
 0.000000000000000D+00 -.000000000000000D+00 -.000000000000000D+00 0.000000000000000D+00
 0.380024162178900D+03 0.000000000000000D+00 0.000000000000000D+00 0.380024162178900D+03
 0.251872576163662D+03 0.000000000000000D+00 0.000000000000000D+00 -.251872576163662D+03
 0.118445835187919D+03 0.601712675571279D+02 0.438402969661949D+02 0.131000554139321D+02
 0.140822532428274D+03 0.120576480444505D+03 0.356340327426758D+02 0.634232899936762D+02
 0.333574115649584D+02 -.797461602933259D+01 0.321376294141760D+02 0.403672901441534D+01
 0.137074851803733D+03 -.631215479522076D+02 -.908088677641246D-01 -.805600744220236D+02
 0.202196107357678D+03 -.109651584020093D+03 -.111521150255283D+03 0.128151586015238D+03
0.156048907675D-05 0.000000000000D+00 0.000000000000D+00 0.345626916576D-07 0.000000000000D+00  7 -2 2 23 -13 13 23 21 0 0.59291064D-02 0.15985944D+00 0.31944703D+05 0.31944703D+05 0.31944703D+05 0.11648135D+01  1  2  2  1  7  1       -2 0.619500477486D-03 0.100000000000D+01
-.853477621241D-07 0.000000000000D+00 -.599268894095D-08 0.345626916576D-07 0.000000000000D+00  7 -2 2 23 -13 13 23 21 2 0.59291064D-02 0.15985944D+00 0.31944703D+05 0.31944703D+05 0.31944703D+05 0.11648135D+01  1  2  3  1  7  1       -2 -.459711991557D-04 0.100000000000D+01
0.100011271751D-06 0.000000000000D+00 0.000000000000D+00 0.345626916576D-07 0.000000000000D+00  7 -2 2 23 -13 13 23 21 2 0.59291064D-02 0.15985944D+00 0.31944703D+05 0.31944703D+05 0.31944703D+05 0.11648135D+01  1  2 15  1  7  1       -2 0.538694627374D-04 0.100000000000D+01
0.219738220623D-07 0.000000000000D+00 0.000000000000D+00 0.345626916576D-07 0.000000000000D+00  7 -2 2 23 -13 13 23 21 2 0.11441966D-01 0.15985944D+00 0.73947291D+05 0.73947291D+05 0.73947291D+05 0.11326399D+01  1  2 12  1  7  1       -2 0.416880677860D-05 0.100000000000D+01
-.480078616357D-06 0.000000000000D+00 -.493967247386D-06 0.345626916576D-07 0.000000000000D+00  7 -2 2 23 -13 13 23 21 2 0.14230003D-01 0.15985944D+00 0.31944703D+05 0.31944703D+05 0.31944703D+05 0.11648135D+01  1  2  5  1  7  1       -2 -.686225331958D-04 0.100000000000D+01
0.156696786189D-08 0.000000000000D+00 0.000000000000D+00 0.345626916576D-07 0.000000000000D+00  7 21 2 23 -13 13 23 2 2 0.11441966D-01 0.15985944D+00 0.73947291D+05 0.73947291D+05 0.73947291D+05 0.11326399D+01  1  2 12  3  7  1       -2 0.425894333339D-05 0.100000000000D+01
-.149462256603D-07 0.000000000000D+00 -.473147989998D-07 0.345626916576D-07 0.000000000000D+00  7 21 2 23 -13 13 23 2 2 0.14230003D-01 0.15985944D+00 0.31944703D+05 0.31944703D+05 0.31944703D+05 0.11648135D+01  1  2  5  3  7  1       -2 -.299915839685D-04 0.100000000000D+01
  </mgrwgt>
  </event>
  <event>
  8     66 0.27870365E-05 0.11889227E+03 0.75467711E-02 0.10065447E+00
       -2 -1    0    0    0  501 0.00000000E+00 0.00000000E+00 0.95984362E+02 0.95984896E+02 0.32000000E+00 0.0000E+00 0.9000E+01
        2 -1    0    0  501    0 0.00000000E+00 0.00000000E+00 -.90502060E+03 0.90502066E+03 0.32000000E+00 0.0000E+00 0.9000E+01
       25  2    1    2    0    0 0.11735320E+03 0.16830136E+03 -.52584669E+03 0.63960730E+03 0.30080831E+03 0.0000E+00 0.0000E+00
       23  2    3    3    0    0 0.46616393E+02 0.21089088E+03 -.40033568E+03 0.46386366E+03 0.90844851E+02 0.0000E+00 0.0000E+00
       23  1    1    2    0    0 -.11735320E+03 -.16830136E+03 -.28318955E+03 0.36139825E+03 0.91188000E+02 0.0000E+00 0.9000E+01
      -13  1    4    4    0    0 0.64740571E+02 0.16069902E+03 -.34987243E+03 0.39041804E+03 0.10565837E+00 0.0000E+00 0.9000E+01
       13  1    4    4    0    0 -.18124177E+02 0.50191854E+02 -.50463246E+02 0.73445615E+02 0.10565837E+00 0.0000E+00 0.9000E+01
       23  1    3    3    0    0 0.70736810E+02 -.42589514E+02 -.12551101E+03 0.17574364E+03 0.91188000E+02 0.0000E+00 0.9000E+01
#aMCatNLO 1  0  0  2  1 0.32481691D+02 0.00000000D+00  -5  7  0 0.00000000D+00 0.00000000D+00 0.00000000D+00 0.00000000D+00 0.00000000D+00
  <mgrwgt>
 0.5249759207D-03    9    2    0
 0.294733982528392D+03 0.000000000000000D+00 0.000000000000000D+00 0.294733982528392D+03
 0.294733982528392D+03 0.000000000000000D+00 0.000000000000000D+00 -.294733982528392D+03
 0.225035213745647D+03 -.117353204990634D+03 -.168301366298180D+03 0.151152724798839D+02
 0.182794078379339D+03 0.647406831947571D+02 0.160699173223853D+03 -.582931793196944D+02
 0.554614906105350D+02 -.181242886864630D+02 0.501917042862625D+02 0.151089351442314D+02
 0.126177182321263D+03 0.707368104823402D+02 -.425895112119357D+02 0.280689716955792D+02
 0.000000000000000D+00 -.000000000000000D+00 0.000000000000000D+00 -.000000000000000D+00
 0.305803247363706D+03 0.000000000000000D+00 0.000000000000000D+00 0.305803247363706D+03
 0.320012735389998D+03 0.000000000000000D+00 0.000000000000000D+00 -.320012735389998D+03
 0.234540454531092D+03 -.117140302779023D+03 -.180952069538728D+03 0.151152724798839D+02
 0.174277595755871D+03 0.649060995872571D+02 0.150870089360409D+03 -.582931793196944D+02
 0.527634806579798D+02 -.180741525776019D+02 0.472126040221675D+02 0.151089351442314D+02
 0.128780681679315D+03 0.708549218116823D+02 -.496077162627158D+02 0.280689716955792D+02
 0.354537701294466D+02 -.546566042314573D+00 0.324770924188679D+02 -.142094880262923D+02
0.228761408948D-05 0.000000000000D+00 0.000000000000D+00 0.922423957107D-07 0.000000000000D+00  7 -2 2 23 -13 13 23 21 0 0.14766870D-01 0.13923398D+00 0.82413887D+05 0.82413887D+05 0.82413887D+05 0.11286811D+01  1  2  2  2  7  2        2 0.273706761698D-03 0.100000000000D+01
-.126982638879D-06 0.000000000000D+00 -.878504044624D-08 0.922423957107D-07 0.000000000000D+00  7 -2 2 23 -13 13 23 21 2 0.14766870D-01 0.13923398D+00 0.82413887D+05 0.82413887D+05 0.82413887D+05 0.11286811D+01  1  2  3  2  7  2        2 -.193548399540D-04 0.100000000000D+01
0.147644330450D-06 0.000000000000D+00 0.000000000000D+00 0.922423957107D-07 0.000000000000D+00  7 -2 2 23 -13 13 23 21 2 0.14766870D-01 0.13923398D+00 0.82413887D+05 0.82413887D+05 0.82413887D+05 0.11286811D+01  1  2 15  2  7  2        2 0.225041187614D-04 0.100000000000D+01
0.509019320286D-05 0.000000000000D+00 0.000000000000D+00 0.922423957107D-07 0.000000000000D+00  7 -2 2 23 -13 13 23 21 2 0.14766870D-01 0.15362352D+00 0.92116040D+05 0.92116040D+05 0.92116040D+05 0.11246605D+01  1  2 12  2  7  2        2 0.673572012869D-03 0.100000000000D+01
-.487352171896D-05 0.000000000000D+00 0.000000000000D+00 0.922423957107D-07 0.000000000000D+00  7 -2 2 23 -13 13 23 21 2 0.14766870D-01 0.13923398D+00 0.82413887D+05 0.82413887D+05 0.82413887D+05 0.11286811D+01  1  2  4  2  7  2        2 -.742827789023D-03 0.100000000000D+01
-.145545243497D-04 0.000000000000D+00 -.272084254892D-05 0.922423957107D-07 0.000000000000D+00  7 -2 2 23 -13 13 23 21 2 0.14766870D-01 0.15483611D+00 0.82413887D+05 0.82413887D+05 0.82413887D+05 0.11286811D+01  1  2  5  2  7  2        2 -.191959608620D-02 0.100000000000D+01
0.147753658975D-04 0.000000000000D+00 0.270556764346D-05 0.922423957107D-07 0.000000000000D+00  7 -2 2 23 -13 13 23 21 2 0.14766870D-01 0.13923398D+00 0.82413887D+05 0.82413887D+05 0.82413887D+05 0.11286811D+01  1  2  6  2  7  2        2 0.225207827410D-02 0.100000000000D+01
0.814946647197D-07 0.000000000000D+00 0.000000000000D+00 0.922423957107D-07 0.000000000000D+00  7 -2 21 23 -13 13 23 -2 2 0.14766870D-01 0.15362352D+00 0.92116040D+05 0.92116040D+05 0.92116040D+05 0.11246605D+01  1  2 12  4  7  2        2 0.794352728409D-05 0.100000000000D+01
-.238935919094D-06 0.000000000000D+00 -.465439885650D-07 0.922423957107D-07 0.000000000000D+00  7 -2 21 23 -13 13 23 -2 2 0.14766870D-01 0.15483611D+00 0.82413887D+05 0.82413887D+05 0.82413887D+05 0.11286811D+01  1  2  5  4  7  2        2 -.230500588063D-04 0.100000000000D+01
  </mgrwgt>
  </event>
  <event>
  8     66 0.27870365E-05 0.33669751E+03 0.75467711E-02 0.96334760E-01
       -2 -1    0    0    0  501 0.00000000E+00 0.00000000E+00 0.21217078E+03 0.21217103E+03 0.32000000E+00 0.0000E+00 0.9000E+01
        2 -1    0    0  501    0 0.00000000E+00 0.00000000E+00 -.83743228E+03 0.83743234E+03 0.32000000E+00 0.0000E+00 0.9000E+01
       25  2    1    2    0    0 0.21081141E+03 -.18428214E+03 -.63339002E+03 0.75501437E+03 0.30076972E+03 0.0000E+00 0.0000E+00
       23  2    3    3    0    0 0.95678730E+02 0.16758892E+02 -.36856646E+03 0.39153149E+03 0.89556669E+02 0.0000E+00 0.0000E+00
       23  1    1    2    0    0 -.21081141E+03 0.18428214E+03 0.81285198E+01 0.29458900E+03 0.91188000E+02 0.0000E+00 0.9000E+01
      -11  1    4    4    0    0 0.76475623E+02 -.27840727E+02 -.26359307E+03 0.27587123E+03 0.51099893E-03 0.0000E+00 0.9000E+01
       11  1    4    4    0    0 0.19203107E+02 0.44599618E+02 -.10497338E+03 0.11566026E+03 0.51099893E-03 0.0000E+00 0.9000E+01
       23  1    3    3    0    0 0.11513268E+03 -.20104103E+03 -.26482356E+03 0.36348287E+03 0.91188000E+02 0.0000E+00 0.9000E+01
#aMCatNLO 1  0  0  1  1 0.16607587D+03 0.00000000D+00  -5  7  0 0.00000000D+00 0.00000000D+00 0.00000000D+00 0.00000000D+00 0.00000000D+00
  <mgrwgt>
 0.3400490506D-03    4    2    0
 0.421519658954256D+03 0.000000000000000D+00 0.000000000000000D+00 0.421519658954256D+03
 0.421519658954256D+03 0.000000000000000D+00 0.000000000000000D+00 -.421519658954256D+03
 0.372798817122752D+03 -.210811408984024D+03 0.184282137757674D+03 0.228609602269361D+03
 0.147965544799520D+03 0.764756230729759D+02 -.278407265208590D+02 -.123572551443311D+03
 0.661435192773148D+02 0.192031072811137D+02 0.445996182813959D+02 -.449119122537922D+02
 0.256131436708927D+03 0.115132678629934D+03 -.201041029518210D+03 -.601251385722580D+02
 0.000000000000000D+00 0.000000000000000D+00 -.000000000000000D+00 -.000000000000000D+00
 0.482007547385934D+03 0.000000000000000D+00 0.000000000000000D+00 0.482007547385934D+03
 0.561244123219380D+03 0.000000000000000D+00 0.000000000000000D+00 -.561244123219380D+03
 0.426942213749867D+03 -.233931476588693D+03 0.258801307085021D+03 0.228609602269361D+03
 0.141106882198041D+03 0.681187002731828D+02 -.905210767973241D+00 -.123572551443311D+03
 0.746851458572339D+02 0.151318290386639D+02 0.577219100460875D+02 -.449119122537922D+02
 0.216507566918921D+03 0.101468948378960D+03 -.157000940811467D+03 -.601251385722580D+02
 0.184009861881251D+03 0.492119988978859D+02 -.158617065551668D+03 -.792365758334467D+02
0.128729597091D-04 0.000000000000D+00 0.000000000000D+00 0.115318428230D-06 0.000000000000D+00  7 -2 2 23 -11 11 23 21 0 0.32641682D-01 0.12883576D+00 0.11336521D+06 0.11336521D+06 0.11336521D+06 0.11172786D+01  1  2  2  1  7  1       -2 0.448872016909D-03 0.100000000000D+01
-.671268730568D-06 0.000000000000D+00 -.494355548111D-07 0.115318428230D-06 0.000000000000D+00  7 -2 2 23 -11 11 23 21 2 0.32641682D-01 0.12883576D+00 0.11336521D+06 0.11336521D+06 0.11336521D+06 0.11172786D+01  1  2  3  1  7  1       -2 -.292188743580D-04 0.100000000000D+01
0.819696958218D-06 0.000000000000D+00 0.000000000000D+00 0.115318428230D-06 0.000000000000D+00  7 -2 2 23 -11 11 23 21 2 0.32641682D-01 0.12883576D+00 0.11336521D+06 0.11336521D+06 0.11336521D+06 0.11172786D+01  1  2 15  1  7  1       -2 0.356796337192D-04 0.100000000000D+01
-.264850586759D-05 0.000000000000D+00 0.000000000000D+00 0.115318428230D-06 0.000000000000D+00  7 -2 2 23 -11 11 23 21 2 0.32641682D-01 0.12883576D+00 0.11336521D+06 0.11336521D+06 0.11336521D+06 0.11172786D+01  1  2  4  1  7  1       -2 -.115283725664D-03 0.100000000000D+01
  </mgrwgt>
  </event>
  <event>
  8     66 0.27870365E-05 0.22048858E+03 0.75467711E-02 0.94668591E-01
       -2 -1    0    0    0  501 0.00000000E+00 0.00000000E+00 0.56223728E+03 0.56223737E+03 0.32000000E+00 0.0000E+00 0.9000E+01
        2 -1    0    0  501    0 0.00000000E+00 0.00000000E+00 -.25184505E+03 0.25184525E+03 0.32000000E+00 0.0000E+00 0.9000E+01
       25  2    1    2    0    0 -.80135692E+02 0.62331251E+02 0.49312508E+03 0.58601803E+03 0.29989644E+03 0.0000E+00 0.0000E+00
       23  2    3    3    0    0 -.14283131E+03 0.24728655E+01 0.34584679E+03 0.39231746E+03 0.11788167E+03 0.0000E+00 0.0000E+00
       23  1    1    2    0    0 0.80135692E+02 -.62331251E+02 -.18273285E+03 0.22806459E+03 0.91188000E+02 0.0000E+00 0.9000E+01
      -13  1    4    4    0    0 -.15671718E+03 0.18142090E+02 0.33092555E+03 0.36660761E+03 0.10565837E+00 0.0000E+00 0.9000E+01
       13  1    4    4    0    0 0.13885867E+02 -.15669225E+02 0.14921246E+02 0.25709855E+02 0.10565837E+00 0.0000E+00 0.9000E+01
       23  1    3    3    0    0 0.62695616E+02 0.59858385E+02 0.14727829E+03 0.19370057E+03 0.91188000E+02 0.0000E+00 0.9000E+01
#aMCatNLO 1  0  0  2  1 0.39168703D+03 0.00000000D+00  -5  7  0 0.00000000D+00 0.00000000D+00 0.00000000D+00 0.00000000D+00 0.00000000D+00
  <mgrwgt>
 0.4510083542D-03    5    2    0
 0.376293498233660D+03 0.000000000000000D+00 0.000000000000000D+00 0.376293498233660D+03
 0.376293498233660D+03 0.000000000000000D+00 0.000000000000000D+00 -.376293498233660D+03
 0.322065464495655D+03 0.801356922294242D+02 -.623312506455785D+02 -.291725895492106D+03
 0.260079286730989D+03 -.156717345330291D+03 0.181420177101899D+02 0.206765026666817D+03
 0.216563798745130D+02 0.138859181730947D+02 -.156692240614656D+02 0.553673938983211D+01
 0.148785865366163D+03 0.626957349277723D+02 0.598584569968542D+02 0.794241294354577D+02
 0.000000000000000D+00 -.000000000000000D+00 0.000000000000000D+00 -.000000000000000D+00
 0.441087070011798D+03 0.000000000000000D+00 0.000000000000000D+00 0.441087070011798D+03
 0.269637862735212D+04 0.000000000000000D+00 0.000000000000000D+00 -.269637862735212D+04
 0.395802998000435D+03 0.813535758993503D+02 -.237954532358284D+03 -.291725895492106D+03
 0.283187670661597D+03 -.155795677935239D+03 -.114765793243941D+03 0.206765026666817D+03
 0.326189150106828D+02 0.139779977096316D+02 -.289474301697537D+02 0.553673938983211D+01
 0.136804183089644D+03 0.631802463312937D+02 -.100098603267706D+02 0.794241294354577D+02
 0.228905193060156D+04 -.271614200503647D+01 0.391677616098749D+03 -.225529155734032D+04
0.368732249666D-04 0.000000000000D+00 0.000000000000D+00 0.325465942893D-08 0.000000000000D+00  7 -2 2 23 -13 13 23 21 0 0.86498066D-01 0.38745415D-01 0.48615213D+05 0.48615213D+05 0.48615213D+05 0.11483698D+01  1  2  2  2  7  2        2 0.721897096405D-03 0.100000000000D+01
-.133688329560D-05 0.000000000000D+00 -.141602892815D-06 0.325465942893D-08 0.000000000000D+00  7 -2 2 23 -13 13 23 21 2 0.86498066D-01 0.38745415D-01 0.48615213D+05 0.48615213D+05 0.48615213D+05 0.11483698D+01  1  2  3  2  7  2        2 -.345160612782D-04 0.100000000000D+01
0.227059729009D-05 0.000000000000D+00 0.000000000000D+00 0.325465942893D-08 0.000000000000D+00  7 -2 2 23 -13 13 23 21 2 0.86498066D-01 0.38745415D-01 0.48615213D+05 0.48615213D+05 0.48615213D+05 0.11483698D+01  1  2 15  2  7  2        2 0.586229743918D-04 0.100000000000D+01
-.156921035664D-03 0.000000000000D+00 -.215313954565D-04 0.325465942893D-08 0.000000000000D+00  7 -2 2 23 -13 13 23 21 2 0.86498066D-01 0.28926345D+00 0.48615213D+05 0.48615213D+05 0.48615213D+05 0.11483698D+01  1  2  5  2  7  2        2 -.277029735598D-03 0.100000000000D+01
-.407431703435D-04 0.000000000000D+00 -.527573635584D-05 0.325465942893D-08 0.000000000000D+00  7 -2 21 23 -13 13 23 -2 2 0.86498066D-01 0.28926345D+00 0.48615213D+05 0.48615213D+05 0.48615213D+05 0.11483698D+01  1  2  5  4  7  2        2 -.179659197663D-04 0.100000000000D+01
  </mgrwgt>
  </event>
  <event>
  8     66 0.27870365E-05 0.53373730E+02 0.75467711E-02 0.10388221E+00
       -2 -1    0    0    0  501 0.00000000E+00 0.00000000E+00 0.18764933E+03 0.18764961E+03 0.32000000E+00 0.0000E+00 0.9000E+01
        2 -1    0    0  501    0 0.00000000E+00 0.00000000E+00 -.58931043E+03 0.58931052E+03 0.32000000E+00 0.0000E+00 0.9000E+01
       25  2    1    2    0    0 -.11968717E+03 0.13548931E+02 -.49902565E+03 0.59722783E+03 0.30519811E+03 0.0000E+00 0.0000E+00
       23  2    3    3    0    0 -.38920128E+02 -.92363773E+02 -.10005930E+03 0.16684403E+03 0.88199904E+02 0.0000E+00 0.0000E+00
       23  1    1    2    0    0 0.11968717E+03 -.13548931E+02 0.97364552E+02 0.17973230E+03 0.91188000E+02 0.0000E+00 0.9000E+01
      -11  1    4    4    0    0 0.77508973E+01 -.45564607E+02 -.88367011E+02 0.99724312E+02 0.51099893E-03 0.0000E+00 0.9000E+01
       11  1    4    4    0    0 -.46671026E+02 -.46799166E+02 -.11692289E+02 0.67119715E+02 0.51099893E-03 0.0000E+00 0.9000E+01
       23  1    3    3    0    0 -.80767042E+02 0.10591270E+03 -.39896635E+03 0.43038380E+03 0.91188000E+02 0.0000E+00 0.9000E+01
#aMCatNLO 1  0  0  2  1 0.48747793D+02 0.00000000D+00  -5  7  0 0.00000000D+00 0.00000000D+00 0.00000000D+00 0.00000000D+00 0.00000000D+00
  <mgrwgt>
 0.4333579852D-03    9    2    0
 0.332541502138862D+03 0.000000000000000D+00 0.000000000000000D+00 0.332541502138862D+03
 0.332541502138862D+03 0.000000000000000D+00 0.000000000000000D+00 -.332541502138862D+03
 0.268767030188369D+03 0.119687170089892D+03 -.135489310702231D+02 0.222287815579269D+03
 0.631323058067653D+02 0.775089728536839D+01 -.455646066719179D+02 -.430055606472466D+02
 0.713489961740601D+02 -.466710256131952D+02 -.467991656844976D+02 0.268762481476387D+02
 0.261834672108529D+03 -.807670417620654D+02 0.105912703426639D+03 -.206158503079661D+03
 0.000000000000000D+00 0.000000000000000D+00 -.000000000000000D+00 -.000000000000000D+00
 0.343036560930632D+03 0.000000000000000D+00 0.000000000000000D+00 0.343036560930632D+03
 0.395298250664207D+03 0.000000000000000D+00 0.000000000000000D+00 -.395298250664207D+03
 0.263794550901337D+03 0.108872989075996D+03 0.266702753881869D+01 0.222287815579269D+03
 0.602079458556126D+02 0.524635348210112D+01 -.418090214273093D+02 -.430055606472466D+02
 0.705845394728106D+02 -.495531241365000D+02 -.424774338491384D+02 0.268762481476387D+02
 0.272280079415897D+03 -.916127614126617D+02 0.122175954496077D+03 -.206158503079661D+03
 0.714676959491813D+02 0.270465429910643D+02 -.405565267584477D+02 -.522616897335749D+02
0.518555592057D-05 0.000000000000D+00 0.000000000000D+00 0.121187116929D-08 0.000000000000D+00  7 -2 2 23 -11 11 23 21 0 0.28869156D-01 0.90663171D-01 0.45115280D+05 0.45115280D+05 0.45115280D+05 0.11512433D+01  1  2  2  2  7  2        2 0.345370519035D-03 0.100000000000D+01
-.217698813127D-06 0.000000000000D+00 -.199139001232D-07 0.121187116929D-08 0.000000000000D+00  7 -2 2 23 -11 11 23 21 2 0.28869156D-01 0.90663171D-01 0.45115280D+05 0.45115280D+05 0.45115280D+05 0.11512433D+01  1  2  3  2  7  2        2 -.192167625301D-04 0.100000000000D+01
0.323738519944D-06 0.000000000000D+00 0.000000000000D+00 0.121187116929D-08 0.000000000000D+00  7 -2 2 23 -11 11 23 21 2 0.28869156D-01 0.90663171D-01 0.45115280D+05 0.45115280D+05 0.45115280D+05 0.11512433D+01  1  2 15  2  7  2        2 0.285771252965D-04 0.100000000000D+01
0.129971148813D-04 0.000000000000D+00 0.000000000000D+00 0.121187116929D-08 0.000000000000D+00  7 -2 2 23 -11 11 23 21 2 0.28869156D-01 0.10901888D+00 0.56657321D+05 0.56657321D+05 0.56657321D+05 0.11425508D+01  1  2 12  2  7  2        2 0.911018225637D-03 0.100000000000D+01
-.135179277506D-04 0.000000000000D+00 0.000000000000D+00 0.121187116929D-08 0.000000000000D+00  7 -2 2 23 -11 11 23 21 2 0.28869156D-01 0.90663171D-01 0.45115280D+05 0.45115280D+05 0.45115280D+05 0.11512433D+01  1  2  4  2  7  2        2 -.119325780307D-02 0.100000000000D+01
-.190157380162D-04 0.000000000000D+00 -.381201452864D-05 0.121187116929D-08 0.000000000000D+00  7 -2 2 23 -11 11 23 21 2 0.28869156D-01 0.10981757D+00 0.45115280D+05 0.45115280D+05 0.45115280D+05 0.11512433D+01  1  2  5  2  7  2        2 -.134421220145D-02 0.100000000000D+01
0.194568593570D-04 0.000000000000D+00 0.374304937113D-05 0.121187116929D-08 0.000000000000D+00  7 -2 2 23 -11 11 23 21 2 0.28869156D-01 0.90663171D-01 0.45115280D+05 0.45115280D+05 0.45115280D+05 0.11512433D+01  1  2  6  2  7  2        2 0.171750061691D-02 0.100000000000D+01
0.349263789961D-06 0.000000000000D+00 0.000000000000D+00 0.121187116929D-08 0.000000000000D+00  7 -2 21 23 -11 11 23 -2 2 0.28869156D-01 0.10901888D+00 0.56657321D+05 0.56657321D+05 0.56657321D+05 0.11425508D+01  1  2 12  4  7  2        2 0.308154891995D-04 0.100000000000D+01
-.485837942394D-06 0.000000000000D+00 -.105571599499D-06 0.121187116929D-08 0.000000000000D+00  7 -2 21 23 -11 11 23 -2 2 0.28869156D-01 0.10981757D+00 0.45115280D+05 0.45115280D+05 0.45115280D+05 0.11512433D+01  1  2  5  4  7  2        2 -.432372238488D-04 0.100000000000D+01
  </mgrwgt>
  </event>
  <event>
  8     66 0.27870365E-05 0.20558979E+03 0.75467711E-02 0.85025371E-01
       -2 -1    0    0    0  501 0.00000000E+00 0.00000000E+00 0.20452878E+03 0.20452903E+03 0.32000000E+00 0.0000E+00 0.9000E+01
        2 -1    0    0  501    0 0.00000000E+00 0.00000000E+00 -.42701474E+03 0.42701486E+03 0.32000000E+00 0.0000E+00 0.9000E+01
       25  2    1    2    0    0 0.85481395E+02 0.41587939E+02 0.59619357E+02 0.32019956E+03 0.29989443E+03 0.0000E+00 0.0000E+00
       23  2    3    3    0    0 0.11575062E+03 0.95216125E+02 0.99641567E+02 0.20311311E+03 0.94139152E+02 0.0000E+00 0.0000E+00
       23  1    1    2    0    0 -.85481395E+02 -.41587939E+02 -.28210532E+03 0.31134432E+03 0.91188000E+02 0.0000E+00 0.9000E+01
      -11  1    4    4    0    0 0.97897558E+02 0.10926123E+03 0.62254321E+02 0.15936608E+03 0.51099893E-03 0.0000E+00 0.9000E+01
       11  1    4    4    0    0 0.17853058E+02 -.14045104E+02 0.37387246E+02 0.43747031E+02 0.51099893E-03 0.0000E+00 0.9000E+01
       23  1    3    3    0    0 -.30269221E+02 -.53628186E+02 -.40022210E+02 0.11708645E+03 0.91188000E+02 0.0000E+00 0.9000E+01
#aMCatNLO 1  0  0  2  1 0.12575671D+04 0.00000000D+00  -5  7  0 0.00000000D+00 0.00000000D+00 0.00000000D+00 0.00000000D+00 0.00000000D+00
  <mgrwgt>
 0.5701486942D-03    5    2    0
 0.295528203862974D+03 0.000000000000000D+00 0.000000000000000D+00 0.295528203862974D+03
 0.295528203862974D+03 0.000000000000000D+00 0.000000000000000D+00 -.295528203862974D+03
 0.226481142177626D+03 -.854813950596537D+02 -.415879393951957D+02 -.184233088270264D+03
 0.193716515668276D+03 0.978975581566831D+02 0.109261228896465D+03 0.126507471754242D+03
 0.608170504603545D+02 0.178530579194632D+02 -.140451036717775D+02 0.564155742013730D+02
 0.110041699419692D+03 -.302692210164927D+02 -.536281858294917D+02 0.131004231464857D+01
 0.000000000000000D+00 -.000000000000000D+00 -.000000000000000D+00 -.000000000000000D+00
 0.117180903831545D+04 0.000000000000000D+00 0.000000000000000D+00 0.117180903831545D+04
 0.152356814629819D+04 0.000000000000000D+00 0.000000000000000D+00 -.152356814629819D+04
 0.330201938125429D+03 0.234240104714371D+03 0.109122917517776D+03 -.184233088270264D+03
 0.742948117013329D+03 0.635855027572168D+03 0.362844523281250D+03 0.126507471754242D+03
 0.164594982354083D+03 0.147314641625779D+03 0.469807148342647D+02 0.564155742013730D+02
 0.151795435202554D+03 0.120112503055998D+03 0.172590035369846D+02 0.131004231464857D+01
 0.130583671191825D+04 -.113752227696832D+04 -.536207159170276D+03 -.351759107982748D+03
0.673709809846D-05 0.000000000000D+00 0.000000000000D+00 0.864797825575D-07 0.000000000000D+00  7 -2 2 23 -11 11 23 21 0 0.31465994D-01 0.65694603D-01 0.42267164D+05 0.42267164D+05 0.42267164D+05 0.11537694D+01  1  2  2  2  7  2        2 0.550987617810D-03 0.100000000000D+01
-.314357786740D-06 0.000000000000D+00 -.258722306168D-07 0.864797825575D-07 0.000000000000D+00  7 -2 2 23 -11 11 23 21 2 0.31465994D-01 0.65694603D-01 0.42267164D+05 0.42267164D+05 0.42267164D+05 0.11537694D+01  1  2  3  2  7  2        2 -.342240339011D-04 0.100000000000D+01
0.410807635058D-06 0.000000000000D+00 0.000000000000D+00 0.864797825575D-07 0.000000000000D+00  7 -2 2 23 -11 11 23 21 2 0.31465994D-01 0.65694603D-01 0.42267164D+05 0.42267164D+05 0.42267164D+05 0.11537694D+01  1  2 15  2  7  2        2 0.447244987148D-04 0.100000000000D+01
0.141880834916D-04 0.000000000000D+00 -.463999938903D-05 0.864797825575D-07 0.000000000000D+00  7 -2 2 23 -11 11 23 21 2 0.31465994D-01 0.61822555D+00 0.42267164D+05 0.42267164D+05 0.42267164D+05 0.11537694D+01  1  2  5  2  7  2        2 0.862172955227D-05 0.100000000000D+01
0.311714298753D-05 0.000000000000D+00 -.124565600322D-05 0.864797825575D-07 0.000000000000D+00  7 -2 21 23 -11 11 23 -2 2 0.31465994D-01 0.61822555D+00 0.42267164D+05 0.42267164D+05 0.42267164D+05 0.11537694D+01  1  2  5  4  7  2        2 0.388819962148D-07 0.100000000000D+01
  </mgrwgt>
  </event>
  <event>
  8     66 0.27870365E-05 0.18175423E+03 0.75467711E-02 0.10091094E+00
       -2 -1    0    0    0  501 0.00000000E+00 0.00000000E+00 0.47997115E+02 0.47998182E+02 0.32000000E+00 0.0000E+00 0.9000E+01
        2 -1    0    0  501    0 0.00000000E+00 0.00000000E+00 -.18614939E+04 0.18614939E+04 0.32000000E+00 0.0000E+00 0.9000E+01
       25  2    1    2    0    0 0.61815679E+02 0.52840434E+02 -.50421374E+03 0.59452039E+03 0.30431843E+03 0.0000E+00 0.0000E+00
       23  2    3    3    0    0 0.65675151E+02 0.10168368E+03 -.11212957E+03 0.18900120E+03 0.92171685E+02 0.0000E+00 0.0000E+00
       23  1    1    2    0    0 -.61815679E+02 -.52840434E+02 -.13092830E+04 0.13149717E+04 0.91188000E+02 0.0000E+00 0.9000E+01
      -11  1    4    4    0    0 0.46646233E+01 0.67917834E+02 -.15468276E+02 0.69813025E+02 0.51099893E-03 0.0000E+00 0.9000E+01
       11  1    4    4    0    0 0.61010528E+02 0.33765842E+02 -.96661293E+02 0.11918818E+03 0.51099893E-03 0.0000E+00 0.9000E+01
       23  1    3    3    0    0 -.38594717E+01 -.48843242E+02 -.39208418E+03 0.40551919E+03 0.91188000E+02 0.0000E+00 0.9000E+01
#aMCatNLO 1  0  0  2  1 0.21674184D+03 0.00000000D+00  -5  7  0 0.00000000D+00 0.00000000D+00 0.00000000D+00 0.00000000D+00 0.00000000D+00
  <mgrwgt>
 0.4567105451D-03    6    2    0
 0.298910320475154D+03 0.000000000000000D+00 0.000000000000000D+00 0.298910320475154D+03
 0.298910320475154D+03 0.000000000000000D+00 0.000000000000000D+00 -.298910320475154D+03
 0.228408863026889D+03 -.618156794688486D+02 -.528404343600245D+02 -.192982039666090D+03
 0.176065766602842D+03 0.466462325075550D+01 0.679178340599172D+02 0.162371682494161D+03
 0.874743028361000D+02 0.610105278729497D+02 0.337658422185000D+02 0.528141746560630D+02
 0.105871708484477D+03 -.385947165485657D+01 -.488432419183927D+02 -.222038174841337D+02
 0.000000000000000D+00 -.000000000000000D+00 0.000000000000000D+00 -.000000000000000D+00
 0.394819049114311D+03 0.000000000000000D+00 0.000000000000000D+00 0.394819049114311D+03
 0.470729977454504D+03 0.000000000000000D+00 0.000000000000000D+00 -.470729977454504D+03
 0.260782662089047D+03 -.568316701673213D+02 -.138637798361625D+03 -.192982039666090D+03
 0.162795779787683D+03 0.811703199544926D+01 0.848624960038898D+01 0.162371682494161D+03
 0.821073489807294D+02 0.627382694355680D+02 0.402358798489897D+01 0.528141746560630D+02
 0.130212427099505D+03 -.145418565278457D+01 -.902491033770547D+02 -.222038174841337D+02
 0.229650808611850D+03 -.125694456109115D+02 0.216377064153392D+03 -.759109283401932D+02
0.309874464052D-05 0.000000000000D+00 0.000000000000D+00 0.499946828075D-08 0.000000000000D+00  7 -2 2 23 -11 11 23 21 0 0.73842557D-02 0.28638376D+00 0.33034600D+05 0.33034600D+05 0.33034600D+05 0.11634730D+01  1  2  2  2  7  2        2 0.320927309069D-03 0.100000000000D+01
-.120348830509D-06 0.000000000000D+00 -.118999953378D-07 0.499946828075D-08 0.000000000000D+00  7 -2 2 23 -11 11 23 21 2 0.73842557D-02 0.28638376D+00 0.33034600D+05 0.33034600D+05 0.33034600D+05 0.11634730D+01  1  2  3  2  7  2        2 -.168723426799D-04 0.100000000000D+01
0.191682224032D-06 0.000000000000D+00 0.000000000000D+00 0.499946828075D-08 0.000000000000D+00  7 -2 2 23 -11 11 23 21 2 0.73842557D-02 0.28638376D+00 0.33034600D+05 0.33034600D+05 0.33034600D+05 0.11634730D+01  1  2 15  2  7  2        2 0.268729505374D-04 0.100000000000D+01
-.576993719923D-06 0.000000000000D+00 -.837258324570D-06 0.499946828075D-08 0.000000000000D+00  7 -2 2 23 -11 11 23 21 2 0.73842557D-02 0.49548151D+00 0.33034600D+05 0.33034600D+05 0.33034600D+05 0.11634730D+01  1  2  5  2  7  2        2 -.136546614869D-04 0.100000000000D+01
0.994528016795D-06 0.000000000000D+00 0.725488750405D-06 0.499946828075D-08 0.000000000000D+00  7 -2 2 23 -11 11 23 21 2 0.73842557D-02 0.28638376D+00 0.33034600D+05 0.33034600D+05 0.33034600D+05 0.11634730D+01  1  2  6  2  7  2        2 0.139428172530D-03 0.100000000000D+01
0.660538528379D-08 0.000000000000D+00 -.508677997577D-07 0.499946828075D-08 0.000000000000D+00  7 -2 21 23 -11 11 23 -2 2 0.73842557D-02 0.49548151D+00 0.33034600D+05 0.33034600D+05 0.33034600D+05 0.11634730D+01  1  2  5  4  7  2        2 0.911711749050D-08 0.100000000000D+01
  </mgrwgt>
  </event>
  <event>
  8     66 0.27870365E-05 0.46694000E+03 0.75467711E-02 0.90661050E-01
       -2 -1    0    0    0  501 0.00000000E+00 0.00000000E+00 0.12137269E+03 0.12137311E+03 0.32000000E+00 0.0000E+00 0.9000E+01
        2 -1    0    0  501    0 0.00000000E+00 0.00000000E+00 -.38457816E+04 0.38457817E+04 0.32000000E+00 0.0000E+00 0.9000E+01
       25  2    1    2    0    0 0.51516536E+03 0.37820806E+03 -.22341132E+04 0.23430447E+04 0.30026695E+03 0.0000E+00 0.0000E+00
       23  2    3    3    0    0 0.12705165E+03 0.18095922E+03 -.50470597E+03 0.55735050E+03 0.83803936E+02 0.0000E+00 0.0000E+00
       23  1    1    2    0    0 -.51516536E+03 -.37820806E+03 -.14902958E+04 0.16241100E+04 0.91188000E+02 0.0000E+00 0.9000E+01
      -11  1    4    4    0    0 0.66616504E+02 0.10177841E+03 -.37224640E+03 0.39161714E+03 0.51099893E-03 0.0000E+00 0.9000E+01
       11  1    4    4    0    0 0.60435143E+02 0.79180814E+02 -.13245958E+03 0.16573336E+03 0.51099893E-03 0.0000E+00 0.9000E+01
       23  1    3    3    0    0 0.38811371E+03 0.19724884E+03 -.17294072E+04 0.17856942E+04 0.91188000E+02 0.0000E+00 0.9000E+01
#aMCatNLO 1  0  0  2  1 0.12066824D+03 0.00000000D+00  -5  7  0 0.00000000D+00 0.00000000D+00 0.00000000D+00 0.00000000D+00 0.00000000D+00
  <mgrwgt>
 0.6615339769D-03    9    2    0
 0.683208413348220D+03 0.000000000000000D+00 0.000000000000000D+00 0.683208413348220D+03
 0.683208413348220D+03 0.000000000000000D+00 0.000000000000000D+00 -.683208413348220D+03
 0.653259649743072D+03 -.515165355278106D+03 -.378208058461102D+03 0.999811976058858D+02
 0.122369676421260D+03 0.666165039072436D+02 0.101778407187318D+03 -.133317270086271D+02
 0.120136303493812D+03 0.604351433973987D+02 0.791808142623993D+02 0.671619201068321D+02
 0.470651197038297D+03 0.388113707973464D+03 0.197248837011385D+03 -.153811390704091D+03
 0.000000000000000D+00 -.000000000000000D+00 -.000000000000000D+00 -.000000000000000D+00
 0.696660667879389D+03 0.000000000000000D+00 0.000000000000000D+00 0.696660667879389D+03
 0.102313026192018D+04 0.000000000000000D+00 0.000000000000000D+00 -.102313026192018D+04
 0.599431552140589D+03 -.472317371491290D+03 -.343399177445910D+03 0.999811976058858D+02
 0.133079274498691D+03 0.753540702691042D+02 0.108876638678572D+03 -.133317270086271D+02
 0.129155228258200D+03 0.689620968035047D+02 0.861079478239686D+02 0.671619201068321D+02
 0.510068528915203D+03 0.421658976634950D+03 0.224500370508735D+03 -.153811390704091D+03
 0.348056345986882D+03 -.936577722162692D+02 -.760857795653660D+02 -.326469594040786D+03
0.408837225799D-03 0.000000000000D+00 0.000000000000D+00 0.511990362210D-07 0.000000000000D+00  7 -2 2 23 -11 11 23 21 0 0.18672755D-01 0.59165875D+00 0.43008829D+06 0.43008829D+06 0.43008829D+06 0.10731643D+01  1  2  2  2  7  2        2 0.514968907527D-03 0.100000000000D+01
-.226669218733D-04 0.000000000000D+00 -.157004259638D-05 0.511990362210D-07 0.000000000000D+00  7 -2 2 23 -11 11 23 21 2 0.18672755D-01 0.59165875D+00 0.43008829D+06 0.43008829D+06 0.43008829D+06 0.10731643D+01  1  2  3  2  7  2        2 -.328817996152D-04 0.100000000000D+01
0.250965453760D-04 0.000000000000D+00 0.000000000000D+00 0.511990362210D-07 0.000000000000D+00  7 -2 2 23 -11 11 23 21 2 0.18672755D-01 0.59165875D+00 0.43008829D+06 0.43008829D+06 0.43008829D+06 0.10731643D+01  1  2 15  2  7  2        2 0.364063361006D-04 0.100000000000D+01
0.842077832189D-03 0.000000000000D+00 0.000000000000D+00 0.511990362210D-07 0.000000000000D+00  7 -2 2 23 -11 11 23 21 2 0.18672755D-01 0.88954051D+00 0.51894515D+06 0.51894515D+06 0.51894515D+06 0.10673708D+01  1  2 12  2  7  2        2 0.330921707416D-05 0.100000000000D+01
-.910312999876D-03 0.000000000000D+00 0.000000000000D+00 0.511990362210D-07 0.000000000000D+00  7 -2 2 23 -11 11 23 21 2 0.18672755D-01 0.59165875D+00 0.43008829D+06 0.43008829D+06 0.43008829D+06 0.10731643D+01  1  2  4  2  7  2        2 -.132054673397D-02 0.100000000000D+01
-.908693975066D-03 0.000000000000D+00 -.752101378255D-04 0.511990362210D-07 0.000000000000D+00  7 -2 2 23 -11 11 23 21 2 0.18672755D-01 0.88683504D+00 0.43008829D+06 0.43008829D+06 0.43008829D+06 0.10731643D+01  1  2  5  2  7  2        2 -.410382429412D-05 0.100000000000D+01
0.100946516635D-02 0.000000000000D+00 0.809071138847D-04 0.511990362210D-07 0.000000000000D+00  7 -2 2 23 -11 11 23 21 2 0.18672755D-01 0.59165875D+00 0.43008829D+06 0.43008829D+06 0.43008829D+06 0.10731643D+01  1  2  6  2  7  2        2 0.146438195287D-02 0.100000000000D+01
0.406542579626D-04 0.000000000000D+00 0.000000000000D+00 0.511990362210D-07 0.000000000000D+00  7 -2 21 23 -11 11 23 -2 2 0.18672755D-01 0.88954051D+00 0.51894515D+06 0.51894515D+06 0.51894515D+06 0.10673708D+01  1  2 12  4  7  2        2 0.430399226174D-09 0.100000000000D+01
-.410206551879D-04 0.000000000000D+00 -.361103961979D-05 0.511990362210D-07 0.000000000000D+00  7 -2 21 23 -11 11 23 -2 2 0.18672755D-01 0.88683504D+00 0.43008829D+06 0.43008829D+06 0.43008829D+06 0.10731643D+01  1  2  5  4  7  2        2 -.509161296128D-09 0.100000000000D+01
  </mgrwgt>
  </event>
  <event>
  8     66 0.27870365E-05 0.11826420E+03 0.75467711E-02 0.10259318E+00
       -2 -1    0    0    0  501 0.00000000E+00 0.00000000E+00 0.14875045E+03 0.14875080E+03 0.32000000E+00 0.0000E+00 0.9000E+01
        2 -1    0    0  501    0 0.00000000E+00 0.00000000E+00 -.45710007E+03 0.45710018E+03 0.32000000E+00 0.0000E+00 0.9000E+01
       25  2    1    2    0    0 -.14267305E+03 0.66860983E+02 -.19839958E+03 0.39317692E+03 0.30066545E+03 0.0000E+00 0.0000E+00
       23  2    3    3    0    0 -.63787155E+02 -.73965045E+02 -.15121227E+03 0.20187390E+03 0.91368978E+02 0.0000E+00 0.0000E+00
       23  1    1    2    0    0 0.14267305E+03 -.66860983E+02 -.10995004E+03 0.21267405E+03 0.91188000E+02 0.0000E+00 0.9000E+01
      -11  1    4    4    0    0 -.79889169E+02 -.79964282E+02 -.14442460E+03 0.18339856E+03 0.51099893E-03 0.0000E+00 0.9000E+01
       11  1    4    4    0    0 0.16102014E+02 0.59992363E+01 -.67876717E+01 0.18475340E+02 0.51099893E-03 0.0000E+00 0.9000E+01
       23  1    3    3    0    0 -.78885896E+02 0.14082603E+03 -.47187303E+02 0.19130303E+03 0.91188000E+02 0.0000E+00 0.9000E+01
#aMCatNLO 1  0  0  1  2 0.25140446D+02 0.00000000D+00  -5  7  0 0.00000000D+00 0.00000000D+00 0.00000000D+00 0.00000000D+00 0.00000000D+00
  <mgrwgt>
 0.5601162540D-03    6    2    0
 0.260756554373064D+03 0.000000000000000D+00 0.000000000000000D+00 0.260756554373064D+03
 0.260756554373064D+03 0.000000000000000D+00 0.000000000000000D+00 -.260756554373064D+03
 0.182058187309867D+03 0.142673051303290D+03 -.668609835063100D+02 -.198533093768882D+01
 0.127664913112683D+03 -.798891693848120D+02 -.799642815046531D+02 -.593444549938610D+02
 0.174498523786501D+02 0.161020141107223D+02 0.599923634480473D+01 0.303836352235077D+01
 0.194340155944929D+03 -.788858960292008D+02 0.140826028666158D+03 0.582914224091991D+02
 0.000000000000000D+00 0.000000000000000D+00 -.000000000000000D+00 -.000000000000000D+00
 0.272401704665731D+03 0.000000000000000D+00 0.000000000000000D+00 0.272401704665731D+03
 0.274990394242489D+03 0.000000000000000D+00 0.000000000000000D+00 -.274990394242489D+03
 0.176110138643399D+03 0.138479893293903D+03 -.593203776401847D+02 -.198533093768882D+01
 0.126315843680584D+03 -.828625798385239D+02 -.746171621594094D+02 -.593444549938610D+02
 0.173456310577917D+02 0.156946554765559D+02 0.673179421635068D+01 0.303836352235077D+01
 0.202347113183288D+03 -.835300040623159D+02 0.149177583317576D+03 0.582914224091991D+02
 0.252733723431573D+02 0.122180351303808D+02 -.219718377343326D+02 -.258868957675717D+01
0.252945584787D-05 0.000000000000D+00 0.000000000000D+00 0.113892549373D-06 0.000000000000D+00  7 -2 2 23 -11 11 23 21 0 0.22884720D-01 0.70323123D-01 0.61915415D+05 0.61915415D+05 0.61915415D+05 0.11392186D+01  1  2  2  1  7  1       -2 0.331586596577D-03 0.100000000000D+01
-.140150704195D-06 0.000000000000D+00 -.971377647686D-08 0.113892549373D-06 0.000000000000D+00  7 -2 2 23 -11 11 23 21 2 0.22884720D-01 0.70323123D-01 0.61915415D+05 0.61915415D+05 0.61915415D+05 0.11392186D+01  1  2  3  1  7  1       -2 -.238440107796D-04 0.100000000000D+01
0.164328397328D-06 0.000000000000D+00 0.000000000000D+00 0.113892549373D-06 0.000000000000D+00  7 -2 2 23 -11 11 23 21 2 0.22884720D-01 0.70323123D-01 0.61915415D+05 0.61915415D+05 0.61915415D+05 0.11392186D+01  1  2 15  1  7  1       -2 0.279573912938D-04 0.100000000000D+01
0.433150600414D-05 0.000000000000D+00 0.000000000000D+00 0.113892549373D-06 0.000000000000D+00  7 -2 2 23 -11 11 23 21 2 0.24501392D-01 0.70323123D-01 0.68537530D+05 0.68537530D+05 0.68537530D+05 0.11354400D+01  1  2 12  1  7  1       -2 0.652888297201D-03 0.100000000000D+01
-.307641515172D-05 0.000000000000D+00 0.000000000000D+00 0.113892549373D-06 0.000000000000D+00  7 -2 2 23 -11 11 23 21 2 0.22884720D-01 0.70323123D-01 0.61915415D+05 0.61915415D+05 0.61915415D+05 0.11392186D+01  1  2  4  1  7  1       -2 -.523394273766D-03 0.100000000000D+01
0.505348086111D-07 0.000000000000D+00 0.000000000000D+00 0.113892549373D-06 0.000000000000D+00  7 21 2 23 -11 11 23 2 2 0.24501392D-01 0.70323123D-01 0.68537530D+05 0.68537530D+05 0.68537530D+05 0.11354400D+01  1  2 12  3  7  1       -2 0.949222534857D-04 0.100000000000D+01
  </mgrwgt>
  </event>
  <event>
  8     66 0.27870365E-05 0.31323719E+03 0.75467711E-02 0.97340456E-01
       -2 -1    0    0    0  501 0.00000000E+00 0.00000000E+00 0.16079893E+03 0.16079925E+03 0.32000000E+00 0.0000E+00 0.9000E+01
        2 -1    0    0  501    0 0.00000000E+00 0.00000000E+00 -.11483248E+04 0.11483248E+04 0.32000000E+00 0.0000E+00 0.9000E+01
       25  2    1    2    0    0 -.15017280E+03 -.18454564E+03 -.11502821E+03 0.40018165E+03 0.30050774E+03 0.0000E+00 0.0000E+00
       23  2    3    3    0    0 0.33478154E+02 -.14458865E+03 -.44663086E+02 0.17974858E+03 0.91038989E+02 0.0000E+00 0.0000E+00
       23  1    1    2    0    0 0.15017280E+03 0.18454564E+03 -.87249763E+03 0.90894242E+03 0.91188000E+02 0.0000E+00 0.9000E+01
      -11  1    4    4    0    0 0.48860149E+02 -.62901745E+02 0.99832043E+01 0.80272087E+02 0.51099893E-03 0.0000E+00 0.9000E+01
       11  1    4    4    0    0 -.15381994E+02 -.81686906E+02 -.54646291E+02 0.99476497E+02 0.51099893E-03 0.0000E+00 0.9000E+01
       23  1    3    3    0    0 -.18365096E+03 -.39956992E+02 -.70365127E+02 0.22043307E+03 0.91188000E+02 0.0000E+00 0.9000E+01
#aMCatNLO 1  0  0  2  1 0.16415805D+03 0.00000000D+00  -5  7  0 0.00000000D+00 0.00000000D+00 0.00000000D+00 0.00000000D+00 0.00000000D+00
  <mgrwgt>
 0.3982638239D-03    4    2    0
 0.429708782343990D+03 0.000000000000000D+00 0.000000000000000D+00 0.429708782343990D+03
 0.429708782343990D+03 0.000000000000000D+00 0.000000000000000D+00 -.429708782343990D+03
 0.382008076910086D+03 0.150172801186343D+03 0.184545642704579D+03 -.284615451132125D+03
 0.133747317240758D+03 0.488601485543158D+02 -.629017446272589D+02 0.107444875518553D+03
 0.887373675314532D+02 -.153819942365013D+02 -.816869057556262D+02 0.310638709402400D+02
 0.254924803005683D+03 -.183650955504158D+03 -.399569923216944D+02 0.146106704673332D+03
 0.000000000000000D+00 0.000000000000000D+00 0.000000000000000D+00 0.000000000000000D+00
 0.579411956412135D+03 0.000000000000000D+00 0.000000000000000D+00 0.579411956412135D+03
 0.484942894829410D+03 0.000000000000000D+00 0.000000000000000D+00 -.484942894829410D+03
 0.346294821064038D+03 0.908069304650882D+02 0.149509190714617D+03 -.284615451132125D+03
 0.134234646233251D+03 0.270162390443041D+02 -.757935472323978D+02 0.107444875518553D+03
 0.100802449990913D+03 -.308318796274047D+02 -.908050937173670D+02 0.310638709402400D+02
 0.293623175971682D+03 -.228364533460472D+03 -.663459782547343D+02 0.146106704673332D+03
 0.189399757981663D+03 0.141373243578485D+03 0.834354284898820D+02 0.944690615827247D+02
0.142276483130D-04 0.000000000000D+00 0.000000000000D+00 0.650303373986D-06 0.000000000000D+00  7 -2 2 23 -11 11 23 21 0 0.24738326D-01 0.17666538D+00 0.98117538D+05 0.98117538D+05 0.98117538D+05 0.11224000D+01  1  2  2  2  7  2        2 0.519263826409D-03 0.100000000000D+01
-.694369831054D-06 0.000000000000D+00 -.546379157476D-07 0.650303373986D-06 0.000000000000D+00  7 -2 2 23 -11 11 23 21 2 0.24738326D-01 0.17666538D+00 0.98117538D+05 0.98117538D+05 0.98117538D+05 0.11224000D+01  1  2  3  2  7  2        2 -.319257474619D-04 0.100000000000D+01
0.866122969440D-06 0.000000000000D+00 0.000000000000D+00 0.650303373986D-06 0.000000000000D+00  7 -2 2 23 -11 11 23 21 2 0.24738326D-01 0.17666538D+00 0.98117538D+05 0.98117538D+05 0.98117538D+05 0.11224000D+01  1  2 15  2  7  2        2 0.398226160709D-04 0.100000000000D+01
-.280344567423D-05 0.000000000000D+00 0.000000000000D+00 0.650303373986D-06 0.000000000000D+00  7 -2 2 23 -11 11 23 21 2 0.24738326D-01 0.17666538D+00 0.98117538D+05 0.98117538D+05 0.98117538D+05 0.11224000D+01  1  2  4  2  7  2        2 -.128896871114D-03 0.100000000000D+01
  </mgrwgt>
  </event>
  <event>
  8     66 0.27870365E-05 0.51931800E+03 0.75467711E-02 0.89552194E-01
       -2 -1    0    0    0  501 0.00000000E+00 0.00000000E+00 0.17837776E+03 0.17837805E+03 0.32000000E+00 0.0000E+00 0.9000E+01
        2 -1    0    0  501    0 0.00000000E+00 0.00000000E+00 -.19355316E+04 0.19355316E+04 0.32000000E+00 0.0000E+00 0.9000E+01
       25  2    1    2    0    0 0.23882656E+03 -.41010731E+03 -.14122583E+04 0.15201974E+04 0.30215943E+03 0.0000E+00 0.0000E+00
       23  2    3    3    0    0 0.24914296E+03 -.20837786E+03 -.92583248E+03 0.98566341E+03 0.94196729E+02 0.0000E+00 0.0000E+00
       23  1    1    2    0    0 -.23882656E+03 0.41010731E+03 -.34489548E+03 0.59371228E+03 0.91188000E+02 0.0000E+00 0.9000E+01
      -11  1    4    4    0    0 0.23070610E+03 -.15671768E+03 -.82513558E+03 0.87099624E+03 0.51099893E-03 0.0000E+00 0.9000E+01
       11  1    4    4    0    0 0.18436864E+02 -.51660184E+02 -.10069690E+03 0.11466717E+03 0.51099893E-03 0.0000E+00 0.9000E+01
       23  1    3    3    0    0 -.10316403E+02 -.20172945E+03 -.48642586E+03 0.53453397E+03 0.91188000E+02 0.0000E+00 0.9000E+01
#aMCatNLO 1  0  0  2  1 0.47486448D+03 0.00000000D+00  -5  7  0 0.00000000D+00 0.00000000D+00 0.00000000D+00 0.00000000D+00 0.00000000D+00
  <mgrwgt>
 0.7388131214D-03    3    2    0
 0.587584994737479D+03 0.000000000000000D+00 0.000000000000000D+00 0.587584994737479D+03
 0.587584994737479D+03 0.000000000000000D+00 0.000000000000000D+00 -.587584994737479D+03
 0.552277306302501D+03 -.238826558336416D+03 0.410107306937512D+03 0.267336573521826D+03
 0.332987774913009D+03 0.230706097321268D+03 -.156717677363552D+03 -.181920654413071D+03
 0.556992446951469D+02 0.184368643386257D+02 -.516601835237816D+02 -.968056461463669D+01
 0.234205663564300D+03 -.103164033234779D+02 -.201729446050178D+03 -.757353544941177D+02
 0.000000000000000D+00 0.000000000000000D+00 0.000000000000000D+00 0.000000000000000D+00
 0.108522357822029D+04 0.000000000000000D+00 0.000000000000000D+00 0.108522357822029D+04
 0.758607887227180D+03 0.000000000000000D+00 0.000000000000000D+00 -.758607887227180D+03
 0.476956920942074D+03 -.312297209934116D+03 0.223996120983198D+03 0.267336573521826D+03
 0.383817781969955D+03 0.179537791857861D+03 -.286333977287117D+03 -.181920654413071D+03
 0.767558689712378D+02 0.898171481977449D+01 -.756113674599786D+02 -.968056461463669D+01
 0.329955436226348D+03 -.505883671879723D+02 -.303743825840502D+03 -.757353544941177D+02
 0.576345457337853D+03 0.174366070444453D+03 0.441693049604399D+03 0.326615690993108D+03
0.668176040135D-04 0.000000000000D+00 0.000000000000D+00 0.246974395495D-07 0.000000000000D+00  7 -2 2 23 -11 11 23 21 0 0.27442757D-01 0.29777411D+00 0.26969118D+06 0.26969118D+06 0.26969118D+06 0.10879907D+01  1  2  2  2  7  2        2 0.731452872714D-03 0.100000000000D+01
-.364324520998D-05 0.000000000000D+00 -.256597192891D-06 0.246974395495D-07 0.000000000000D+00  7 -2 2 23 -11 11 23 21 2 0.27442757D-01 0.29777411D+00 0.26969118D+06 0.26969118D+06 0.26969118D+06 0.10879907D+01  1  2  3  2  7  2        2 -.472100199561D-04 0.100000000000D+01
0.421124308113D-05 0.000000000000D+00 0.000000000000D+00 0.246974395495D-07 0.000000000000D+00  7 -2 2 23 -11 11 23 21 2 0.27442757D-01 0.29777411D+00 0.26969118D+06 0.26969118D+06 0.26969118D+06 0.10879907D+01  1  2 15  2  7  2        2 0.545702686592D-04 0.100000000000D+01
  </mgrwgt>
  </event>
  <event>
  8     66 0.27870365E-05 0.15639574E+03 0.75467711E-02 0.10078681E+00
       -2 -1    0    0    0  501 0.00000000E+00 0.00000000E+00 0.12324320E+03 0.12324361E+03 0.32000000E+00 0.0000E+00 0.9000E+01
        2 -1    0    0  501    0 0.00000000E+00 0.00000000E+00 -.14432209E+04 0.14432209E+04 0.32000000E+00 0.0000E+00 0.9000E+01
       25  2    1    2    0    0 -.19439546E+03 -.13007458E+03 -.12495840E+04 0.13057357E+04 0.29795391E+03 0.0000E+00 0.0000E+00
       23  2    3    3    0    0 0.56579933E+01 -.66010200E+02 -.71557746E+03 0.72469880E+03 0.93530202E+02 0.0000E+00 0.0000E+00
       23  1    1    2    0    0 0.19439546E+03 0.13007458E+03 -.70393646E+02 0.26072880E+03 0.91188000E+02 0.0000E+00 0.9000E+01
      -11  1    4    4    0    0 0.29702320E+02 -.75596834E+02 -.63218544E+03 0.63738178E+03 0.51099893E-03 0.0000E+00 0.9000E+01
       11  1    4    4    0    0 -.24044326E+02 0.95866342E+01 -.83392020E+02 0.87317021E+02 0.51099893E-03 0.0000E+00 0.9000E+01
       23  1    3    3    0    0 -.20005345E+03 -.64064377E+02 -.53400656E+03 0.58103690E+03 0.91188000E+02 0.0000E+00 0.9000E+01
#aMCatNLO 1  0  0  2  1 0.14930574D+02 0.00000000D+00  -5  7  0 0.00000000D+00 0.00000000D+00 0.00000000D+00 0.00000000D+00 0.00000000D+00
  <mgrwgt>
 0.7447358366D-03    9    2    0
 0.421743409822315D+03 0.000000000000000D+00 0.000000000000000D+00 0.421743409822315D+03
 0.421743409822315D+03 0.000000000000000D+00 0.000000000000000D+00 -.421743409822315D+03
 0.374047772735486D+03 0.194395456385527D+03 0.130074577022055D+03 0.277285946080168D+03
 0.194389856542568D+03 0.297023195186626D+02 -.755968343157603D+02 -.176607777810851D+03
 0.316583614718652D+02 -.240443261707169D+02 0.958663419988197D+01 -.182268668398360D+02
 0.243390828894712D+03 -.200053449733473D+03 -.640643769061762D+02 -.824513014294811D+02
 0.000000000000000D+00 0.000000000000000D+00 -.000000000000000D+00 -.000000000000000D+00
 0.422604358230524D+03 0.000000000000000D+00 0.000000000000000D+00 0.422604358230524D+03
 0.491921149309646D+03 0.000000000000000D+00 0.000000000000000D+00 -.491921149309646D+03
 0.375143755897763D+03 0.192206623891814D+03 0.136333063061084D+03 0.277285946080168D+03
 0.192983619733433D+03 0.285705720019463D+02 -.723608507247732D+02 -.176607777810851D+03
 0.319640066119236D+02 -.242302048162521D+02 0.101181133840484D+02 -.182268668398360D+02
 0.243527570212691D+03 -.201476026969093D+03 -.599968295748287D+02 -.824513014294811D+02
 0.709065550843595D+02 0.492903589158496D+01 -.140934961455306D+02 -.693167910791223D+02
0.144101740154D-04 0.000000000000D+00 0.000000000000D+00 0.229353910179D-07 0.000000000000D+00  7 -2 2 23 -11 11 23 21 0 0.18960526D-01 0.22203401D+00 0.86187342D+05 0.86187342D+05 0.86187342D+05 0.11270585D+01  1  2  2  2  7  2        2 0.563629127308D-03 0.100000000000D+01
-.672829109104D-06 0.000000000000D+00 -.553388625052D-07 0.229353910179D-07 0.000000000000D+00  7 -2 2 23 -11 11 23 21 2 0.18960526D-01 0.22203401D+00 0.86187342D+05 0.86187342D+05 0.86187342D+05 0.11270585D+01  1  2  3  2  7  2        2 -.334288829582D-04 0.100000000000D+01
0.895022913142D-06 0.000000000000D+00 0.000000000000D+00 0.229353910179D-07 0.000000000000D+00  7 -2 2 23 -11 11 23 21 2 0.18960526D-01 0.22203401D+00 0.86187342D+05 0.86187342D+05 0.86187342D+05 0.11270585D+01  1  2 15  2  7  2        2 0.444683736234D-04 0.100000000000D+01
0.423227936445D-03 0.000000000000D+00 0.000000000000D+00 0.229353910179D-07 0.000000000000D+00  7 -2 2 23 -11 11 23 21 2 0.18960526D-01 0.25918355D+00 0.90242236D+05 0.90242236D+05 0.90242236D+05 0.11253997D+01  1  2 12  2  7  2        2 0.155464084232D-01 0.100000000000D+01
-.420734426485D-03 0.000000000000D+00 0.000000000000D+00 0.229353910179D-07 0.000000000000D+00  7 -2 2 23 -11 11 23 21 2 0.18960526D-01 0.22203401D+00 0.86187342D+05 0.86187342D+05 0.86187342D+05 0.11270585D+01  1  2  4  2  7  2        2 -.209037951972D-01 0.100000000000D+01
-.446103403884D-03 0.000000000000D+00 -.109636107254D-04 0.229353910179D-07 0.000000000000D+00  7 -2 2 23 -11 11 23 21 2 0.18960526D-01 0.25916397D+00 0.86187342D+05 0.86187342D+05 0.86187342D+05 0.11270585D+01  1  2  5  2  7  2        2 -.164582588809D-01 0.100000000000D+01
0.442626219130D-03 0.000000000000D+00 0.108338309826D-04 0.229353910179D-07 0.000000000000D+00  7 -2 2 23 -11 11 23 21 2 0.18960526D-01 0.22203401D+00 0.86187342D+05 0.86187342D+05 0.86187342D+05 0.11270585D+01  1  2  6  2  7  2        2 0.219914683733D-01 0.100000000000D+01
0.989800518067D-05 0.000000000000D+00 0.000000000000D+00 0.229353910179D-07 0.000000000000D+00  7 -2 21 23 -11 11 23 -2 2 0.18960526D-01 0.25918355D+00 0.90242236D+05 0.90242236D+05 0.90242236D+05 0.11253997D+01  1  2 12  4  7  2        2 0.108842536601D-03 0.100000000000D+01
-.103485367290D-04 0.000000000000D+00 -.256304519754D-06 0.229353910179D-07 0.000000000000D+00  7 -2 21 23 -11 11 23 -2 2 0.18960526D-01 0.25916397D+00 0.86187342D+05 0.86187342D+05 0.86187342D+05 0.11270585D+01  1  2  5  4  7  2        2 -.114598036350D-03 0.100000000000D+01
  </mgrwgt>
  </event>
</LesHouchesEvents>
